                               Psi4 1.4a3.dev225

  ==> Input File <==

--------------------------------------------------------------------------
#psi4
#
memory 32 gb

molecule  {
0 1
  S        1.0053540    -0.0074810    -0.7736030
  S       -1.6960990    -1.1658100     0.0116150
  O        1.1339470    -1.3419000    -1.3567350
  O        1.3858060     1.2139170    -1.4782970
  N        1.8781370    -0.0233820     0.6524530
  C       -0.6861290     0.1873580    -0.3161810
  C        1.8702590     1.2384050     1.3961810
  C        1.6932100    -1.2084810     1.4940670
  C       -1.3340060     1.3908220    -0.1017950
  C       -2.6674560     1.1993540     0.3271550
  C       -2.9832884    -0.1472825     0.4364388
  H        2.0840190     2.0584320     0.7119160
  H        2.6656140     1.1849010     2.1428720
  H        0.9115380     1.4151000     1.9054530
  H        1.7293810    -2.1000160     0.8695980
  H        0.7471110    -1.1811200     2.0534300
  H        2.5234680    -1.2398400     2.2034110
  H       -0.8634200     2.3493520    -0.2940320
  H       -3.3646430     2.0039100     0.5365790
  H       -3.9505650    -0.5636820     0.7303990
units angstrom
no_reorient  #important for SAPT in psi4, default
symmetry c1  #important for SAPT in psi4, default
}

set PROPERTIES_ORIGIN ["COM"]
properties('MP2/aug-cc-pvtz', properties = ['dipole'])
--------------------------------------------------------------------------

    Molecular point group: c1
  Charge       = 0
  Multiplicity = 1
  Basis Set: AUG-CC-PVTZ
    Blend: AUG-CC-PVTZ
  Basis Set: (AUG-CC-PVTZ AUX)
    Blend: AUG-CC-PVTZ-JKFIT

    Orbital Energies [Eh]
    ---------------------

    Doubly Occupied:

       1A    -92.207979     2A    -92.017126     3A    -20.549580
       4A    -20.549061     5A    -15.606230     6A    -11.297594
       7A    -11.295767     8A    -11.276839     9A    -11.271924
      10A    -11.270703    11A    -11.264210    12A     -9.172127
      13A     -9.016958    14A     -6.857245    15A     -6.856974
      16A     -6.856613    17A     -6.697811    18A     -6.697279
      19A     -6.696504    20A     -1.455550    21A     -1.339731
      22A     -1.252618    23A     -1.202913    24A     -1.030162
      25A     -1.019723    26A     -0.981637    27A     -0.945409
      28A     -0.852348    29A     -0.785321    30A     -0.753786
      31A     -0.727431    32A     -0.703707    33A     -0.661844
      34A     -0.658560    35A     -0.627325    36A     -0.615999
      37A     -0.584319    38A     -0.579276    39A     -0.572304
      40A     -0.565639    41A     -0.550757    42A     -0.541790
      43A     -0.511421    44A     -0.501976    45A     -0.497329
      46A     -0.472967    47A     -0.467737    48A     -0.417367
      49A     -0.372894    50A     -0.352908

  @DF-RHF Final Energy: -1231.78862067107002

   => Energetics <=

    Nuclear Repulsion Energy =            892.8826709723280146
    One-Electron Energy =               -3469.2200409492461404
    Two-Electron Energy =                1344.5487493058481050
    Total Energy =                      -1231.7886206710700208
  Basis Set: (AUG-CC-PVTZ AUX)
    Blend: AUG-CC-PVTZ-RI
    Molecular point group: c1

    Geometry (in Angstrom), charge = 0, multiplicity = 1:

       Center              X                  Y                   Z               Mass
    ------------   -----------------  -----------------  -----------------  -----------------
         S            1.017231121497     0.013498117648    -0.717075948272    31.972071174400
         S           -1.684221878503    -1.144830882352     0.068142051728    31.972071174400
         O            1.145824121497    -1.320920882352    -1.300207948272    15.994914619570
         O            1.397683121497     1.234896117648    -1.421769948272    15.994914619570
         N            1.890014121497    -0.002402882352     0.708980051728    14.003074004430
         C           -0.674251878503     0.208337117648    -0.259653948272    12.000000000000
         C            1.882136121497     1.259384117648     1.452708051728    12.000000000000
         C            1.705087121497    -1.187501882352     1.550594051728    12.000000000000
         C           -1.322128878503     1.411801117648    -0.045267948272    12.000000000000
         C           -2.655578878503     1.220333117648     0.383682051728    12.000000000000
         C           -2.971411278503    -0.126303382352     0.492965851728    12.000000000000
         H            2.095896121497     2.079411117648     0.768443051728     1.007825032230
         H            2.677491121497     1.205880117648     2.199399051728     1.007825032230
         H            0.923415121497     1.436079117648     1.961980051728     1.007825032230
         H            1.741258121497    -2.079036882352     0.926125051728     1.007825032230
         H            0.758988121497    -1.160140882352     2.109957051728     1.007825032230
         H            2.535345121497    -1.218860882352     2.259938051728     1.007825032230
         H           -0.851542878503     2.370331117648    -0.237504948272     1.007825032230
         H           -3.352765878503     2.024889117648     0.593106051728     1.007825032230
         H           -3.938687878503    -0.542702882352     0.786926051728     1.007825032230

  Basis Set: AUG-CC-PVTZ
    Blend: AUG-CC-PVTZ
  Basis Set: (AUG-CC-PVTZ AUX)
    Blend: AUG-CC-PVTZ-JKFIT
	 Reference Energy          =   -1231.7886206710700208 [Eh]
	 Singles Energy            =      -0.0000000000000000 [Eh]
	 Same-Spin Energy          =      -0.5864052719516464 [Eh]
	 Opposite-Spin Energy      =      -1.7440863438089051 [Eh]
	 Correlation Energy        =      -2.3304916157605513 [Eh]
	 Total Energy              =   -1234.1191122868306138 [Eh]

	 ================> DF-SCS-MP2 Energies <==================
	-----------------------------------------------------------
	 SCS Same-Spin Scale       =       0.3333333333333333 [-]
	 SCS Opposite-Spin Scale   =       1.2000000000000000 [-]
	 SCS Same-Spin Energy      =      -0.1954684239838821 [Eh]
	 SCS Opposite-Spin Energy  =      -2.0929036125706859 [Eh]
	 SCS Correlation Energy    =      -2.2883720365545681 [Eh]
	 SCS Total Energy          =   -1234.0769927076246404 [Eh]
	-----------------------------------------------------------

  Dipole Moment: [D]
     X:    -2.5734      Y:     0.7279      Z:     4.7666     Total:     5.4656

*** Psi4 exiting successfully. Buy a developer a beer!
