                               Psi4 1.3.2 release

  ==> Input File <==

--------------------------------------------------------------------------
#psi4
#
memory 32 gb

molecule  {
0 1
  S        0.9982220     0.0203752    -0.7686288
  S       -1.6960990    -1.1658100     0.0116150
  O        1.1339470    -1.3419000    -1.3567350
  O        1.3858060     1.2139170    -1.4782970
  N        1.8781370    -0.0233820     0.6524530
  C       -0.6861290     0.1873580    -0.3161810
  C        1.8702590     1.2384050     1.3961810
  C        1.6932100    -1.2084810     1.4940670
  C       -1.3340060     1.3908220    -0.1017950
  C       -2.6674560     1.1993540     0.3271550
  C       -2.9984720    -0.1352680     0.4414500
  H        2.0840190     2.0584320     0.7119160
  H        2.6656140     1.1849010     2.1428720
  H        0.9115380     1.4151000     1.9054530
  H        1.7293810    -2.1000160     0.8695980
  H        0.7471110    -1.1811200     2.0534300
  H        2.5234680    -1.2398400     2.2034110
  H       -0.8634200     2.3493520    -0.2940320
  H       -3.3646430     2.0039100     0.5365790
  H       -3.9505650    -0.5636820     0.7303990
units angstrom
no_reorient  #important for SAPT in psi4, default
symmetry c1  #important for SAPT in psi4, default
}

set PROPERTIES_ORIGIN ["COM"]
properties('MP2/aug-cc-pvtz', properties = ['dipole'])
--------------------------------------------------------------------------

    Molecular point group: c1
  Charge       = 0
  Multiplicity = 1
  Basis Set: AUG-CC-PVTZ
    Blend: AUG-CC-PVTZ
  Basis Set: (AUG-CC-PVTZ AUX)
    Blend: AUG-CC-PVTZ-JKFIT

    Orbital Energies [Eh]
    ---------------------

    Doubly Occupied:

       1A    -92.207343     2A    -92.017357     3A    -20.553518
       4A    -20.542539     5A    -15.606504     6A    -11.299124
       7A    -11.296844     8A    -11.278545     9A    -11.272226
      10A    -11.270280    11A    -11.265035    12A     -9.171750
      13A     -9.016755    14A     -6.856839    15A     -6.856629
      16A     -6.856140    17A     -6.697576    18A     -6.697056
      19A     -6.696286    20A     -1.455270    21A     -1.333896
      22A     -1.252260    23A     -1.202562    24A     -1.034245
      25A     -1.018279    26A     -0.981678    27A     -0.946192
      28A     -0.855360    29A     -0.787604    30A     -0.753894
      31A     -0.728139    32A     -0.703068    33A     -0.661185
      34A     -0.658998    35A     -0.628127    36A     -0.615335
      37A     -0.588984    38A     -0.579165    39A     -0.572307
      40A     -0.565214    41A     -0.550510    42A     -0.541846
      43A     -0.508276    44A     -0.501716    45A     -0.495463
      46A     -0.469366    47A     -0.466457    48A     -0.418140
      49A     -0.373221    50A     -0.355271

  @DF-RHF Final Energy: -1231.78731514848278

   => Energetics <=

    Nuclear Repulsion Energy =            892.6210901684806913
    One-Electron Energy =               -3468.6960607187916139
    Two-Electron Energy =                1344.2876554018280331
    Total Energy =                      -1231.7873151484827758
  Basis Set: (AUG-CC-PVTZ AUX)
    Blend: AUG-CC-PVTZ-RI
    Molecular point group: c1

    Geometry (in Angstrom), charge = 0, multiplicity = 1:

       Center              X                  Y                   Z               Mass
    ------------   -----------------  -----------------  -----------------  -----------------
         S            1.012246828127     0.035936757779    -0.713249189655    31.972071174400
         S           -1.682074171873    -1.150248442221     0.066994610345    31.972071174400
         O            1.147971828127    -1.326338442221    -1.301355389655    15.994914619570
         O            1.399830828127     1.229478557779    -1.422917389655    15.994914619570
         N            1.892161828127    -0.007820442221     0.707832610345    14.003074004430
         C           -0.672104171873     0.202919557779    -0.260801389655    12.000000000000
         C            1.884283828127     1.253966557779     1.451560610345    12.000000000000
         C            1.707234828127    -1.192919442221     1.549446610345    12.000000000000
         C           -1.319981171873     1.406383557779    -0.046415389655    12.000000000000
         C           -2.653431171873     1.214915557779     0.382534610345    12.000000000000
         C           -2.984447171873    -0.119706442221     0.496829610345    12.000000000000
         H            2.098043828127     2.073993557779     0.767295610345     1.007825032230
         H            2.679638828127     1.200462557779     2.198251610345     1.007825032230
         H            0.925562828127     1.430661557779     1.960832610345     1.007825032230
         H            1.743405828127    -2.084454442221     0.924977610345     1.007825032230
         H            0.761135828127    -1.165558442221     2.108809610345     1.007825032230
         H            2.537492828127    -1.224278442221     2.258790610345     1.007825032230
         H           -0.849395171873     2.364913557779    -0.238652389655     1.007825032230
         H           -3.350618171873     2.019471557779     0.591958610345     1.007825032230
         H           -3.936540171873    -0.548120442221     0.785778610345     1.007825032230

  Basis Set: AUG-CC-PVTZ
    Blend: AUG-CC-PVTZ
  Basis Set: (AUG-CC-PVTZ AUX)
    Blend: AUG-CC-PVTZ-JKFIT
	 Reference Energy          =   -1231.7873151484827758 [Eh]
	 Singles Energy            =      -0.0000000000000000 [Eh]
	 Same-Spin Energy          =      -0.5862633006643074 [Eh]
	 Opposite-Spin Energy      =      -1.7442531119673093 [Eh]
	 Correlation Energy        =      -2.3305164126316167 [Eh]
	 Total Energy              =   -1234.1178315611143717 [Eh]

	 ================> DF-SCS-MP2 Energies <==================
	-----------------------------------------------------------
	 SCS Same-Spin Scale       =       0.3333333333333333 [-]
	 SCS Opposite-Spin Scale   =       1.2000000000000000 [-]
	 SCS Same-Spin Energy      =      -0.1954211002214358 [Eh]
	 SCS Opposite-Spin Energy  =      -2.0931037343607710 [Eh]
	 SCS Correlation Energy    =      -2.2885248345822067 [Eh]
	 SCS Total Energy          =   -1234.0758399830649523 [Eh]
	-----------------------------------------------------------

  Dipole Moment: [D]
     X:    -2.6686      Y:     0.9637      Z:     4.8218     Total:     5.5946

*** Psi4 exiting successfully. Buy a developer a beer!
