                               Psi4 1.3.2 release

  ==> Input File <==

--------------------------------------------------------------------------
#psi4
#
memory 32 gb

molecule  {
0 1
  S        1.0053540    -0.0074810    -0.7736030
  S       -1.6960990    -1.1658100     0.0116150
  O        1.1339470    -1.3419000    -1.3567350
  O        1.3858060     1.2139170    -1.4782970
  N        1.9027194    -0.0266583     0.6370728
  C       -0.6861290     0.1873580    -0.3161810
  C        1.8702590     1.2384050     1.3961810
  C        1.6932100    -1.2084810     1.4940670
  C       -1.3340060     1.3908220    -0.1017950
  C       -2.6674560     1.1993540     0.3271550
  C       -2.9984720    -0.1352680     0.4414500
  H        2.0840190     2.0584320     0.7119160
  H        2.6656140     1.1849010     2.1428720
  H        0.9115380     1.4151000     1.9054530
  H        1.7293810    -2.1000160     0.8695980
  H        0.7471110    -1.1811200     2.0534300
  H        2.5234680    -1.2398400     2.2034110
  H       -0.8634200     2.3493520    -0.2940320
  H       -3.3646430     2.0039100     0.5365790
  H       -3.9505650    -0.5636820     0.7303990
units angstrom
no_reorient  #important for SAPT in psi4, default
symmetry c1  #important for SAPT in psi4, default
}

set PROPERTIES_ORIGIN ["COM"]
properties('MP2/aug-cc-pvtz', properties = ['dipole'])
--------------------------------------------------------------------------

    Molecular point group: c1
  Charge       = 0
  Multiplicity = 1
  Basis Set: AUG-CC-PVTZ
    Blend: AUG-CC-PVTZ
  Basis Set: (AUG-CC-PVTZ AUX)
    Blend: AUG-CC-PVTZ-JKFIT

    Orbital Energies [Eh]
    ---------------------

    Doubly Occupied:

       1A    -92.207285     2A    -92.016552     3A    -20.548619
       4A    -20.548210     5A    -15.608452     6A    -11.299258
       7A    -11.296266     8A    -11.277800     9A    -11.272646
      10A    -11.271131    11A    -11.264701    12A     -9.171599
      13A     -9.016055    14A     -6.856692    15A     -6.856454
      16A     -6.856044    17A     -6.696889    18A     -6.696362
      19A     -6.695602    20A     -1.455097    21A     -1.339086
      22A     -1.249487    23A     -1.201776    24A     -1.031554
      25A     -1.017697    26A     -0.979536    27A     -0.945707
      28A     -0.854726    29A     -0.787019    30A     -0.753277
      31A     -0.727362    32A     -0.702491    33A     -0.660826
      34A     -0.657175    35A     -0.627577    36A     -0.615435
      37A     -0.588806    38A     -0.579076    39A     -0.572289
      40A     -0.564454    41A     -0.550208    42A     -0.538079
      43A     -0.509254    44A     -0.500521    45A     -0.496744
      46A     -0.472159    47A     -0.467737    48A     -0.420769
      49A     -0.372798    50A     -0.355016

  @DF-RHF Final Energy: -1231.78855197520284

   => Energetics <=

    Nuclear Repulsion Energy =            892.0508286629102486
    One-Electron Energy =               -3467.5780518099813889
    Two-Electron Energy =                1343.7386711718684182
    Total Energy =                      -1231.7885519752028358
  Basis Set: (AUG-CC-PVTZ AUX)
    Blend: AUG-CC-PVTZ-RI
    Molecular point group: c1

    Geometry (in Angstrom), charge = 0, multiplicity = 1:

       Center              X                  Y                   Z               Mass
    ------------   -----------------  -----------------  -----------------  -----------------
         S            1.016382851188     0.012983500454    -0.716263227817    31.972071174400
         S           -1.685070148812    -1.145345499546     0.068954772183    31.972071174400
         O            1.144975851188    -1.321435499546    -1.299395227817    15.994914619570
         O            1.396834851188     1.234381500454    -1.420957227817    15.994914619570
         N            1.913748251188    -0.006193799546     0.694412572183    14.003074004430
         C           -0.675100148812     0.207822500454    -0.258841227817    12.000000000000
         C            1.881287851188     1.258869500454     1.453520772183    12.000000000000
         C            1.704238851188    -1.188016499546     1.551406772183    12.000000000000
         C           -1.322977148812     1.411286500454    -0.044455227817    12.000000000000
         C           -2.656427148812     1.219818500454     0.384494772183    12.000000000000
         C           -2.987443148812    -0.114803499546     0.498789772183    12.000000000000
         H            2.095047851188     2.078896500454     0.769255772183     1.007825032230
         H            2.676642851188     1.205365500454     2.200211772183     1.007825032230
         H            0.922566851188     1.435564500454     1.962792772183     1.007825032230
         H            1.740409851188    -2.079551499546     0.926937772183     1.007825032230
         H            0.758139851188    -1.160655499546     2.110769772183     1.007825032230
         H            2.534496851188    -1.219375499546     2.260750772183     1.007825032230
         H           -0.852391148812     2.369816500454    -0.236692227817     1.007825032230
         H           -3.353614148812     2.024374500454     0.593918772183     1.007825032230
         H           -3.939536148812    -0.543217499546     0.787738772183     1.007825032230

  Basis Set: AUG-CC-PVTZ
    Blend: AUG-CC-PVTZ
  Basis Set: (AUG-CC-PVTZ AUX)
    Blend: AUG-CC-PVTZ-JKFIT
	 Reference Energy          =   -1231.7885519752028358 [Eh]
	 Singles Energy            =      -0.0000000000000000 [Eh]
	 Same-Spin Energy          =      -0.5861147860754219 [Eh]
	 Opposite-Spin Energy      =      -1.7442639891105316 [Eh]
	 Correlation Energy        =      -2.3303787751859533 [Eh]
	 Total Energy              =   -1234.1189307503886994 [Eh]

	 ================> DF-SCS-MP2 Energies <==================
	-----------------------------------------------------------
	 SCS Same-Spin Scale       =       0.3333333333333333 [-]
	 SCS Opposite-Spin Scale   =       1.2000000000000000 [-]
	 SCS Same-Spin Energy      =      -0.1953715953584740 [Eh]
	 SCS Opposite-Spin Energy  =      -2.0931167869326379 [Eh]
	 SCS Correlation Energy    =      -2.2884883822911117 [Eh]
	 SCS Total Energy          =   -1234.0770403574938427 [Eh]
	-----------------------------------------------------------

  Dipole Moment: [D]
     X:    -2.6588      Y:     0.7607      Z:     4.8216     Total:     5.5584

*** Psi4 exiting successfully. Buy a developer a beer!
