                               Psi4 1.4a3.dev225

  ==> Input File <==

--------------------------------------------------------------------------
#psi4
#
memory 32 gb

molecule  {
0 1
  S        1.0053540    -0.0074810    -0.7736030
  S       -1.6960990    -1.1658100     0.0116150
  O        1.1339470    -1.3419000    -1.3567350
  O        1.3858060     1.2139170    -1.4782970
  N        1.8520373    -0.0229065     0.6098082
  C       -0.6861290     0.1873580    -0.3161810
  C        1.8702590     1.2384050     1.3961810
  C        1.6932100    -1.2084810     1.4940670
  C       -1.3340060     1.3908220    -0.1017950
  C       -2.6674560     1.1993540     0.3271550
  C       -2.9984720    -0.1352680     0.4414500
  H        2.0840190     2.0584320     0.7119160
  H        2.6656140     1.1849010     2.1428720
  H        0.9115380     1.4151000     1.9054530
  H        1.7293810    -2.1000160     0.8695980
  H        0.7471110    -1.1811200     2.0534300
  H        2.5234680    -1.2398400     2.2034110
  H       -0.8634200     2.3493520    -0.2940320
  H       -3.3646430     2.0039100     0.5365790
  H       -3.9505650    -0.5636820     0.7303990
units angstrom
no_reorient  #important for SAPT in psi4, default
symmetry c1  #important for SAPT in psi4, default
}

set PROPERTIES_ORIGIN ["COM"]
properties('MP2/aug-cc-pvtz', properties = ['dipole'])
--------------------------------------------------------------------------

    Molecular point group: c1
  Charge       = 0
  Multiplicity = 1
  Basis Set: AUG-CC-PVTZ
    Blend: AUG-CC-PVTZ
  Basis Set: (AUG-CC-PVTZ AUX)
    Blend: AUG-CC-PVTZ-JKFIT

    Orbital Energies [Eh]
    ---------------------

    Doubly Occupied:

       1A    -92.206447     2A    -92.014725     3A    -20.546937
       4A    -20.546448     5A    -15.606845     6A    -11.296717
       7A    -11.293957     8A    -11.276183     9A    -11.275205
      10A    -11.274921    11A    -11.263097    12A     -9.170818
      13A     -9.014253    14A     -6.856134    15A     -6.855690
      16A     -6.855341    17A     -6.695096    18A     -6.694566
      19A     -6.693808    20A     -1.457135    21A     -1.338116
      22A     -1.253209    23A     -1.199786    24A     -1.030150
      25A     -1.015840    26A     -0.979079    27A     -0.955572
      28A     -0.854406    29A     -0.785153    30A     -0.752120
      31A     -0.726870    32A     -0.702123    33A     -0.663879
      34A     -0.658639    35A     -0.626206    36A     -0.613581
      37A     -0.587088    38A     -0.582426    39A     -0.573714
      40A     -0.562987    41A     -0.549355    42A     -0.535906
      43A     -0.509387    44A     -0.501579    45A     -0.495472
      46A     -0.471071    47A     -0.468884    48A     -0.423893
      49A     -0.371275    50A     -0.352341

  @DF-RHF Final Energy: -1231.78877301203465

   => Energetics <=

    Nuclear Repulsion Energy =            893.7744264732276633
    One-Electron Energy =               -3471.0575399228860078
    Two-Electron Energy =                1345.4943404376235776
    Total Energy =                      -1231.7887730120346532
  Basis Set: (AUG-CC-PVTZ AUX)
    Blend: AUG-CC-PVTZ-RI
    Molecular point group: c1

    Geometry (in Angstrom), charge = 0, multiplicity = 1:

       Center              X                  Y                   Z               Mass
    ------------   -----------------  -----------------  -----------------  -----------------
         S            1.020098439870     0.012708449783    -0.714264414840    31.972071174400
         S           -1.681354560130    -1.145620550217     0.070953585160    31.972071174400
         O            1.148691439870    -1.321710550217    -1.297396414840    15.994914619570
         O            1.400550439870     1.234106449783    -1.418958414840    15.994914619570
         N            1.866781739870    -0.002717050217     0.669146785160    14.003074004430
         C           -0.671384560130     0.207547449783    -0.256842414840    12.000000000000
         C            1.885003439870     1.258594449783     1.455519585160    12.000000000000
         C            1.707954439870    -1.188291550217     1.553405585160    12.000000000000
         C           -1.319261560130     1.411011449783    -0.042456414840    12.000000000000
         C           -2.652711560130     1.219543449783     0.386493585160    12.000000000000
         C           -2.983727560130    -0.115078550217     0.500788585160    12.000000000000
         H            2.098763439870     2.078621449783     0.771254585160     1.007825032230
         H            2.680358439870     1.205090449783     2.202210585160     1.007825032230
         H            0.926282439870     1.435289449783     1.964791585160     1.007825032230
         H            1.744125439870    -2.079826550217     0.928936585160     1.007825032230
         H            0.761855439870    -1.160930550217     2.112768585160     1.007825032230
         H            2.538212439870    -1.219650550217     2.262749585160     1.007825032230
         H           -0.848675560130     2.369541449783    -0.234693414840     1.007825032230
         H           -3.349898560130     2.024099449783     0.595917585160     1.007825032230
         H           -3.935820560130    -0.543492550217     0.789737585160     1.007825032230

  Basis Set: AUG-CC-PVTZ
    Blend: AUG-CC-PVTZ
  Basis Set: (AUG-CC-PVTZ AUX)
    Blend: AUG-CC-PVTZ-JKFIT
	 Reference Energy          =   -1231.7887730120346532 [Eh]
	 Singles Energy            =      -0.0000000000000000 [Eh]
	 Same-Spin Energy          =      -0.5857434377742756 [Eh]
	 Opposite-Spin Energy      =      -1.7432772062002613 [Eh]
	 Correlation Energy        =      -2.3290206439745367 [Eh]
	 Total Energy              =   -1234.1177936560090984 [Eh]

	 ================> DF-SCS-MP2 Energies <==================
	-----------------------------------------------------------
	 SCS Same-Spin Scale       =       0.3333333333333333 [-]
	 SCS Opposite-Spin Scale   =       1.2000000000000000 [-]
	 SCS Same-Spin Energy      =      -0.1952478125914252 [Eh]
	 SCS Opposite-Spin Energy  =      -2.0919326474403133 [Eh]
	 SCS Correlation Energy    =      -2.2871804600317382 [Eh]
	 SCS Total Energy          =   -1234.0759534720664305 [Eh]
	-----------------------------------------------------------

  Dipole Moment: [D]
     X:    -2.3863      Y:     0.7466      Z:     4.9934     Total:     5.5844

*** Psi4 exiting successfully. Buy a developer a beer!
