                               Psi4 1.3.2 release

  ==> Input File <==

--------------------------------------------------------------------------
#psi4
#
memory 32 gb

molecule  {
0 1
  S        1.0103039     0.0537502    -0.7772409
  S       -1.6960990    -1.1658100     0.0116150
  O        1.1339470    -1.3419000    -1.3567350
  O        1.3858060     1.2139170    -1.4782970
  N        1.8781370    -0.0233820     0.6524530
  C       -0.6861290     0.1873580    -0.3161810
  C        1.8702590     1.2384050     1.3961810
  C        1.6932100    -1.2084810     1.4940670
  C       -1.3340060     1.3908220    -0.1017950
  C       -2.6674560     1.1993540     0.3271550
  C       -2.9984720    -0.1352680     0.4414500
  H        2.0840190     2.0584320     0.7119160
  H        2.6656140     1.1849010     2.1428720
  H        0.9115380     1.4151000     1.9054530
  H        1.7293810    -2.1000160     0.8695980
  H        0.7471110    -1.1811200     2.0534300
  H        2.5234680    -1.2398400     2.2034110
  H       -0.8634200     2.3493520    -0.2940320
  H       -3.3646430     2.0039100     0.5365790
  H       -3.9505650    -0.5636820     0.7303990
units angstrom
no_reorient  #important for SAPT in psi4, default
symmetry c1  #important for SAPT in psi4, default
}

set PROPERTIES_ORIGIN ["COM"]
properties('MP2/aug-cc-pvtz', properties = ['dipole'])
--------------------------------------------------------------------------

    Molecular point group: c1
  Charge       = 0
  Multiplicity = 1
  Basis Set: AUG-CC-PVTZ
    Blend: AUG-CC-PVTZ
  Basis Set: (AUG-CC-PVTZ AUX)
    Blend: AUG-CC-PVTZ-JKFIT

    Orbital Energies [Eh]
    ---------------------

    Doubly Occupied:

       1A    -92.206858     2A    -92.016460     3A    -20.562393
       4A    -20.536562     5A    -15.606132     6A    -11.298584
       7A    -11.295392     8A    -11.276873     9A    -11.272507
      10A    -11.269860    11A    -11.263938    12A     -9.171736
      13A     -9.015757    14A     -6.856827    15A     -6.856665
      16A     -6.856033    17A     -6.696567    18A     -6.696061
      19A     -6.695284    20A     -1.469989    21A     -1.329956
      22A     -1.250575    23A     -1.201094    24A     -1.031833
      25A     -1.016982    26A     -0.981535    27A     -0.945523
      28A     -0.853410    29A     -0.786253    30A     -0.754047
      31A     -0.728027    32A     -0.706490    33A     -0.662793
      34A     -0.658986    35A     -0.630148    36A     -0.617095
      37A     -0.587888    38A     -0.581026    39A     -0.572306
      40A     -0.565309    41A     -0.549804    42A     -0.542513
      43A     -0.506568    44A     -0.506155    45A     -0.499291
      46A     -0.467029    47A     -0.460829    48A     -0.416851
      49A     -0.372185    50A     -0.353996

  @DF-RHF Final Energy: -1231.78240063737553

   => Energetics <=

    Nuclear Repulsion Energy =            892.3137151919466987
    One-Electron Energy =               -3468.0782858188604223
    Two-Electron Energy =                1343.9821699895380789
    Total Energy =                      -1231.7824006373755310
  Basis Set: (AUG-CC-PVTZ AUX)
    Blend: AUG-CC-PVTZ-RI
    Molecular point group: c1

    Geometry (in Angstrom), charge = 0, multiplicity = 1:

       Center              X                  Y                   Z               Mass
    ------------   -----------------  -----------------  -----------------  -----------------
         S            1.022306381227     0.063725233490    -0.720419740417    31.972071174400
         S           -1.684096518773    -1.155834966510     0.068436159583    31.972071174400
         O            1.145949481227    -1.331924966510    -1.299913840417    15.994914619570
         O            1.397808481227     1.223892033490    -1.421475840417    15.994914619570
         N            1.890139481227    -0.013406966510     0.709274159583    14.003074004430
         C           -0.674126518773     0.197333033490    -0.259359840417    12.000000000000
         C            1.882261481227     1.248380033490     1.453002159583    12.000000000000
         C            1.705212481227    -1.198505966510     1.550888159583    12.000000000000
         C           -1.322003518773     1.400797033490    -0.044973840417    12.000000000000
         C           -2.655453518773     1.209329033490     0.383976159583    12.000000000000
         C           -2.986469518773    -0.125292966510     0.498271159583    12.000000000000
         H            2.096021481227     2.068407033490     0.768737159583     1.007825032230
         H            2.677616481227     1.194876033490     2.199693159583     1.007825032230
         H            0.923540481227     1.425075033490     1.962274159583     1.007825032230
         H            1.741383481227    -2.090040966510     0.926419159583     1.007825032230
         H            0.759113481227    -1.171144966510     2.110251159583     1.007825032230
         H            2.535470481227    -1.229864966510     2.260232159583     1.007825032230
         H           -0.851417518773     2.359327033490    -0.237210840417     1.007825032230
         H           -3.352640518773     2.013885033490     0.593400159583     1.007825032230
         H           -3.938562518773    -0.553706966510     0.787220159583     1.007825032230

  Basis Set: AUG-CC-PVTZ
    Blend: AUG-CC-PVTZ
  Basis Set: (AUG-CC-PVTZ AUX)
    Blend: AUG-CC-PVTZ-JKFIT
	 Reference Energy          =   -1231.7824006373755310 [Eh]
	 Singles Energy            =      -0.0000000000000000 [Eh]
	 Same-Spin Energy          =      -0.5858904863104912 [Eh]
	 Opposite-Spin Energy      =      -1.7438205559827709 [Eh]
	 Correlation Energy        =      -2.3297110422932619 [Eh]
	 Total Energy              =   -1234.1121116796687147 [Eh]

	 ================> DF-SCS-MP2 Energies <==================
	-----------------------------------------------------------
	 SCS Same-Spin Scale       =       0.3333333333333333 [-]
	 SCS Opposite-Spin Scale   =       1.2000000000000000 [-]
	 SCS Same-Spin Energy      =      -0.1952968287701637 [Eh]
	 SCS Opposite-Spin Energy  =      -2.0925846671793251 [Eh]
	 SCS Correlation Energy    =      -2.2878814959494891 [Eh]
	 SCS Total Energy          =   -1234.0702821333250085 [Eh]
	-----------------------------------------------------------

  Dipole Moment: [D]
     X:    -2.5410      Y:     1.2210      Z:     4.7432     Total:     5.5177

*** Psi4 exiting successfully. Buy a developer a beer!
