                               Psi4 1.4a3.dev225

  ==> Input File <==

--------------------------------------------------------------------------
#psi4
#
memory 32 gb

molecule  {
0 1
  S        1.0053540    -0.0074810    -0.7736030
  S       -1.6960990    -1.1658100     0.0116150
  O        1.1339470    -1.3419000    -1.3567350
  O        1.3858060     1.2139170    -1.4782970
  N        1.8781370    -0.0233820     0.6524530
  C       -0.7154878     0.1480227    -0.3066523
  C        1.8702590     1.2384050     1.3961810
  C        1.6932100    -1.2084810     1.4940670
  C       -1.3340060     1.3908220    -0.1017950
  C       -2.6674560     1.1993540     0.3271550
  C       -2.9984720    -0.1352680     0.4414500
  H        2.0840190     2.0584320     0.7119160
  H        2.6656140     1.1849010     2.1428720
  H        0.9115380     1.4151000     1.9054530
  H        1.7293810    -2.1000160     0.8695980
  H        0.7471110    -1.1811200     2.0534300
  H        2.5234680    -1.2398400     2.2034110
  H       -0.8634200     2.3493520    -0.2940320
  H       -3.3646430     2.0039100     0.5365790
  H       -3.9505650    -0.5636820     0.7303990
units angstrom
no_reorient  #important for SAPT in psi4, default
symmetry c1  #important for SAPT in psi4, default
}

set PROPERTIES_ORIGIN ["COM"]
properties('MP2/aug-cc-pvtz', properties = ['dipole'])
--------------------------------------------------------------------------

    Molecular point group: c1
  Charge       = 0
  Multiplicity = 1
  Basis Set: AUG-CC-PVTZ
    Blend: AUG-CC-PVTZ
  Basis Set: (AUG-CC-PVTZ AUX)
    Blend: AUG-CC-PVTZ-JKFIT

    Orbital Energies [Eh]
    ---------------------

    Doubly Occupied:

       1A    -92.208516     2A    -92.017297     3A    -20.551500
       4A    -20.548355     5A    -15.606917     6A    -11.298974
       7A    -11.292363     8A    -11.276048     9A    -11.272123
      10A    -11.271125    11A    -11.263792    12A     -9.172440
      13A     -9.017706    14A     -6.857543    15A     -6.857234
      16A     -6.856906    17A     -6.698638    18A     -6.698023
      19A     -6.697247    20A     -1.455220    21A     -1.340009
      22A     -1.252951    23A     -1.205036    24A     -1.029861
      25A     -1.017313    26A     -0.981953    27A     -0.945597
      28A     -0.849311    29A     -0.785387    30A     -0.753764
      31A     -0.727155    32A     -0.703813    33A     -0.662001
      34A     -0.658986    35A     -0.625856    36A     -0.616063
      37A     -0.586473    38A     -0.579358    39A     -0.572823
      40A     -0.566994    41A     -0.552307    42A     -0.542164
      43A     -0.509401    44A     -0.503701    45A     -0.498134
      46A     -0.473464    47A     -0.466628    48A     -0.416433
      49A     -0.373068    50A     -0.350672

  @DF-RHF Final Energy: -1231.78578402021958

   => Energetics <=

    Nuclear Repulsion Energy =            892.5548054221544589
    One-Electron Energy =               -3468.5518933670919068
    Two-Electron Energy =                1344.2113039247178676
    Total Energy =                      -1231.7857840202195803
  Basis Set: (AUG-CC-PVTZ AUX)
    Blend: AUG-CC-PVTZ-RI
    Molecular point group: c1

    Geometry (in Angstrom), charge = 0, multiplicity = 1:

       Center              X                  Y                   Z               Mass
    ------------   -----------------  -----------------  -----------------  -----------------
         S            1.020029487433     0.015214540563    -0.717989414113    31.972071174400
         S           -1.681423512567    -1.143114459437     0.067228585887    31.972071174400
         O            1.148622487433    -1.319204459437    -1.301121414113    15.994914619570
         O            1.400481487433     1.236612540563    -1.422683414113    15.994914619570
         N            1.892812487433    -0.000686459437     0.708066585887    14.003074004430
         C           -0.700812312567     0.170718240563    -0.251038714113    12.000000000000
         C            1.884934487433     1.261100540563     1.451794585887    12.000000000000
         C            1.707885487433    -1.185785459437     1.549680585887    12.000000000000
         C           -1.319330512567     1.413517540563    -0.046181414113    12.000000000000
         C           -2.652780512567     1.222049540563     0.382768585887    12.000000000000
         C           -2.983796512567    -0.112572459437     0.497063585887    12.000000000000
         H            2.098694487433     2.081127540563     0.767529585887     1.007825032230
         H            2.680289487433     1.207596540563     2.198485585887     1.007825032230
         H            0.926213487433     1.437795540563     1.961066585887     1.007825032230
         H            1.744056487433    -2.077320459437     0.925211585887     1.007825032230
         H            0.761786487433    -1.158424459437     2.109043585887     1.007825032230
         H            2.538143487433    -1.217144459437     2.259024585887     1.007825032230
         H           -0.848744512567     2.372047540563    -0.238418414113     1.007825032230
         H           -3.349967512567     2.026605540563     0.592192585887     1.007825032230
         H           -3.935889512567    -0.540986459437     0.786012585887     1.007825032230

  Basis Set: AUG-CC-PVTZ
    Blend: AUG-CC-PVTZ
  Basis Set: (AUG-CC-PVTZ AUX)
    Blend: AUG-CC-PVTZ-JKFIT
	 Reference Energy          =   -1231.7857840202195803 [Eh]
	 Singles Energy            =      -0.0000000000000000 [Eh]
	 Same-Spin Energy          =      -0.5868951106779525 [Eh]
	 Opposite-Spin Energy      =      -1.7446118853597086 [Eh]
	 Correlation Energy        =      -2.3315069960376613 [Eh]
	 Total Energy              =   -1234.1172910162572407 [Eh]

	 ================> DF-SCS-MP2 Energies <==================
	-----------------------------------------------------------
	 SCS Same-Spin Scale       =       0.3333333333333333 [-]
	 SCS Opposite-Spin Scale   =       1.2000000000000000 [-]
	 SCS Same-Spin Energy      =      -0.1956317035593175 [Eh]
	 SCS Opposite-Spin Energy  =      -2.0935342624316502 [Eh]
	 SCS Correlation Energy    =      -2.2891659659909678 [Eh]
	 SCS Total Energy          =   -1234.0749499862106404 [Eh]
	-----------------------------------------------------------

  Dipole Moment: [D]
     X:    -2.5179      Y:     0.7110      Z:     4.7547     Total:     5.4271

*** Psi4 exiting successfully. Buy a developer a beer!
