                               Psi4 1.3.2 release

  ==> Input File <==

--------------------------------------------------------------------------
#psi4
#
memory 32 gb

molecule  {
0 1
  S        0.9892803    -0.1291570    -0.7646604
  S       -1.6960990    -1.1658100     0.0116150
  O        1.1339470    -1.3419000    -1.3567350
  O        1.3858060     1.2139170    -1.4782970
  N        1.8781370    -0.0233820     0.6524530
  C       -0.6861290     0.1873580    -0.3161810
  C        1.8702590     1.2384050     1.3961810
  C        1.6932100    -1.2084810     1.4940670
  C       -1.3340060     1.3908220    -0.1017950
  C       -2.6674560     1.1993540     0.3271550
  C       -2.9984720    -0.1352680     0.4414500
  H        2.0840190     2.0584320     0.7119160
  H        2.6656140     1.1849010     2.1428720
  H        0.9115380     1.4151000     1.9054530
  H        1.7293810    -2.1000160     0.8695980
  H        0.7471110    -1.1811200     2.0534300
  H        2.5234680    -1.2398400     2.2034110
  H       -0.8634200     2.3493520    -0.2940320
  H       -3.3646430     2.0039100     0.5365790
  H       -3.9505650    -0.5636820     0.7303990
units angstrom
no_reorient  #important for SAPT in psi4, default
symmetry c1  #important for SAPT in psi4, default
}

set PROPERTIES_ORIGIN ["COM"]
properties('MP2/aug-cc-pvtz', properties = ['dipole'])
--------------------------------------------------------------------------

    Molecular point group: c1
  Charge       = 0
  Multiplicity = 1
  Basis Set: AUG-CC-PVTZ
    Blend: AUG-CC-PVTZ
  Basis Set: (AUG-CC-PVTZ AUX)
    Blend: AUG-CC-PVTZ-JKFIT

    Orbital Energies [Eh]
    ---------------------

    Doubly Occupied:

       1A    -92.203558     2A    -92.015507     3A    -20.575080
       4A    -20.522775     5A    -15.606529     6A    -11.299698
       7A    -11.296088     8A    -11.277737     9A    -11.271984
      10A    -11.270779    11A    -11.265096    12A     -9.170522
      13A     -9.015469    14A     -6.855947    15A     -6.855108
      16A     -6.854420    17A     -6.696364    18A     -6.695779
      19A     -6.695055    20A     -1.501236    21A     -1.308969
      22A     -1.244480    23A     -1.201675    24A     -1.032247
      25A     -1.017086    26A     -0.982119    27A     -0.945352
      28A     -0.854727    29A     -0.787419    30A     -0.755947
      31A     -0.729650    32A     -0.713620    33A     -0.666651
      34A     -0.659701    35A     -0.635141    36A     -0.618931
      37A     -0.589224    38A     -0.586060    39A     -0.571601
      40A     -0.562369    41A     -0.551223    42A     -0.544020
      43A     -0.519142    44A     -0.509774    45A     -0.493683
      46A     -0.452215    47A     -0.444291    48A     -0.415964
      49A     -0.373059    50A     -0.353724

  @DF-RHF Final Energy: -1231.76073446403893

   => Energetics <=

    Nuclear Repulsion Energy =            893.2084082566785810
    One-Electron Energy =               -3469.8086961561625685
    Two-Electron Energy =                1344.8395534354451684
    Total Energy =                      -1231.7607344640389329
  Basis Set: (AUG-CC-PVTZ AUX)
    Blend: AUG-CC-PVTZ-RI
    Molecular point group: c1

    Geometry (in Angstrom), charge = 0, multiplicity = 1:

       Center              X                  Y                   Z               Mass
    ------------   -----------------  -----------------  -----------------  -----------------
         S            1.004801847954    -0.088565771292    -0.709945046224    31.972071174400
         S           -1.680577452046    -1.125218771292     0.066330353776    31.972071174400
         O            1.149468547954    -1.301308771292    -1.302019646224    15.994914619570
         O            1.401327547954     1.254508228708    -1.423581646224    15.994914619570
         N            1.893658547954     0.017209228708     0.707168353776    14.003074004430
         C           -0.670607452046     0.227949228708    -0.261465646224    12.000000000000
         C            1.885780547954     1.278996228708     1.450896353776    12.000000000000
         C            1.708731547954    -1.167889771292     1.548782353776    12.000000000000
         C           -1.318484452046     1.431413228708    -0.047079646224    12.000000000000
         C           -2.651934452046     1.239945228708     0.381870353776    12.000000000000
         C           -2.982950452046    -0.094676771292     0.496165353776    12.000000000000
         H            2.099540547954     2.099023228708     0.766631353776     1.007825032230
         H            2.681135547954     1.225492228708     2.197587353776     1.007825032230
         H            0.927059547954     1.455691228708     1.960168353776     1.007825032230
         H            1.744902547954    -2.059424771292     0.924313353776     1.007825032230
         H            0.762632547954    -1.140528771292     2.108145353776     1.007825032230
         H            2.538989547954    -1.199248771292     2.258126353776     1.007825032230
         H           -0.847898452046     2.389943228708    -0.239316646224     1.007825032230
         H           -3.349121452046     2.044501228708     0.591294353776     1.007825032230
         H           -3.935043452046    -0.523090771292     0.785114353776     1.007825032230

  Basis Set: AUG-CC-PVTZ
    Blend: AUG-CC-PVTZ
  Basis Set: (AUG-CC-PVTZ AUX)
    Blend: AUG-CC-PVTZ-JKFIT
	 Reference Energy          =   -1231.7607344640389329 [Eh]
	 Singles Energy            =      -0.0000000000000000 [Eh]
	 Same-Spin Energy          =      -0.5859669006528365 [Eh]
	 Opposite-Spin Energy      =      -1.7440589643551412 [Eh]
	 Correlation Energy        =      -2.3300258650079777 [Eh]
	 Total Energy              =   -1234.0907603290468160 [Eh]

	 ================> DF-SCS-MP2 Energies <==================
	-----------------------------------------------------------
	 SCS Same-Spin Scale       =       0.3333333333333333 [-]
	 SCS Opposite-Spin Scale   =       1.2000000000000000 [-]
	 SCS Same-Spin Energy      =      -0.1953223002176122 [Eh]
	 SCS Opposite-Spin Energy  =      -2.0928707572261693 [Eh]
	 SCS Correlation Energy    =      -2.2881930574437814 [Eh]
	 SCS Total Energy          =   -1234.0489275214827103 [Eh]
	-----------------------------------------------------------

  Dipole Moment: [D]
     X:    -2.7159      Y:    -0.1825      Z:     4.8776     Total:     5.5857

*** Psi4 exiting successfully. Buy a developer a beer!
