                               Psi4 1.3.2 release

  ==> Input File <==

--------------------------------------------------------------------------
#psi4
#
memory 32 gb

molecule  {
0 1
  S        0.9781761    -0.1894535    -0.7593666
  S       -1.6960990    -1.1658100     0.0116150
  O        1.1339470    -1.3419000    -1.3567350
  O        1.3858060     1.2139170    -1.4782970
  N        1.8781370    -0.0233820     0.6524530
  C       -0.6861290     0.1873580    -0.3161810
  C        1.8702590     1.2384050     1.3961810
  C        1.6932100    -1.2084810     1.4940670
  C       -1.3340060     1.3908220    -0.1017950
  C       -2.6674560     1.1993540     0.3271550
  C       -2.9984720    -0.1352680     0.4414500
  H        2.0840190     2.0584320     0.7119160
  H        2.6656140     1.1849010     2.1428720
  H        0.9115380     1.4151000     1.9054530
  H        1.7293810    -2.1000160     0.8695980
  H        0.7471110    -1.1811200     2.0534300
  H        2.5234680    -1.2398400     2.2034110
  H       -0.8634200     2.3493520    -0.2940320
  H       -3.3646430     2.0039100     0.5365790
  H       -3.9505650    -0.5636820     0.7303990
units angstrom
no_reorient  #important for SAPT in psi4, default
symmetry c1  #important for SAPT in psi4, default
}

set PROPERTIES_ORIGIN ["COM"]
properties('MP2/aug-cc-pvtz', properties = ['dipole'])
--------------------------------------------------------------------------

    Molecular point group: c1
  Charge       = 0
  Multiplicity = 1
  Basis Set: AUG-CC-PVTZ
    Blend: AUG-CC-PVTZ
  Basis Set: (AUG-CC-PVTZ AUX)
    Blend: AUG-CC-PVTZ-JKFIT

    Orbital Energies [Eh]
    ---------------------

    Doubly Occupied:

       1A    -92.197832     2A    -92.015368     3A    -20.586505
       4A    -20.509933     5A    -15.606149     6A    -11.300752
       7A    -11.296458     8A    -11.278275     9A    -11.272390
      10A    -11.269929    11A    -11.265681    12A     -9.168248
      13A     -9.015567    14A     -6.854243    15A     -6.852196
      16A     -6.851543    17A     -6.696491    18A     -6.695871
      19A     -6.695167    20A     -1.539817    21A     -1.291325
      22A     -1.231147    23A     -1.201738    24A     -1.033383
      25A     -1.016850    26A     -0.982294    27A     -0.943973
      28A     -0.856129    29A     -0.788061    30A     -0.759565
      31A     -0.732029    32A     -0.724002    33A     -0.674717
      34A     -0.661290    35A     -0.641748    36A     -0.621548
      37A     -0.593734    38A     -0.589235    39A     -0.571723
      40A     -0.563056    41A     -0.552322    42A     -0.544549
      43A     -0.527392    44A     -0.508584    45A     -0.483259
      46A     -0.436073    47A     -0.428946    48A     -0.413396
      49A     -0.373611    50A     -0.353367

  @DF-RHF Final Energy: -1231.72405210261581

   => Energetics <=

    Nuclear Repulsion Energy =            893.7927425811232069
    One-Electron Energy =               -3470.8986644558012813
    Two-Electron Energy =                1345.3818697720623732
    Total Energy =                      -1231.7240521026158149
  Basis Set: (AUG-CC-PVTZ AUX)
    Blend: AUG-CC-PVTZ-RI
    Molecular point group: c1

    Geometry (in Angstrom), charge = 0, multiplicity = 1:

       Center              X                  Y                   Z               Mass
    ------------   -----------------  -----------------  -----------------  -----------------
         S            0.995556341078    -0.138769451463    -0.705537356854    31.972071174400
         S           -1.678718758922    -1.115125951463     0.065444243146    31.972071174400
         O            1.151327241078    -1.291215951463    -1.302905756854    15.994914619570
         O            1.403186241078     1.264601048537    -1.424467756854    15.994914619570
         N            1.895517241078     0.027302048537     0.706282243146    14.003074004430
         C           -0.668748758922     0.238042048537    -0.262351756854    12.000000000000
         C            1.887639241078     1.289089048537     1.450010243146    12.000000000000
         C            1.710590241078    -1.157796951463     1.547896243146    12.000000000000
         C           -1.316625758922     1.441506048537    -0.047965756854    12.000000000000
         C           -2.650075758922     1.250038048537     0.380984243146    12.000000000000
         C           -2.981091758922    -0.084583951463     0.495279243146    12.000000000000
         H            2.101399241078     2.109116048537     0.765745243146     1.007825032230
         H            2.682994241078     1.235585048537     2.196701243146     1.007825032230
         H            0.928918241078     1.465784048537     1.959282243146     1.007825032230
         H            1.746761241078    -2.049331951463     0.923427243146     1.007825032230
         H            0.764491241078    -1.130435951463     2.107259243146     1.007825032230
         H            2.540848241078    -1.189155951463     2.257240243146     1.007825032230
         H           -0.846039758922     2.400036048537    -0.240202756854     1.007825032230
         H           -3.347262758922     2.054594048537     0.590408243146     1.007825032230
         H           -3.933184758922    -0.512997951463     0.784228243146     1.007825032230

  Basis Set: AUG-CC-PVTZ
    Blend: AUG-CC-PVTZ
  Basis Set: (AUG-CC-PVTZ AUX)
    Blend: AUG-CC-PVTZ-JKFIT
	 Reference Energy          =   -1231.7240521026158149 [Eh]
	 Singles Energy            =      -0.0000000000000000 [Eh]
	 Same-Spin Energy          =      -0.5856300286824525 [Eh]
	 Opposite-Spin Energy      =      -1.7440241275241264 [Eh]
	 Correlation Energy        =      -2.3296541562065789 [Eh]
	 Total Energy              =   -1234.0537062588223307 [Eh]

	 ================> DF-SCS-MP2 Energies <==================
	-----------------------------------------------------------
	 SCS Same-Spin Scale       =       0.3333333333333333 [-]
	 SCS Opposite-Spin Scale   =       1.2000000000000000 [-]
	 SCS Same-Spin Energy      =      -0.1952100095608175 [Eh]
	 SCS Opposite-Spin Energy  =      -2.0928289530289517 [Eh]
	 SCS Correlation Energy    =      -2.2880389625897690 [Eh]
	 SCS Total Energy          =   -1234.0120910652055954 [Eh]
	-----------------------------------------------------------

  Dipole Moment: [D]
     X:    -2.8334      Y:    -0.6433      Z:     4.9578     Total:     5.7464

*** Psi4 exiting successfully. Buy a developer a beer!
