                               Psi4 1.3.2 release

  ==> Input File <==

--------------------------------------------------------------------------
#psi4
#
memory 32 gb

molecule  {
0 1
  S        1.0053540    -0.0074810    -0.7736030
  S       -1.6960990    -1.1658100     0.0116150
  O        1.1339470    -1.3419000    -1.3567350
  O        1.3858060     1.2139170    -1.4782970
  N        1.9270285    -0.0299287     0.6212629
  C       -0.6861290     0.1873580    -0.3161810
  C        1.8702590     1.2384050     1.3961810
  C        1.6932100    -1.2084810     1.4940670
  C       -1.3340060     1.3908220    -0.1017950
  C       -2.6674560     1.1993540     0.3271550
  C       -2.9984720    -0.1352680     0.4414500
  H        2.0840190     2.0584320     0.7119160
  H        2.6656140     1.1849010     2.1428720
  H        0.9115380     1.4151000     1.9054530
  H        1.7293810    -2.1000160     0.8695980
  H        0.7471110    -1.1811200     2.0534300
  H        2.5234680    -1.2398400     2.2034110
  H       -0.8634200     2.3493520    -0.2940320
  H       -3.3646430     2.0039100     0.5365790
  H       -3.9505650    -0.5636820     0.7303990
units angstrom
no_reorient  #important for SAPT in psi4, default
symmetry c1  #important for SAPT in psi4, default
}

set PROPERTIES_ORIGIN ["COM"]
properties('MP2/aug-cc-pvtz', properties = ['dipole'])
--------------------------------------------------------------------------

    Molecular point group: c1
  Charge       = 0
  Multiplicity = 1
  Basis Set: AUG-CC-PVTZ
    Blend: AUG-CC-PVTZ
  Basis Set: (AUG-CC-PVTZ AUX)
    Blend: AUG-CC-PVTZ-JKFIT

    Orbital Energies [Eh]
    ---------------------

    Doubly Occupied:

       1A    -92.206274     2A    -92.017049     3A    -20.547427
       4A    -20.547056     5A    -15.610437     6A    -11.299894
       7A    -11.296967     8A    -11.278541     9A    -11.273266
      10A    -11.271600    11A    -11.265167    12A     -9.170743
      13A     -9.016544    14A     -6.855809    15A     -6.855606
      16A     -6.855155    17A     -6.697376    18A     -6.696849
      19A     -6.696089    20A     -1.454380    21A     -1.338204
      22A     -1.245973    23A     -1.202301    24A     -1.031675
      25A     -1.018211    26A     -0.977306    27A     -0.945250
      28A     -0.856068    29A     -0.787523    30A     -0.753036
      31A     -0.727156    32A     -0.701071    33A     -0.659575
      34A     -0.655544    35A     -0.627251    36A     -0.614656
      37A     -0.589291    38A     -0.578791    39A     -0.572408
      40A     -0.564876    41A     -0.550782    42A     -0.534002
      43A     -0.509111    44A     -0.499895    45A     -0.495890
      46A     -0.471199    47A     -0.467482    48A     -0.424062
      49A     -0.373248    50A     -0.355959

  @DF-RHF Final Energy: -1231.78706475808713

   => Energetics <=

    Nuclear Repulsion Energy =            891.6300915885794893
    One-Electron Energy =               -3466.7542609501074367
    Two-Electron Energy =                1343.3371046034408209
    Total Energy =                      -1231.7870647580871264
  Basis Set: (AUG-CC-PVTZ AUX)
    Blend: AUG-CC-PVTZ-RI
    Molecular point group: c1

    Geometry (in Angstrom), charge = 0, multiplicity = 1:

       Center              X                  Y                   Z               Mass
    ------------   -----------------  -----------------  -----------------  -----------------
         S            1.014600710810     0.013223258894    -0.715104177866    31.972071174400
         S           -1.686852289190    -1.145105741106     0.070113822134    31.972071174400
         O            1.143193710810    -1.321195741106    -1.298236177866    15.994914619570
         O            1.395052710810     1.234621258894    -1.419798177866    15.994914619570
         N            1.936275210810    -0.009224441106     0.679761722134    14.003074004430
         C           -0.676882289190     0.208062258894    -0.257682177866    12.000000000000
         C            1.879505710810     1.259109258894     1.454679822134    12.000000000000
         C            1.702456710810    -1.187776741106     1.552565822134    12.000000000000
         C           -1.324759289190     1.411526258894    -0.043296177866    12.000000000000
         C           -2.658209289190     1.220058258894     0.385653822134    12.000000000000
         C           -2.989225289190    -0.114563741106     0.499948822134    12.000000000000
         H            2.093265710810     2.079136258894     0.770414822134     1.007825032230
         H            2.674860710810     1.205605258894     2.201370822134     1.007825032230
         H            0.920784710810     1.435804258894     1.963951822134     1.007825032230
         H            1.738627710810    -2.079311741106     0.928096822134     1.007825032230
         H            0.756357710810    -1.160415741106     2.111928822134     1.007825032230
         H            2.532714710810    -1.219135741106     2.261909822134     1.007825032230
         H           -0.854173289190     2.370056258894    -0.235533177866     1.007825032230
         H           -3.355396289190     2.024614258894     0.595077822134     1.007825032230
         H           -3.941318289190    -0.542977741106     0.788897822134     1.007825032230

  Basis Set: AUG-CC-PVTZ
    Blend: AUG-CC-PVTZ
  Basis Set: (AUG-CC-PVTZ AUX)
    Blend: AUG-CC-PVTZ-JKFIT
	 Reference Energy          =   -1231.7870647580871264 [Eh]
	 Singles Energy            =      -0.0000000000000000 [Eh]
	 Same-Spin Energy          =      -0.5861180141078679 [Eh]
	 Opposite-Spin Energy      =      -1.7445840375707817 [Eh]
	 Correlation Energy        =      -2.3307020516786494 [Eh]
	 Total Energy              =   -1234.1177668097657261 [Eh]

	 ================> DF-SCS-MP2 Energies <==================
	-----------------------------------------------------------
	 SCS Same-Spin Scale       =       0.3333333333333333 [-]
	 SCS Opposite-Spin Scale   =       1.2000000000000000 [-]
	 SCS Same-Spin Energy      =      -0.1953726713692893 [Eh]
	 SCS Opposite-Spin Energy  =      -2.0935008450849382 [Eh]
	 SCS Correlation Energy    =      -2.2888735164542275 [Eh]
	 SCS Total Energy          =   -1234.0759382745413859 [Eh]
	-----------------------------------------------------------

  Dipole Moment: [D]
     X:    -2.7462      Y:     0.7714      Z:     4.8734     Total:     5.6468

*** Psi4 exiting successfully. Buy a developer a beer!
