                               Psi4 1.3.2 release

  ==> Input File <==

--------------------------------------------------------------------------
#psi4
#
memory 32 gb

molecule  {
0 1
  S        1.0053540    -0.0074810    -0.7736030
  S       -1.6960990    -1.1658100     0.0116150
  O        1.0840944    -1.3492435    -1.3486913
  O        1.3858060     1.2139170    -1.4782970
  N        1.8781370    -0.0233820     0.6524530
  C       -0.6861290     0.1873580    -0.3161810
  C        1.8702590     1.2384050     1.3961810
  C        1.6932100    -1.2084810     1.4940670
  C       -1.3340060     1.3908220    -0.1017950
  C       -2.6674560     1.1993540     0.3271550
  C       -2.9984720    -0.1352680     0.4414500
  H        2.0840190     2.0584320     0.7119160
  H        2.6656140     1.1849010     2.1428720
  H        0.9115380     1.4151000     1.9054530
  H        1.7293810    -2.1000160     0.8695980
  H        0.7471110    -1.1811200     2.0534300
  H        2.5234680    -1.2398400     2.2034110
  H       -0.8634200     2.3493520    -0.2940320
  H       -3.3646430     2.0039100     0.5365790
  H       -3.9505650    -0.5636820     0.7303990
units angstrom
no_reorient  #important for SAPT in psi4, default
symmetry c1  #important for SAPT in psi4, default
}

set PROPERTIES_ORIGIN ["COM"]
properties('MP2/aug-cc-pvtz', properties = ['dipole'])
--------------------------------------------------------------------------

    Molecular point group: c1
  Charge       = 0
  Multiplicity = 1
  Basis Set: AUG-CC-PVTZ
    Blend: AUG-CC-PVTZ
  Basis Set: (AUG-CC-PVTZ AUX)
    Blend: AUG-CC-PVTZ-JKFIT

    Orbital Energies [Eh]
    ---------------------

    Doubly Occupied:

       1A    -92.208999     2A    -92.014557     3A    -20.551195
       4A    -20.550648     5A    -15.607824     6A    -11.296445
       7A    -11.294030     8A    -11.275241     9A    -11.272870
      10A    -11.271228    11A    -11.262886    12A     -9.173093
      13A     -9.014056    14A     -6.858202    15A     -6.857971
      16A     -6.857559    17A     -6.694889    18A     -6.694363
      19A     -6.693603    20A     -1.456633    21A     -1.341988
      22A     -1.253827    23A     -1.199658    24A     -1.029700
      25A     -1.015704    26A     -0.982374    27A     -0.946592
      28A     -0.852564    29A     -0.785085    30A     -0.753564
      31A     -0.727065    32A     -0.704681    33A     -0.663074
      34A     -0.658826    35A     -0.627277    36A     -0.617139
      37A     -0.587082    38A     -0.579892    39A     -0.572551
      40A     -0.563314    41A     -0.548370    42A     -0.542591
      43A     -0.509193    44A     -0.500852    45A     -0.498842
      46A     -0.474797    47A     -0.467815    48A     -0.417758
      49A     -0.370980    50A     -0.352647

  @DF-RHF Final Energy: -1231.78866016480288

   => Energetics <=

    Nuclear Repulsion Energy =            892.9277001756378240
    One-Electron Energy =               -3469.3285289325613121
    Two-Electron Energy =                1344.6121685921207245
    Total Energy =                      -1231.7886601648028773
  Basis Set: (AUG-CC-PVTZ AUX)
    Blend: AUG-CC-PVTZ-RI
    Molecular point group: c1

    Geometry (in Angstrom), charge = 0, multiplicity = 1:

       Center              X                  Y                   Z               Mass
    ------------   -----------------  -----------------  -----------------  -----------------
         S            1.022359671056     0.013358252205    -0.718064353039    31.972071174400
         S           -1.679093328944    -1.144970747795     0.067153646961    31.972071174400
         O            1.101100071056    -1.328404247795    -1.293152653039    15.994914619570
         O            1.402811671056     1.234756252205    -1.422758353039    15.994914619570
         N            1.895142671056    -0.002542747795     0.707991646961    14.003074004430
         C           -0.669123328944     0.208197252205    -0.260642353039    12.000000000000
         C            1.887264671056     1.259244252205     1.451719646961    12.000000000000
         C            1.710215671056    -1.187641747795     1.549605646961    12.000000000000
         C           -1.317000328944     1.411661252205    -0.046256353039    12.000000000000
         C           -2.650450328944     1.220193252205     0.382693646961    12.000000000000
         C           -2.981466328944    -0.114428747795     0.496988646961    12.000000000000
         H            2.101024671056     2.079271252205     0.767454646961     1.007825032230
         H            2.682619671056     1.205740252205     2.198410646961     1.007825032230
         H            0.928543671056     1.435939252205     1.960991646961     1.007825032230
         H            1.746386671056    -2.079176747795     0.925136646961     1.007825032230
         H            0.764116671056    -1.160280747795     2.108968646961     1.007825032230
         H            2.540473671056    -1.219000747795     2.258949646961     1.007825032230
         H           -0.846414328944     2.370191252205    -0.238493353039     1.007825032230
         H           -3.347637328944     2.024749252205     0.592117646961     1.007825032230
         H           -3.933559328944    -0.542842747795     0.785937646961     1.007825032230

  Basis Set: AUG-CC-PVTZ
    Blend: AUG-CC-PVTZ
  Basis Set: (AUG-CC-PVTZ AUX)
    Blend: AUG-CC-PVTZ-JKFIT
	 Reference Energy          =   -1231.7886601648028773 [Eh]
	 Singles Energy            =      -0.0000000000000000 [Eh]
	 Same-Spin Energy          =      -0.5862363309591387 [Eh]
	 Opposite-Spin Energy      =      -1.7442170602671563 [Eh]
	 Correlation Energy        =      -2.3304533912262952 [Eh]
	 Total Energy              =   -1234.1191135560291059 [Eh]

	 ================> DF-SCS-MP2 Energies <==================
	-----------------------------------------------------------
	 SCS Same-Spin Scale       =       0.3333333333333333 [-]
	 SCS Opposite-Spin Scale   =       1.2000000000000000 [-]
	 SCS Same-Spin Energy      =      -0.1954121103197129 [Eh]
	 SCS Opposite-Spin Energy  =      -2.0930604723205875 [Eh]
	 SCS Correlation Energy    =      -2.2884725826403005 [Eh]
	 SCS Total Energy          =   -1234.0771327474431018 [Eh]
	-----------------------------------------------------------

  Dipole Moment: [D]
     X:    -2.4024      Y:     0.7572      Z:     4.7437     Total:     5.3710

*** Psi4 exiting successfully. Buy a developer a beer!
