                               Psi4 1.3.2 release

  ==> Input File <==

--------------------------------------------------------------------------
#psi4
#
memory 32 gb

molecule  {
0 1
  S        1.0131870     0.1151442    -0.7803171
  S       -1.6960990    -1.1658100     0.0116150
  O        1.1339470    -1.3419000    -1.3567350
  O        1.3858060     1.2139170    -1.4782970
  N        1.8781370    -0.0233820     0.6524530
  C       -0.6861290     0.1873580    -0.3161810
  C        1.8702590     1.2384050     1.3961810
  C        1.6932100    -1.2084810     1.4940670
  C       -1.3340060     1.3908220    -0.1017950
  C       -2.6674560     1.1993540     0.3271550
  C       -2.9984720    -0.1352680     0.4414500
  H        2.0840190     2.0584320     0.7119160
  H        2.6656140     1.1849010     2.1428720
  H        0.9115380     1.4151000     1.9054530
  H        1.7293810    -2.1000160     0.8695980
  H        0.7471110    -1.1811200     2.0534300
  H        2.5234680    -1.2398400     2.2034110
  H       -0.8634200     2.3493520    -0.2940320
  H       -3.3646430     2.0039100     0.5365790
  H       -3.9505650    -0.5636820     0.7303990
units angstrom
no_reorient  #important for SAPT in psi4, default
symmetry c1  #important for SAPT in psi4, default
}

set PROPERTIES_ORIGIN ["COM"]
properties('MP2/aug-cc-pvtz', properties = ['dipole'])
--------------------------------------------------------------------------

    Molecular point group: c1
  Charge       = 0
  Multiplicity = 1
  Basis Set: AUG-CC-PVTZ
    Blend: AUG-CC-PVTZ
  Basis Set: (AUG-CC-PVTZ AUX)
    Blend: AUG-CC-PVTZ-JKFIT

    Orbital Energies [Eh]
    ---------------------

    Doubly Occupied:

       1A    -92.202937     2A    -92.016983     3A    -20.574800
       4A    -20.523399     5A    -15.605443     6A    -11.298862
       7A    -11.295316     8A    -11.276819     9A    -11.272775
      10A    -11.268851    11A    -11.263744    12A     -9.169960
      13A     -9.016073    14A     -6.855428    15A     -6.854520
      16A     -6.853845    17A     -6.696855    18A     -6.696368
      19A     -6.695575    20A     -1.502414    21A     -1.309508
      22A     -1.243722    23A     -1.200977    24A     -1.032712
      25A     -1.016663    26A     -0.981323    27A     -0.944207
      28A     -0.853889    29A     -0.786184    30A     -0.755688
      31A     -0.729735    32A     -0.713661    33A     -0.666302
      34A     -0.659735    35A     -0.635862    36A     -0.619091
      37A     -0.588316    38A     -0.586392    39A     -0.572297
      40A     -0.566063    41A     -0.550526    42A     -0.543480
      43A     -0.514863    44A     -0.502690    45A     -0.498521
      46A     -0.453156    47A     -0.445976    48A     -0.415221
      49A     -0.372162    50A     -0.353872

  @DF-RHF Final Energy: -1231.76094163331481

   => Energetics <=

    Nuclear Repulsion Energy =            892.3112791893468057
    One-Electron Energy =               -3468.0369156350639059
    Two-Electron Energy =                1343.9646948124022856
    Total Energy =                      -1231.7609416333148147
  Basis Set: (AUG-CC-PVTZ AUX)
    Blend: AUG-CC-PVTZ-RI
    Molecular point group: c1

    Geometry (in Angstrom), charge = 0, multiplicity = 1:

       Center              X                  Y                   Z               Mass
    ------------   -----------------  -----------------  -----------------  -----------------
         S            1.024706889221     0.114842706982    -0.722981026079    31.972071174400
         S           -1.684579110779    -1.166111493018     0.068951073921    31.972071174400
         O            1.145466889221    -1.342201493018    -1.299398926079    15.994914619570
         O            1.397325889221     1.213615506982    -1.420960926079    15.994914619570
         N            1.889656889221    -0.023683493018     0.709789073921    14.003074004430
         C           -0.674609110779     0.187056506982    -0.258844926079    12.000000000000
         C            1.881778889221     1.238103506982     1.453517073921    12.000000000000
         C            1.704729889221    -1.208782493018     1.551403073921    12.000000000000
         C           -1.322486110779     1.390520506982    -0.044458926079    12.000000000000
         C           -2.655936110779     1.199052506982     0.384491073921    12.000000000000
         C           -2.986952110779    -0.135569493018     0.498786073921    12.000000000000
         H            2.095538889221     2.058130506982     0.769252073921     1.007825032230
         H            2.677133889221     1.184599506982     2.200208073921     1.007825032230
         H            0.923057889221     1.414798506982     1.962789073921     1.007825032230
         H            1.740900889221    -2.100317493018     0.926934073921     1.007825032230
         H            0.758630889221    -1.181421493018     2.110766073921     1.007825032230
         H            2.534987889221    -1.240141493018     2.260747073921     1.007825032230
         H           -0.851900110779     2.349050506982    -0.236695926079     1.007825032230
         H           -3.353123110779     2.003608506982     0.593915073921     1.007825032230
         H           -3.939045110779    -0.563983493018     0.787735073921     1.007825032230

  Basis Set: AUG-CC-PVTZ
    Blend: AUG-CC-PVTZ
  Basis Set: (AUG-CC-PVTZ AUX)
    Blend: AUG-CC-PVTZ-JKFIT
	 Reference Energy          =   -1231.7609416333148147 [Eh]
	 Singles Energy            =      -0.0000000000000000 [Eh]
	 Same-Spin Energy          =      -0.5854221422797726 [Eh]
	 Opposite-Spin Energy      =      -1.7435033547173493 [Eh]
	 Correlation Energy        =      -2.3289254969971220 [Eh]
	 Total Energy              =   -1234.0898671303118590 [Eh]

	 ================> DF-SCS-MP2 Energies <==================
	-----------------------------------------------------------
	 SCS Same-Spin Scale       =       0.3333333333333333 [-]
	 SCS Opposite-Spin Scale   =       1.2000000000000000 [-]
	 SCS Same-Spin Energy      =      -0.1951407140932575 [Eh]
	 SCS Opposite-Spin Energy  =      -2.0922040256608190 [Eh]
	 SCS Correlation Energy    =      -2.2873447397540767 [Eh]
	 SCS Total Energy          =   -1234.0482863730690042 [Eh]
	-----------------------------------------------------------

  Dipole Moment: [D]
     X:    -2.5419      Y:     1.6966      Z:     4.7346     Total:     5.6353

*** Psi4 exiting successfully. Buy a developer a beer!
