                               Psi4 1.3.2 release

  ==> Input File <==

--------------------------------------------------------------------------
#psi4
#
memory 32 gb

molecule  {
0 1
  S        1.0053540    -0.0074810    -0.7736030
  S       -1.6960990    -1.1658100     0.0116150
  O        1.1339470    -1.3419000    -1.3567350
  O        1.3858060     1.2139170    -1.4782970
  N        1.8259376    -0.0224310     0.5671634
  C       -0.6861290     0.1873580    -0.3161810
  C        1.8702590     1.2384050     1.3961810
  C        1.6932100    -1.2084810     1.4940670
  C       -1.3340060     1.3908220    -0.1017950
  C       -2.6674560     1.1993540     0.3271550
  C       -2.9984720    -0.1352680     0.4414500
  H        2.0840190     2.0584320     0.7119160
  H        2.6656140     1.1849010     2.1428720
  H        0.9115380     1.4151000     1.9054530
  H        1.7293810    -2.1000160     0.8695980
  H        0.7471110    -1.1811200     2.0534300
  H        2.5234680    -1.2398400     2.2034110
  H       -0.8634200     2.3493520    -0.2940320
  H       -3.3646430     2.0039100     0.5365790
  H       -3.9505650    -0.5636820     0.7303990
units angstrom
no_reorient  #important for SAPT in psi4, default
symmetry c1  #important for SAPT in psi4, default
}

set PROPERTIES_ORIGIN ["COM"]
properties('MP2/aug-cc-pvtz', properties = ['dipole'])
--------------------------------------------------------------------------

    Molecular point group: c1
  Charge       = 0
  Multiplicity = 1
  Basis Set: AUG-CC-PVTZ
    Blend: AUG-CC-PVTZ
  Basis Set: (AUG-CC-PVTZ AUX)
    Blend: AUG-CC-PVTZ-JKFIT

    Orbital Energies [Eh]
    ---------------------

    Doubly Occupied:

       1A    -92.203283     2A    -92.013196     3A    -20.543512
       4A    -20.542979     5A    -15.606995     6A    -11.294479
       7A    -11.292141     8A    -11.281032     9A    -11.279870
      10A    -11.273098    11A    -11.261799    12A     -9.168165
      13A     -9.012745    14A     -6.853723    15A     -6.853005
      16A     -6.852690    17A     -6.693593    18A     -6.693061
      19A     -6.692307    20A     -1.458867    21A     -1.335814
      22A     -1.254958    23A     -1.198132    24A     -1.028646
      25A     -1.014300    26A     -0.977138    27A     -0.965214
      28A     -0.854661    29A     -0.783598    30A     -0.750634
      31A     -0.726179    32A     -0.700142    33A     -0.666034
      34A     -0.658775    35A     -0.624619    36A     -0.611094
      37A     -0.586858    38A     -0.585625    39A     -0.575877
      40A     -0.561743    41A     -0.548779    42A     -0.530169
      43A     -0.509130    44A     -0.501249    45A     -0.492566
      46A     -0.468589    47A     -0.468391    48A     -0.430497
      49A     -0.370037    50A     -0.350414

  @DF-RHF Final Energy: -1231.78319512826920

   => Energetics <=

    Nuclear Repulsion Energy =            895.1529730013434119
    One-Electron Energy =               -3473.8715309370700197
    Two-Electron Energy =                1346.9353628074572953
    Total Energy =                      -1231.7831951282691989
  Basis Set: (AUG-CC-PVTZ AUX)
    Blend: AUG-CC-PVTZ-RI
    Molecular point group: c1

    Geometry (in Angstrom), charge = 0, multiplicity = 1:

       Center              X                  Y                   Z               Mass
    ------------   -----------------  -----------------  -----------------  -----------------
         S            1.022011852099     0.012673590091    -0.711138053931    31.972071174400
         S           -1.679441147901    -1.145655409909     0.074079946069    31.972071174400
         O            1.150604852099    -1.321745409909    -1.294270053931    15.994914619570
         O            1.402463852099     1.234071590091    -1.415832053931    15.994914619570
         N            1.842595452099    -0.002276409909     0.629628346069    14.003074004430
         C           -0.669471147901     0.207512590091    -0.253716053931    12.000000000000
         C            1.886916852099     1.258559590091     1.458645946069    12.000000000000
         C            1.709867852099    -1.188326409909     1.556531946069    12.000000000000
         C           -1.317348147901     1.410976590091    -0.039330053931    12.000000000000
         C           -2.650798147901     1.219508590091     0.389619946069    12.000000000000
         C           -2.981814147901    -0.115113409909     0.503914946069    12.000000000000
         H            2.100676852099     2.078586590091     0.774380946069     1.007825032230
         H            2.682271852099     1.205055590091     2.205336946069     1.007825032230
         H            0.928195852099     1.435254590091     1.967917946069     1.007825032230
         H            1.746038852099    -2.079861409909     0.932062946069     1.007825032230
         H            0.763768852099    -1.160965409909     2.115894946069     1.007825032230
         H            2.540125852099    -1.219685409909     2.265875946069     1.007825032230
         H           -0.846762147901     2.369506590091    -0.231567053931     1.007825032230
         H           -3.347985147901     2.024064590091     0.599043946069     1.007825032230
         H           -3.933907147901    -0.543527409909     0.792863946069     1.007825032230

  Basis Set: AUG-CC-PVTZ
    Blend: AUG-CC-PVTZ
  Basis Set: (AUG-CC-PVTZ AUX)
    Blend: AUG-CC-PVTZ-JKFIT
	 Reference Energy          =   -1231.7831951282691989 [Eh]
	 Singles Energy            =      -0.0000000000000000 [Eh]
	 Same-Spin Energy          =      -0.5854799761362501 [Eh]
	 Opposite-Spin Energy      =      -1.7427959553542269 [Eh]
	 Correlation Energy        =      -2.3282759314904773 [Eh]
	 Total Energy              =   -1234.1114710597596513 [Eh]

	 ================> DF-SCS-MP2 Energies <==================
	-----------------------------------------------------------
	 SCS Same-Spin Scale       =       0.3333333333333333 [-]
	 SCS Opposite-Spin Scale   =       1.2000000000000000 [-]
	 SCS Same-Spin Energy      =      -0.1951599920454167 [Eh]
	 SCS Opposite-Spin Energy  =      -2.0913551464250721 [Eh]
	 SCS Correlation Energy    =      -2.2865151384704889 [Eh]
	 SCS Total Energy          =   -1234.0697102667397758 [Eh]
	-----------------------------------------------------------

  Dipole Moment: [D]
     X:    -2.1869      Y:     0.7434      Z:     5.2391     Total:     5.7256

*** Psi4 exiting successfully. Buy a developer a beer!
