                               Psi4 1.3.2 release

  ==> Input File <==

--------------------------------------------------------------------------
#psi4
#
memory 32 gb

molecule  {
0 1
  S        1.0053540    -0.0074810    -0.7736030
  S       -1.6960990    -1.1658100     0.0116150
  O        1.1245121    -1.3519483    -1.3352631
  O        1.3858060     1.2139170    -1.4782970
  N        1.8781370    -0.0233820     0.6524530
  C       -0.6861290     0.1873580    -0.3161810
  C        1.8702590     1.2384050     1.3961810
  C        1.6932100    -1.2084810     1.4940670
  C       -1.3340060     1.3908220    -0.1017950
  C       -2.6674560     1.1993540     0.3271550
  C       -2.9984720    -0.1352680     0.4414500
  H        2.0840190     2.0584320     0.7119160
  H        2.6656140     1.1849010     2.1428720
  H        0.9115380     1.4151000     1.9054530
  H        1.7293810    -2.1000160     0.8695980
  H        0.7471110    -1.1811200     2.0534300
  H        2.5234680    -1.2398400     2.2034110
  H       -0.8634200     2.3493520    -0.2940320
  H       -3.3646430     2.0039100     0.5365790
  H       -3.9505650    -0.5636820     0.7303990
units angstrom
no_reorient  #important for SAPT in psi4, default
symmetry c1  #important for SAPT in psi4, default
}

set PROPERTIES_ORIGIN ["COM"]
properties('MP2/aug-cc-pvtz', properties = ['dipole'])
--------------------------------------------------------------------------

    Molecular point group: c1
  Charge       = 0
  Multiplicity = 1
  Basis Set: AUG-CC-PVTZ
    Blend: AUG-CC-PVTZ
  Basis Set: (AUG-CC-PVTZ AUX)
    Blend: AUG-CC-PVTZ-JKFIT

    Orbital Energies [Eh]
    ---------------------

    Doubly Occupied:

       1A    -92.208637     2A    -92.015698     3A    -20.550948
       4A    -20.549987     5A    -15.606043     6A    -11.298122
       7A    -11.295211     8A    -11.276658     9A    -11.271766
      10A    -11.270108    11A    -11.263911    12A     -9.172755
      13A     -9.015197    14A     -6.857877    15A     -6.857627
      16A     -6.857220    17A     -6.696031    18A     -6.695504
      19A     -6.694744    20A     -1.456314    21A     -1.341504
      22A     -1.252213    23A     -1.200872    24A     -1.030979
      25A     -1.016828    26A     -0.981294    27A     -0.945794
      28A     -0.853149    29A     -0.786174    30A     -0.753390
      31A     -0.727396    32A     -0.704319    33A     -0.662353
      34A     -0.658445    35A     -0.627582    36A     -0.616643
      37A     -0.588063    38A     -0.578866    39A     -0.571841
      40A     -0.563930    41A     -0.549230    42A     -0.541564
      43A     -0.509416    44A     -0.501059    45A     -0.498466
      46A     -0.474230    47A     -0.467796    48A     -0.417067
      49A     -0.372006    50A     -0.353689

  @DF-RHF Final Energy: -1231.78893351786655

   => Energetics <=

    Nuclear Repulsion Energy =            892.7372780769685505
    One-Electron Energy =               -3468.9393920491697827
    Two-Electron Energy =                1344.4131804543344515
    Total Energy =                      -1231.7889335178665533
  Basis Set: (AUG-CC-PVTZ AUX)
    Blend: AUG-CC-PVTZ-RI
    Molecular point group: c1

    Geometry (in Angstrom), charge = 0, multiplicity = 1:

       Center              X                  Y                   Z               Mass
    ------------   -----------------  -----------------  -----------------  -----------------
         S            1.018975103648     0.013584751435    -0.719188826922    31.972071174400
         S           -1.682477896352    -1.144744248565     0.066029173078    31.972071174400
         O            1.138133203648    -1.330882548565    -1.280848926922    15.994914619570
         O            1.399427103648     1.234982751435    -1.423882826922    15.994914619570
         N            1.891758103648    -0.002316248565     0.706867173078    14.003074004430
         C           -0.672507896352     0.208423751435    -0.261766826922    12.000000000000
         C            1.883880103648     1.259470751435     1.450595173078    12.000000000000
         C            1.706831103648    -1.187415248565     1.548481173078    12.000000000000
         C           -1.320384896352     1.411887751435    -0.047380826922    12.000000000000
         C           -2.653834896352     1.220419751435     0.381569173078    12.000000000000
         C           -2.984850896352    -0.114202248565     0.495864173078    12.000000000000
         H            2.097640103648     2.079497751435     0.766330173078     1.007825032230
         H            2.679235103648     1.205966751435     2.197286173078     1.007825032230
         H            0.925159103648     1.436165751435     1.959867173078     1.007825032230
         H            1.743002103648    -2.078950248565     0.924012173078     1.007825032230
         H            0.760732103648    -1.160054248565     2.107844173078     1.007825032230
         H            2.537089103648    -1.218774248565     2.257825173078     1.007825032230
         H           -0.849798896352     2.370417751435    -0.239617826922     1.007825032230
         H           -3.351021896352     2.024975751435     0.590993173078     1.007825032230
         H           -3.936943896352    -0.542616248565     0.784813173078     1.007825032230

  Basis Set: AUG-CC-PVTZ
    Blend: AUG-CC-PVTZ
  Basis Set: (AUG-CC-PVTZ AUX)
    Blend: AUG-CC-PVTZ-JKFIT
	 Reference Energy          =   -1231.7889335178665533 [Eh]
	 Singles Energy            =      -0.0000000000000000 [Eh]
	 Same-Spin Energy          =      -0.5862456983901698 [Eh]
	 Opposite-Spin Energy      =      -1.7441934833131443 [Eh]
	 Correlation Energy        =      -2.3304391817033139 [Eh]
	 Total Energy              =   -1234.1193726995697943 [Eh]

	 ================> DF-SCS-MP2 Energies <==================
	-----------------------------------------------------------
	 SCS Same-Spin Scale       =       0.3333333333333333 [-]
	 SCS Opposite-Spin Scale   =       1.2000000000000000 [-]
	 SCS Same-Spin Energy      =      -0.1954152327967233 [Eh]
	 SCS Opposite-Spin Energy  =      -2.0930321799757730 [Eh]
	 SCS Correlation Energy    =      -2.2884474127724963 [Eh]
	 SCS Total Energy          =   -1234.0773809306390376 [Eh]
	-----------------------------------------------------------

  Dipole Moment: [D]
     X:    -2.5396      Y:     0.7690      Z:     4.7113     Total:     5.4072

*** Psi4 exiting successfully. Buy a developer a beer!
