                               Psi4 1.3.2 release

  ==> Input File <==

--------------------------------------------------------------------------
#psi4
#
memory 32 gb

molecule  {
0 1
  S        1.0053540    -0.0074810    -0.7736030
  S       -1.6960990    -1.1658100     0.0116150
  O        1.1588184    -1.3376180    -1.3604910
  O        1.3858060     1.2139170    -1.4782970
  N        1.8781370    -0.0233820     0.6524530
  C       -0.6861290     0.1873580    -0.3161810
  C        1.8702590     1.2384050     1.3961810
  C        1.6932100    -1.2084810     1.4940670
  C       -1.3340060     1.3908220    -0.1017950
  C       -2.6674560     1.1993540     0.3271550
  C       -2.9984720    -0.1352680     0.4414500
  H        2.0840190     2.0584320     0.7119160
  H        2.6656140     1.1849010     2.1428720
  H        0.9115380     1.4151000     1.9054530
  H        1.7293810    -2.1000160     0.8695980
  H        0.7471110    -1.1811200     2.0534300
  H        2.5234680    -1.2398400     2.2034110
  H       -0.8634200     2.3493520    -0.2940320
  H       -3.3646430     2.0039100     0.5365790
  H       -3.9505650    -0.5636820     0.7303990
units angstrom
no_reorient  #important for SAPT in psi4, default
symmetry c1  #important for SAPT in psi4, default
}

set PROPERTIES_ORIGIN ["COM"]
properties('MP2/aug-cc-pvtz', properties = ['dipole'])
--------------------------------------------------------------------------

    Molecular point group: c1
  Charge       = 0
  Multiplicity = 1
  Basis Set: AUG-CC-PVTZ
    Blend: AUG-CC-PVTZ
  Basis Set: (AUG-CC-PVTZ AUX)
    Blend: AUG-CC-PVTZ-JKFIT

    Orbital Energies [Eh]
    ---------------------

    Doubly Occupied:

       1A    -92.207948     2A    -92.016772     3A    -20.549359
       4A    -20.548423     5A    -15.605901     6A    -11.299710
       7A    -11.296289     8A    -11.277916     9A    -11.271688
      10A    -11.270483    11A    -11.264882    12A     -9.172142
      13A     -9.016290    14A     -6.857265    15A     -6.856976
      16A     -6.856624    17A     -6.697130    18A     -6.696600
      19A     -6.695840    20A     -1.455417    21A     -1.338938
      22A     -1.252348    23A     -1.202011    24A     -1.032299
      25A     -1.017897    26A     -0.981423    27A     -0.945952
      28A     -0.853801    29A     -0.787202    30A     -0.753561
      31A     -0.727720    32A     -0.703465    33A     -0.661575
      34A     -0.658762    35A     -0.628105    36A     -0.615761
      37A     -0.588914    38A     -0.579091    39A     -0.571978
      40A     -0.564390    41A     -0.550230    42A     -0.541576
      43A     -0.509817    44A     -0.500998    45A     -0.496822
      46A     -0.472246    47A     -0.467962    48A     -0.417358
      49A     -0.373009    50A     -0.354667

  @DF-RHF Final Energy: -1231.78936374921454

   => Energetics <=

    Nuclear Repulsion Energy =            892.2449755850483371
    One-Electron Energy =               -3467.9416174835246238
    Two-Electron Energy =                1343.9072781492616286
    Total Energy =                      -1231.7893637492145444
  Basis Set: (AUG-CC-PVTZ AUX)
    Blend: AUG-CC-PVTZ-RI
    Molecular point group: c1

    Geometry (in Angstrom), charge = 0, multiplicity = 1:

       Center              X                  Y                   Z               Mass
    ------------   -----------------  -----------------  -----------------  -----------------
         S            1.016102303245     0.012384735939    -0.717076249311    31.972071174400
         S           -1.685350696755    -1.145944264061     0.068141750689    31.972071174400
         O            1.169566703245    -1.317752264061    -1.303964249311    15.994914619570
         O            1.396554303245     1.233782735939    -1.421770249311    15.994914619570
         N            1.888885303245    -0.003516264061     0.708979750689    14.003074004430
         C           -0.675380696755     0.207223735939    -0.259654249311    12.000000000000
         C            1.881007303245     1.258270735939     1.452707750689    12.000000000000
         C            1.703958303245    -1.188615264061     1.550593750689    12.000000000000
         C           -1.323257696755     1.410687735939    -0.045268249311    12.000000000000
         C           -2.656707696755     1.219219735939     0.383681750689    12.000000000000
         C           -2.987723696755    -0.115402264061     0.497976750689    12.000000000000
         H            2.094767303245     2.078297735939     0.768442750689     1.007825032230
         H            2.676362303245     1.204766735939     2.199398750689     1.007825032230
         H            0.922286303245     1.434965735939     1.961979750689     1.007825032230
         H            1.740129303245    -2.080150264061     0.926124750689     1.007825032230
         H            0.757859303245    -1.161254264061     2.109956750689     1.007825032230
         H            2.534216303245    -1.219974264061     2.259937750689     1.007825032230
         H           -0.852671696755     2.369217735939    -0.237505249311     1.007825032230
         H           -3.353894696755     2.023775735939     0.593105750689     1.007825032230
         H           -3.939816696755    -0.543816264061     0.786925750689     1.007825032230

  Basis Set: AUG-CC-PVTZ
    Blend: AUG-CC-PVTZ
  Basis Set: (AUG-CC-PVTZ AUX)
    Blend: AUG-CC-PVTZ-JKFIT
	 Reference Energy          =   -1231.7893637492145444 [Eh]
	 Singles Energy            =      -0.0000000000000000 [Eh]
	 Same-Spin Energy          =      -0.5861154199810421 [Eh]
	 Opposite-Spin Energy      =      -1.7439676284077361 [Eh]
	 Correlation Energy        =      -2.3300830483887784 [Eh]
	 Total Energy              =   -1234.1194467976033593 [Eh]

	 ================> DF-SCS-MP2 Energies <==================
	-----------------------------------------------------------
	 SCS Same-Spin Scale       =       0.3333333333333333 [-]
	 SCS Opposite-Spin Scale   =       1.2000000000000000 [-]
	 SCS Same-Spin Energy      =      -0.1953718066603474 [Eh]
	 SCS Opposite-Spin Energy  =      -2.0927611540892834 [Eh]
	 SCS Correlation Energy    =      -2.2881329607496310 [Eh]
	 SCS Total Energy          =   -1234.0774967099641799 [Eh]
	-----------------------------------------------------------

  Dipole Moment: [D]
     X:    -2.6513      Y:     0.7445      Z:     4.7814     Total:     5.5178

*** Psi4 exiting successfully. Buy a developer a beer!
