                               Psi4 1.3.2 release

  ==> Input File <==

--------------------------------------------------------------------------
#psi4
#
memory 32 gb

molecule  {
0 1
  S        1.0053540    -0.0074810    -0.7736030
  S       -1.6960990    -1.1658100     0.0116150
  O        1.1339470    -1.3419000    -1.3567350
  O        1.3858060     1.2139170    -1.4782970
  N        1.8781370    -0.0233820     0.6524530
  C       -0.5989547     0.1099926    -0.3449736
  C        1.8702590     1.2384050     1.3961810
  C        1.6932100    -1.2084810     1.4940670
  C       -1.3340060     1.3908220    -0.1017950
  C       -2.6674560     1.1993540     0.3271550
  C       -2.9984720    -0.1352680     0.4414500
  H        2.0840190     2.0584320     0.7119160
  H        2.6656140     1.1849010     2.1428720
  H        0.9115380     1.4151000     1.9054530
  H        1.7293810    -2.1000160     0.8695980
  H        0.7471110    -1.1811200     2.0534300
  H        2.5234680    -1.2398400     2.2034110
  H       -0.8634200     2.3493520    -0.2940320
  H       -3.3646430     2.0039100     0.5365790
  H       -3.9505650    -0.5636820     0.7303990
units angstrom
no_reorient  #important for SAPT in psi4, default
symmetry c1  #important for SAPT in psi4, default
}

set PROPERTIES_ORIGIN ["COM"]
properties('MP2/aug-cc-pvtz', properties = ['dipole'])
--------------------------------------------------------------------------

    Molecular point group: c1
  Charge       = 0
  Multiplicity = 1
  Basis Set: AUG-CC-PVTZ
    Blend: AUG-CC-PVTZ
  Basis Set: (AUG-CC-PVTZ AUX)
    Blend: AUG-CC-PVTZ-JKFIT

    Orbital Energies [Eh]
    ---------------------

    Doubly Occupied:

       1A    -92.203333     2A    -92.024139     3A    -20.547747
       4A    -20.542102     5A    -15.602442     6A    -11.303894
       7A    -11.300415     8A    -11.295070     9A    -11.269976
      10A    -11.269388    11A    -11.268798    12A     -9.168653
      13A     -9.022703    14A     -6.853917    15A     -6.853608
      16A     -6.853105    17A     -6.703455    18A     -6.703088
      19A     -6.702391    20A     -1.455616    21A     -1.336972
      22A     -1.250150    23A     -1.193563    24A     -1.045019
      25A     -1.012877    26A     -0.979542    27A     -0.944130
      28A     -0.866873    29A     -0.782727    30A     -0.752585
      31A     -0.723380    32A     -0.703149    33A     -0.660383
      34A     -0.659512    35A     -0.632463    36A     -0.615170
      37A     -0.592109    38A     -0.578297    39A     -0.570747
      40A     -0.562090    41A     -0.545104    42A     -0.539585
      43A     -0.505619    44A     -0.500465    45A     -0.489093
      46A     -0.471802    47A     -0.468352    48A     -0.418795
      49A     -0.375099    50A     -0.345734

  @DF-RHF Final Energy: -1231.76877418630625

   => Energetics <=

    Nuclear Repulsion Energy =            893.5100614666411047
    One-Electron Energy =               -3470.4272291347856481
    Two-Electron Energy =                1345.1483934818381840
    Total Energy =                      -1231.7687741863062456
  Basis Set: (AUG-CC-PVTZ AUX)
    Blend: AUG-CC-PVTZ-RI
    Molecular point group: c1

    Geometry (in Angstrom), charge = 0, multiplicity = 1:

       Center              X                  Y                   Z               Mass
    ------------   -----------------  -----------------  -----------------  -----------------
         S            1.012708322488     0.017603772764    -0.715581887340    31.972071174400
         S           -1.688744677512    -1.140725227236     0.069636112660    31.972071174400
         O            1.141301322488    -1.316815227236    -1.298713887340    15.994914619570
         O            1.393160322488     1.239001772764    -1.420275887340    15.994914619570
         N            1.885491322488     0.001702772764     0.710474112660    14.003074004430
         C           -0.591600377512     0.135077372764    -0.286952487340    12.000000000000
         C            1.877613322488     1.263489772764     1.454202112660    12.000000000000
         C            1.700564322488    -1.183396227236     1.552088112660    12.000000000000
         C           -1.326651677512     1.415906772764    -0.043773887340    12.000000000000
         C           -2.660101677512     1.224438772764     0.385176112660    12.000000000000
         C           -2.991117677512    -0.110183227236     0.499471112660    12.000000000000
         H            2.091373322488     2.083516772764     0.769937112660     1.007825032230
         H            2.672968322488     1.209985772764     2.200893112660     1.007825032230
         H            0.918892322488     1.440184772764     1.963474112660     1.007825032230
         H            1.736735322488    -2.074931227236     0.927619112660     1.007825032230
         H            0.754465322488    -1.156035227236     2.111451112660     1.007825032230
         H            2.530822322488    -1.214755227236     2.261432112660     1.007825032230
         H           -0.856065677512     2.374436772764    -0.236010887340     1.007825032230
         H           -3.357288677512     2.028994772764     0.594600112660     1.007825032230
         H           -3.943210677512    -0.538597227236     0.788420112660     1.007825032230

  Basis Set: AUG-CC-PVTZ
    Blend: AUG-CC-PVTZ
  Basis Set: (AUG-CC-PVTZ AUX)
    Blend: AUG-CC-PVTZ-JKFIT
	 Reference Energy          =   -1231.7687741863062456 [Eh]
	 Singles Energy            =      -0.0000000000000000 [Eh]
	 Same-Spin Energy          =      -0.5887877776660140 [Eh]
	 Opposite-Spin Energy      =      -1.7472067088211649 [Eh]
	 Correlation Energy        =      -2.3359944864871789 [Eh]
	 Total Energy              =   -1234.1047686727933979 [Eh]

	 ================> DF-SCS-MP2 Energies <==================
	-----------------------------------------------------------
	 SCS Same-Spin Scale       =       0.3333333333333333 [-]
	 SCS Opposite-Spin Scale   =       1.2000000000000000 [-]
	 SCS Same-Spin Energy      =      -0.1962625925553380 [Eh]
	 SCS Opposite-Spin Energy  =      -2.0966480505853977 [Eh]
	 SCS Correlation Energy    =      -2.2929106431407358 [Eh]
	 SCS Total Energy          =   -1234.0616848294469037 [Eh]
	-----------------------------------------------------------

  Dipole Moment: [D]
     X:    -2.8936      Y:     0.7835      Z:     4.8433     Total:     5.6960

*** Psi4 exiting successfully. Buy a developer a beer!
