                               Psi4 1.3.2 release

  ==> Input File <==

--------------------------------------------------------------------------
#psi4
#
memory 32 gb

molecule  {
0 1
  S        0.9666229     0.1592871    -0.7372998
  S       -1.6960990    -1.1658100     0.0116150
  O        1.1339470    -1.3419000    -1.3567350
  O        1.3858060     1.2139170    -1.4782970
  N        1.8781370    -0.0233820     0.6524530
  C       -0.6861290     0.1873580    -0.3161810
  C        1.8702590     1.2384050     1.3961810
  C        1.6932100    -1.2084810     1.4940670
  C       -1.3340060     1.3908220    -0.1017950
  C       -2.6674560     1.1993540     0.3271550
  C       -2.9984720    -0.1352680     0.4414500
  H        2.0840190     2.0584320     0.7119160
  H        2.6656140     1.1849010     2.1428720
  H        0.9115380     1.4151000     1.9054530
  H        1.7293810    -2.1000160     0.8695980
  H        0.7471110    -1.1811200     2.0534300
  H        2.5234680    -1.2398400     2.2034110
  H       -0.8634200     2.3493520    -0.2940320
  H       -3.3646430     2.0039100     0.5365790
  H       -3.9505650    -0.5636820     0.7303990
units angstrom
no_reorient  #important for SAPT in psi4, default
symmetry c1  #important for SAPT in psi4, default
}

set PROPERTIES_ORIGIN ["COM"]
properties('MP2/aug-cc-pvtz', properties = ['dipole'])
--------------------------------------------------------------------------

    Molecular point group: c1
  Charge       = 0
  Multiplicity = 1
  Basis Set: AUG-CC-PVTZ
    Blend: AUG-CC-PVTZ
  Basis Set: (AUG-CC-PVTZ AUX)
    Blend: AUG-CC-PVTZ-JKFIT

    Orbital Energies [Eh]
    ---------------------

    Doubly Occupied:

       1A    -92.196706     2A    -92.023211     3A    -20.572671
       4A    -20.507286     5A    -15.607075     6A    -11.302385
       7A    -11.301457     8A    -11.284926     9A    -11.273616
      10A    -11.268784    11A    -11.268448    12A     -9.165640
      13A     -9.022059    14A     -6.850944    15A     -6.850027
      16A     -6.849317    17A     -6.702798    18A     -6.702312
      19A     -6.701501    20A     -1.497700    21A     -1.288879
      22A     -1.230912    23A     -1.207346    24A     -1.047721
      25A     -1.022466    26A     -0.982647    27A     -0.946323
      28A     -0.864439    29A     -0.792340    30A     -0.758096
      31A     -0.733152    32A     -0.710244    33A     -0.662973
      34A     -0.661962    35A     -0.636652    36A     -0.617136
      37A     -0.593734    38A     -0.585636    39A     -0.573825
      40A     -0.569731    41A     -0.555702    42A     -0.543762
      43A     -0.515726    44A     -0.507077    45A     -0.480707
      46A     -0.433308    47A     -0.429213    48A     -0.417757
      49A     -0.377137    50A     -0.359871

  @DF-RHF Final Energy: -1231.73989704298174

   => Energetics <=

    Nuclear Repulsion Energy =            893.6304396731245561
    One-Electron Energy =               -3470.6299996920279227
    Two-Electron Energy =                1345.2596629759214011
    Total Energy =                      -1231.7398970429817382
  Basis Set: (AUG-CC-PVTZ AUX)
    Blend: AUG-CC-PVTZ-RI
    Molecular point group: c1

    Geometry (in Angstrom), charge = 0, multiplicity = 1:

       Center              X                  Y                   Z               Mass
    ------------   -----------------  -----------------  -----------------  -----------------
         S            0.985936990739     0.151596681648    -0.687164241174    31.972071174400
         S           -1.676784909261    -1.173500418352     0.061750558826    31.972071174400
         O            1.153261090739    -1.349590418352    -1.306599441174    15.994914619570
         O            1.405120090739     1.206226581648    -1.428161441174    15.994914619570
         N            1.897451090739    -0.031072418352     0.702588558826    14.003074004430
         C           -0.666814909261     0.179667581648    -0.266045441174    12.000000000000
         C            1.889573090739     1.230714581648     1.446316558826    12.000000000000
         C            1.712524090739    -1.216171418352     1.544202558826    12.000000000000
         C           -1.314691909261     1.383131581648    -0.051659441174    12.000000000000
         C           -2.648141909261     1.191663581648     0.377290558826    12.000000000000
         C           -2.979157909261    -0.142958418352     0.491585558826    12.000000000000
         H            2.103333090739     2.050741581648     0.762051558826     1.007825032230
         H            2.684928090739     1.177210581648     2.193007558826     1.007825032230
         H            0.930852090739     1.407409581648     1.955588558826     1.007825032230
         H            1.748695090739    -2.107706418352     0.919733558826     1.007825032230
         H            0.766425090739    -1.188810418352     2.103565558826     1.007825032230
         H            2.542782090739    -1.247530418352     2.253546558826     1.007825032230
         H           -0.844105909261     2.341661581648    -0.243896441174     1.007825032230
         H           -3.345328909261     1.996219581648     0.586714558826     1.007825032230
         H           -3.931250909261    -0.571372418352     0.780534558826     1.007825032230

  Basis Set: AUG-CC-PVTZ
    Blend: AUG-CC-PVTZ
  Basis Set: (AUG-CC-PVTZ AUX)
    Blend: AUG-CC-PVTZ-JKFIT
	 Reference Energy          =   -1231.7398970429817382 [Eh]
	 Singles Energy            =      -0.0000000000000000 [Eh]
	 Same-Spin Energy          =      -0.5864164083361769 [Eh]
	 Opposite-Spin Energy      =      -1.7455008196972353 [Eh]
	 Correlation Energy        =      -2.3319172280334124 [Eh]
	 Total Energy              =   -1234.0718142710152279 [Eh]

	 ================> DF-SCS-MP2 Energies <==================
	-----------------------------------------------------------
	 SCS Same-Spin Scale       =       0.3333333333333333 [-]
	 SCS Opposite-Spin Scale   =       1.2000000000000000 [-]
	 SCS Same-Spin Energy      =      -0.1954721361120590 [Eh]
	 SCS Opposite-Spin Energy  =      -2.0946009836366821 [Eh]
	 SCS Correlation Energy    =      -2.2900731197487412 [Eh]
	 SCS Total Energy          =   -1234.0299701627304785 [Eh]
	-----------------------------------------------------------

  Dipole Moment: [D]
     X:    -3.1183      Y:     2.0434      Z:     5.1762     Total:     6.3791

*** Psi4 exiting successfully. Buy a developer a beer!
