                               Psi4 1.3.2 release

  ==> Input File <==

--------------------------------------------------------------------------
#psi4
#
memory 32 gb

molecule  {
0 1
  S        1.0173593     0.1766412    -0.7704105
  S       -1.6960990    -1.1658100     0.0116150
  O        1.1339470    -1.3419000    -1.3567350
  O        1.3858060     1.2139170    -1.4782970
  N        1.8781370    -0.0233820     0.6524530
  C       -0.6861290     0.1873580    -0.3161810
  C        1.8702590     1.2384050     1.3961810
  C        1.6932100    -1.2084810     1.4940670
  C       -1.3340060     1.3908220    -0.1017950
  C       -2.6674560     1.1993540     0.3271550
  C       -2.9984720    -0.1352680     0.4414500
  H        2.0840190     2.0584320     0.7119160
  H        2.6656140     1.1849010     2.1428720
  H        0.9115380     1.4151000     1.9054530
  H        1.7293810    -2.1000160     0.8695980
  H        0.7471110    -1.1811200     2.0534300
  H        2.5234680    -1.2398400     2.2034110
  H       -0.8634200     2.3493520    -0.2940320
  H       -3.3646430     2.0039100     0.5365790
  H       -3.9505650    -0.5636820     0.7303990
units angstrom
no_reorient  #important for SAPT in psi4, default
symmetry c1  #important for SAPT in psi4, default
}

set PROPERTIES_ORIGIN ["COM"]
properties('MP2/aug-cc-pvtz', properties = ['dipole'])
--------------------------------------------------------------------------

    Molecular point group: c1
  Charge       = 0
  Multiplicity = 1
  Basis Set: AUG-CC-PVTZ
    Blend: AUG-CC-PVTZ
  Basis Set: (AUG-CC-PVTZ AUX)
    Blend: AUG-CC-PVTZ-JKFIT

    Orbital Energies [Eh]
    ---------------------

    Doubly Occupied:

       1A    -92.196951     2A    -92.017486     3A    -20.584842
       4A    -20.509228     5A    -15.606552     6A    -11.299321
       7A    -11.295201     8A    -11.276693     9A    -11.274365
      10A    -11.269182    11A    -11.263522    12A     -9.167293
      13A     -9.016376    14A     -6.853278    15A     -6.851246
      16A     -6.850608    17A     -6.697131    18A     -6.696661
      19A     -6.695852    20A     -1.537053    21A     -1.291749
      22A     -1.231443    23A     -1.200510    24A     -1.033959
      25A     -1.016149    26A     -0.982873    27A     -0.945056
      28A     -0.855323    29A     -0.786226    30A     -0.758743
      31A     -0.732443    32A     -0.722886    33A     -0.674279
      34A     -0.662383    35A     -0.642017    36A     -0.621566
      37A     -0.593850    38A     -0.589205    39A     -0.573264
      40A     -0.566534    41A     -0.551140    42A     -0.545039
      43A     -0.522442    44A     -0.502615    45A     -0.485041
      46A     -0.435993    47A     -0.429220    48A     -0.414372
      49A     -0.372169    50A     -0.353670

  @DF-RHF Final Energy: -1231.72544992463645

   => Energetics <=

    Nuclear Repulsion Energy =            892.6018315170606456
    One-Electron Energy =               -3468.5525693493750623
    Two-Electron Energy =                1344.2252879076777390
    Total Energy =                      -1231.7254499246364503
  Basis Set: (AUG-CC-PVTZ AUX)
    Blend: AUG-CC-PVTZ-RI
    Molecular point group: c1

    Geometry (in Angstrom), charge = 0, multiplicity = 1:

       Center              X                  Y                   Z               Mass
    ------------   -----------------  -----------------  -----------------  -----------------
         S            1.028180802546     0.166045939665    -0.714732657136    31.972071174400
         S           -1.685277497454    -1.176405260335     0.067292842864    31.972071174400
         O            1.144768502546    -1.352495260335    -1.301057157136    15.994914619570
         O            1.396627502546     1.203321739665    -1.422619157136    15.994914619570
         N            1.888958502546    -0.033977260335     0.708130842864    14.003074004430
         C           -0.675307497454     0.176762739665    -0.260503157136    12.000000000000
         C            1.881080502546     1.227809739665     1.451858842864    12.000000000000
         C            1.704031502546    -1.219076260335     1.549744842864    12.000000000000
         C           -1.323184497454     1.380226739665    -0.046117157136    12.000000000000
         C           -2.656634497454     1.188758739665     0.382832842864    12.000000000000
         C           -2.987650497454    -0.145863260335     0.497127842864    12.000000000000
         H            2.094840502546     2.047836739665     0.767593842864     1.007825032230
         H            2.676435502546     1.174305739665     2.198549842864     1.007825032230
         H            0.922359502546     1.404504739665     1.961130842864     1.007825032230
         H            1.740202502546    -2.110611260335     0.925275842864     1.007825032230
         H            0.757932502546    -1.191715260335     2.109107842864     1.007825032230
         H            2.534289502546    -1.250435260335     2.259088842864     1.007825032230
         H           -0.852598497454     2.338756739665    -0.238354157136     1.007825032230
         H           -3.353821497454     1.993314739665     0.592256842864     1.007825032230
         H           -3.939743497454    -0.574277260335     0.786076842864     1.007825032230

  Basis Set: AUG-CC-PVTZ
    Blend: AUG-CC-PVTZ
  Basis Set: (AUG-CC-PVTZ AUX)
    Blend: AUG-CC-PVTZ-JKFIT
	 Reference Energy          =   -1231.7254499246364503 [Eh]
	 Singles Energy            =      -0.0000000000000000 [Eh]
	 Same-Spin Energy          =      -0.5849576542769435 [Eh]
	 Opposite-Spin Energy      =      -1.7433897432508207 [Eh]
	 Correlation Energy        =      -2.3283473975277644 [Eh]
	 Total Energy              =   -1234.0537973221642005 [Eh]

	 ================> DF-SCS-MP2 Energies <==================
	-----------------------------------------------------------
	 SCS Same-Spin Scale       =       0.3333333333333333 [-]
	 SCS Opposite-Spin Scale   =       1.2000000000000000 [-]
	 SCS Same-Spin Energy      =      -0.1949858847589812 [Eh]
	 SCS Opposite-Spin Energy  =      -2.0920676919009846 [Eh]
	 SCS Correlation Energy    =      -2.2870535766599658 [Eh]
	 SCS Total Energy          =   -1234.0125035012963508 [Eh]
	-----------------------------------------------------------

  Dipole Moment: [D]
     X:    -2.5280      Y:     2.1801      Z:     4.8684     Total:     5.9030

*** Psi4 exiting successfully. Buy a developer a beer!
