                               Psi4 1.3.2 release

  ==> Input File <==

--------------------------------------------------------------------------
#psi4
#
memory 32 gb

molecule  {
0 1
  S        1.0053540    -0.0074810    -0.7736030
  S       -1.6960990    -1.1658100     0.0116150
  O        1.2823230    -1.3101605    -1.3765685
  O        1.3858060     1.2139170    -1.4782970
  N        1.8781370    -0.0233820     0.6524530
  C       -0.6861290     0.1873580    -0.3161810
  C        1.8702590     1.2384050     1.3961810
  C        1.6932100    -1.2084810     1.4940670
  C       -1.3340060     1.3908220    -0.1017950
  C       -2.6674560     1.1993540     0.3271550
  C       -2.9984720    -0.1352680     0.4414500
  H        2.0840190     2.0584320     0.7119160
  H        2.6656140     1.1849010     2.1428720
  H        0.9115380     1.4151000     1.9054530
  H        1.7293810    -2.1000160     0.8695980
  H        0.7471110    -1.1811200     2.0534300
  H        2.5234680    -1.2398400     2.2034110
  H       -0.8634200     2.3493520    -0.2940320
  H       -3.3646430     2.0039100     0.5365790
  H       -3.9505650    -0.5636820     0.7303990
units angstrom
no_reorient  #important for SAPT in psi4, default
symmetry c1  #important for SAPT in psi4, default
}

set PROPERTIES_ORIGIN ["COM"]
properties('MP2/aug-cc-pvtz', properties = ['dipole'])
--------------------------------------------------------------------------

    Molecular point group: c1
  Charge       = 0
  Multiplicity = 1
  Basis Set: AUG-CC-PVTZ
    Blend: AUG-CC-PVTZ
  Basis Set: (AUG-CC-PVTZ AUX)
    Blend: AUG-CC-PVTZ-JKFIT

    Orbital Energies [Eh]
    ---------------------

    Doubly Occupied:

       1A    -92.206135     2A    -92.020194     3A    -20.547022
       4A    -20.543758     5A    -15.602645     6A    -11.304894
       7A    -11.299761     8A    -11.282022     9A    -11.269681
      10A    -11.269348    11A    -11.267975    12A     -9.170561
      13A     -9.019743    14A     -6.855708    15A     -6.855330
      16A     -6.855021    17A     -6.700593    18A     -6.700056
      19A     -6.699296    20A     -1.453614    21A     -1.333687
      22A     -1.249878    23A     -1.205621    24A     -1.036324
      25A     -1.021296    26A     -0.979865    27A     -0.944981
      28A     -0.855692    29A     -0.790491    30A     -0.753912
      31A     -0.728337    32A     -0.701476    33A     -0.659331
      34A     -0.658446    35A     -0.629397    36A     -0.613243
      37A     -0.591773    38A     -0.577980    39A     -0.571135
      40A     -0.566071    41A     -0.553058    42A     -0.539922
      43A     -0.511760    44A     -0.500237    45A     -0.492985
      46A     -0.468863    47A     -0.466213    48A     -0.416379
      49A     -0.376159    50A     -0.357619

  @DF-RHF Final Energy: -1231.78736818325842

   => Energetics <=

    Nuclear Repulsion Energy =            891.2698970056835606
    One-Electron Energy =               -3465.9635552768136222
    Two-Electron Energy =                1342.9062900878716391
    Total Energy =                      -1231.7873681832584225
  Basis Set: (AUG-CC-PVTZ AUX)
    Blend: AUG-CC-PVTZ-RI
    Molecular point group: c1

    Geometry (in Angstrom), charge = 0, multiplicity = 1:

       Center              X                  Y                   Z               Mass
    ------------   -----------------  -----------------  -----------------  -----------------
         S            1.005760061012     0.010085452219    -0.715729923754    31.972071174400
         S           -1.695692938988    -1.148243547781     0.069488076246    31.972071174400
         O            1.282729061012    -1.292594047781    -1.318695423754    15.994914619570
         O            1.386212061012     1.231483452219    -1.420423923754    15.994914619570
         N            1.878543061012    -0.005815547781     0.710326076246    14.003074004430
         C           -0.685722938988     0.204924452219    -0.258307923754    12.000000000000
         C            1.870665061012     1.255971452219     1.454054076246    12.000000000000
         C            1.693616061012    -1.190914547781     1.551940076246    12.000000000000
         C           -1.333599938988     1.408388452219    -0.043921923754    12.000000000000
         C           -2.667049938988     1.216920452219     0.385028076246    12.000000000000
         C           -2.998065938988    -0.117701547781     0.499323076246    12.000000000000
         H            2.084425061012     2.075998452219     0.769789076246     1.007825032230
         H            2.666020061012     1.202467452219     2.200745076246     1.007825032230
         H            0.911944061012     1.432666452219     1.963326076246     1.007825032230
         H            1.729787061012    -2.082449547781     0.927471076246     1.007825032230
         H            0.747517061012    -1.163553547781     2.111303076246     1.007825032230
         H            2.523874061012    -1.222273547781     2.261284076246     1.007825032230
         H           -0.863013938988     2.366918452219    -0.236158923754     1.007825032230
         H           -3.364236938988     2.021476452219     0.594452076246     1.007825032230
         H           -3.950158938988    -0.546115547781     0.788272076246     1.007825032230

  Basis Set: AUG-CC-PVTZ
    Blend: AUG-CC-PVTZ
  Basis Set: (AUG-CC-PVTZ AUX)
    Blend: AUG-CC-PVTZ-JKFIT
	 Reference Energy          =   -1231.7873681832584225 [Eh]
	 Singles Energy            =      -0.0000000000000000 [Eh]
	 Same-Spin Energy          =      -0.5860758470456979 [Eh]
	 Opposite-Spin Energy      =      -1.7438736128495180 [Eh]
	 Correlation Energy        =      -2.3299494598952162 [Eh]
	 Total Energy              =   -1234.1173176431536831 [Eh]

	 ================> DF-SCS-MP2 Energies <==================
	-----------------------------------------------------------
	 SCS Same-Spin Scale       =       0.3333333333333333 [-]
	 SCS Opposite-Spin Scale   =       1.2000000000000000 [-]
	 SCS Same-Spin Energy      =      -0.1953586156818993 [Eh]
	 SCS Opposite-Spin Energy  =      -2.0926483354194216 [Eh]
	 SCS Correlation Energy    =      -2.2880069511013210 [Eh]
	 SCS Total Energy          =   -1234.0753751343597742 [Eh]
	-----------------------------------------------------------

  Dipole Moment: [D]
     X:    -3.0468      Y:     0.7053      Z:     4.8314     Total:     5.7552

*** Psi4 exiting successfully. Buy a developer a beer!
