                               Psi4 1.3.2 release

  ==> Input File <==

--------------------------------------------------------------------------
#psi4
#
memory 32 gb

molecule  {
0 1
  S        1.0053540    -0.0074810    -0.7736030
  S       -1.7183793    -1.1470724     0.0189427
  O        1.1339470    -1.3419000    -1.3567350
  O        1.3858060     1.2139170    -1.4782970
  N        1.8781370    -0.0233820     0.6524530
  C       -0.6861290     0.1873580    -0.3161810
  C        1.8702590     1.2384050     1.3961810
  C        1.6932100    -1.2084810     1.4940670
  C       -1.3340060     1.3908220    -0.1017950
  C       -2.6674560     1.1993540     0.3271550
  C       -2.9984720    -0.1352680     0.4414500
  H        2.0840190     2.0584320     0.7119160
  H        2.6656140     1.1849010     2.1428720
  H        0.9115380     1.4151000     1.9054530
  H        1.7293810    -2.1000160     0.8695980
  H        0.7471110    -1.1811200     2.0534300
  H        2.5234680    -1.2398400     2.2034110
  H       -0.8634200     2.3493520    -0.2940320
  H       -3.3646430     2.0039100     0.5365790
  H       -3.9505650    -0.5636820     0.7303990
units angstrom
no_reorient  #important for SAPT in psi4, default
symmetry c1  #important for SAPT in psi4, default
}

set PROPERTIES_ORIGIN ["COM"]
properties('MP2/aug-cc-pvtz', properties = ['dipole'])
--------------------------------------------------------------------------

    Molecular point group: c1
  Charge       = 0
  Multiplicity = 1
  Basis Set: AUG-CC-PVTZ
    Blend: AUG-CC-PVTZ
  Basis Set: (AUG-CC-PVTZ AUX)
    Blend: AUG-CC-PVTZ-JKFIT

    Orbital Energies [Eh]
    ---------------------

    Doubly Occupied:

       1A    -92.208683     2A    -92.015387     3A    -20.549662
       4A    -20.549630     5A    -15.606575     6A    -11.297711
       7A    -11.293171     8A    -11.276602     9A    -11.272101
      10A    -11.270810    11A    -11.262903    12A     -9.172759
      13A     -9.015588    14A     -6.857884    15A     -6.857618
      16A     -6.857241    17A     -6.696452    18A     -6.695953
      19A     -6.695152    20A     -1.455815    21A     -1.339970
      22A     -1.252877    23A     -1.205205    24A     -1.032610
      25A     -1.018872    26A     -0.981796    27A     -0.946153
      28A     -0.853363    29A     -0.786505    30A     -0.754244
      31A     -0.727654    32A     -0.703980    33A     -0.662073
      34A     -0.659415    35A     -0.628976    36A     -0.616229
      37A     -0.588258    38A     -0.579537    39A     -0.572310
      40A     -0.564963    41A     -0.552095    42A     -0.541934
      43A     -0.509593    44A     -0.500982    45A     -0.497256
      46A     -0.473227    47A     -0.468299    48A     -0.417846
      49A     -0.371958    50A     -0.354525

  @DF-RHF Final Energy: -1231.78923569752192

   => Energetics <=

    Nuclear Repulsion Energy =            892.7927708306872319
    One-Electron Energy =               -3469.0232055044220942
    Two-Electron Energy =                1344.4411989762127178
    Total Energy =                      -1231.7892356975219172
  Basis Set: (AUG-CC-PVTZ AUX)
    Blend: AUG-CC-PVTZ-RI
    Molecular point group: c1

    Geometry (in Angstrom), charge = 0, multiplicity = 1:

       Center              X                  Y                   Z               Mass
    ------------   -----------------  -----------------  -----------------  -----------------
         S            1.021914448978     0.009606888277    -0.718617333772    31.972071174400
         S           -1.701818851022    -1.129984511723     0.073928366228    31.972071174400
         O            1.150507448978    -1.324812111723    -1.301749333772    15.994914619570
         O            1.402366448978     1.231004888277    -1.423311333772    15.994914619570
         N            1.894697448978    -0.006294111723     0.707438666228    14.003074004430
         C           -0.669568551022     0.204445888277    -0.261195333772    12.000000000000
         C            1.886819448978     1.255492888277     1.451166666228    12.000000000000
         C            1.709770448978    -1.191393111723     1.549052666228    12.000000000000
         C           -1.317445551022     1.407909888277    -0.046809333772    12.000000000000
         C           -2.650895551022     1.216441888277     0.382140666228    12.000000000000
         C           -2.981911551022    -0.118180111723     0.496435666228    12.000000000000
         H            2.100579448978     2.075519888277     0.766901666228     1.007825032230
         H            2.682174448978     1.201988888277     2.197857666228     1.007825032230
         H            0.928098448978     1.432187888277     1.960438666228     1.007825032230
         H            1.745941448978    -2.082928111723     0.924583666228     1.007825032230
         H            0.763671448978    -1.164032111723     2.108415666228     1.007825032230
         H            2.540028448978    -1.222752111723     2.258396666228     1.007825032230
         H           -0.846859551022     2.366439888277    -0.239046333772     1.007825032230
         H           -3.348082551022     2.020997888277     0.591564666228     1.007825032230
         H           -3.934004551022    -0.546594111723     0.785384666228     1.007825032230

  Basis Set: AUG-CC-PVTZ
    Blend: AUG-CC-PVTZ
  Basis Set: (AUG-CC-PVTZ AUX)
    Blend: AUG-CC-PVTZ-JKFIT
	 Reference Energy          =   -1231.7892356975219172 [Eh]
	 Singles Energy            =      -0.0000000000000000 [Eh]
	 Same-Spin Energy          =      -0.5863265980347470 [Eh]
	 Opposite-Spin Energy      =      -1.7436305382368116 [Eh]
	 Correlation Energy        =      -2.3299571362715588 [Eh]
	 Total Energy              =   -1234.1191928337934769 [Eh]

	 ================> DF-SCS-MP2 Energies <==================
	-----------------------------------------------------------
	 SCS Same-Spin Scale       =       0.3333333333333333 [-]
	 SCS Opposite-Spin Scale   =       1.2000000000000000 [-]
	 SCS Same-Spin Energy      =      -0.1954421993449156 [Eh]
	 SCS Opposite-Spin Energy  =      -2.0923566458841738 [Eh]
	 SCS Correlation Energy    =      -2.2877988452290894 [Eh]
	 SCS Total Energy          =   -1234.0770345427511074 [Eh]
	-----------------------------------------------------------

  Dipole Moment: [D]
     X:    -2.5749      Y:     0.7384      Z:     4.7739     Total:     5.4741

*** Psi4 exiting successfully. Buy a developer a beer!
