                               Psi4 1.3.2 release

  ==> Input File <==

--------------------------------------------------------------------------
#psi4
#
memory 32 gb

molecule  {
0 1
  S        1.0053540    -0.0074810    -0.7736030
  S       -1.6960990    -1.1658100     0.0116150
  O        1.1484934    -1.3488904    -1.3369723
  O        1.3858060     1.2139170    -1.4782970
  N        1.8781370    -0.0233820     0.6524530
  C       -0.6861290     0.1873580    -0.3161810
  C        1.8702590     1.2384050     1.3961810
  C        1.6932100    -1.2084810     1.4940670
  C       -1.3340060     1.3908220    -0.1017950
  C       -2.6674560     1.1993540     0.3271550
  C       -2.9984720    -0.1352680     0.4414500
  H        2.0840190     2.0584320     0.7119160
  H        2.6656140     1.1849010     2.1428720
  H        0.9115380     1.4151000     1.9054530
  H        1.7293810    -2.1000160     0.8695980
  H        0.7471110    -1.1811200     2.0534300
  H        2.5234680    -1.2398400     2.2034110
  H       -0.8634200     2.3493520    -0.2940320
  H       -3.3646430     2.0039100     0.5365790
  H       -3.9505650    -0.5636820     0.7303990
units angstrom
no_reorient  #important for SAPT in psi4, default
symmetry c1  #important for SAPT in psi4, default
}

set PROPERTIES_ORIGIN ["COM"]
properties('MP2/aug-cc-pvtz', properties = ['dipole'])
--------------------------------------------------------------------------

    Molecular point group: c1
  Charge       = 0
  Multiplicity = 1
  Basis Set: AUG-CC-PVTZ
    Blend: AUG-CC-PVTZ
  Basis Set: (AUG-CC-PVTZ AUX)
    Blend: AUG-CC-PVTZ-JKFIT

    Orbital Energies [Eh]
    ---------------------

    Doubly Occupied:

       1A    -92.208321     2A    -92.016397     3A    -20.550190
       4A    -20.549573     5A    -15.605343     6A    -11.299159
       7A    -11.295925     8A    -11.277505     9A    -11.271333
      10A    -11.269798    11A    -11.264541    12A     -9.172470
      13A     -9.015902    14A     -6.857597    15A     -6.857329
      16A     -6.856938    17A     -6.696738    18A     -6.696210
      19A     -6.695449    20A     -1.455966    21A     -1.340649
      22A     -1.251649    23A     -1.201615    24A     -1.031795
      25A     -1.017521    26A     -0.980929    27A     -0.945543
      28A     -0.853533    29A     -0.786844    30A     -0.753387
      31A     -0.727582    32A     -0.703961    33A     -0.661875
      34A     -0.658399    35A     -0.627832    36A     -0.616219
      37A     -0.588649    38A     -0.578555    39A     -0.571626
      40A     -0.564266    41A     -0.549804    42A     -0.541187
      43A     -0.509650    44A     -0.501081    45A     -0.497884
      46A     -0.473499    47A     -0.467796    48A     -0.416876
      49A     -0.372645    50A     -0.354316

  @DF-RHF Final Energy: -1231.78905037050458

   => Energetics <=

    Nuclear Repulsion Energy =            892.5401341400677211
    One-Electron Energy =               -3468.5386696164896421
    Two-Electron Energy =                1344.2094851059175653
    Total Energy =                      -1231.7890503705045830
  Basis Set: (AUG-CC-PVTZ AUX)
    Blend: AUG-CC-PVTZ-RI
    Molecular point group: c1

    Geometry (in Angstrom), charge = 0, multiplicity = 1:

       Center              X                  Y                   Z               Mass
    ------------   -----------------  -----------------  -----------------  -----------------
         S            1.016966915988     0.013328683706    -0.719045698971    31.972071174400
         S           -1.684486084012    -1.145000316294     0.066172301029    31.972071174400
         O            1.160106315988    -1.328080716294    -1.282414998971    15.994914619570
         O            1.397418915988     1.234726683706    -1.423739698971    15.994914619570
         N            1.889749915988    -0.002572316294     0.707010301029    14.003074004430
         C           -0.674516084012     0.208167683706    -0.261623698971    12.000000000000
         C            1.881871915988     1.259214683706     1.450738301029    12.000000000000
         C            1.704822915988    -1.187671316294     1.548624301029    12.000000000000
         C           -1.322393084012     1.411631683706    -0.047237698971    12.000000000000
         C           -2.655843084012     1.220163683706     0.381712301029    12.000000000000
         C           -2.986859084012    -0.114458316294     0.496007301029    12.000000000000
         H            2.095631915988     2.079241683706     0.766473301029     1.007825032230
         H            2.677226915988     1.205710683706     2.197429301029     1.007825032230
         H            0.923150915988     1.435909683706     1.960010301029     1.007825032230
         H            1.740993915988    -2.079206316294     0.924155301029     1.007825032230
         H            0.758723915988    -1.160310316294     2.107987301029     1.007825032230
         H            2.535080915988    -1.219030316294     2.257968301029     1.007825032230
         H           -0.851807084012     2.370161683706    -0.239474698971     1.007825032230
         H           -3.353030084012     2.024719683706     0.591136301029     1.007825032230
         H           -3.938952084012    -0.542872316294     0.784956301029     1.007825032230

  Basis Set: AUG-CC-PVTZ
    Blend: AUG-CC-PVTZ
  Basis Set: (AUG-CC-PVTZ AUX)
    Blend: AUG-CC-PVTZ-JKFIT
	 Reference Energy          =   -1231.7890503705045830 [Eh]
	 Singles Energy            =      -0.0000000000000000 [Eh]
	 Same-Spin Energy          =      -0.5862193995357872 [Eh]
	 Opposite-Spin Energy      =      -1.7441346101744637 [Eh]
	 Correlation Energy        =      -2.3303540097102511 [Eh]
	 Total Energy              =   -1234.1194043802147462 [Eh]

	 ================> DF-SCS-MP2 Energies <==================
	-----------------------------------------------------------
	 SCS Same-Spin Scale       =       0.3333333333333333 [-]
	 SCS Opposite-Spin Scale   =       1.2000000000000000 [-]
	 SCS Same-Spin Energy      =      -0.1954064665119291 [Eh]
	 SCS Opposite-Spin Energy  =      -2.0929615322093564 [Eh]
	 SCS Correlation Energy    =      -2.2883679987212853 [Eh]
	 SCS Total Energy          =   -1234.0774183692258248 [Eh]
	-----------------------------------------------------------

  Dipole Moment: [D]
     X:    -2.6193      Y:     0.7663      Z:     4.7176     Total:     5.4501

*** Psi4 exiting successfully. Buy a developer a beer!
