                               Psi4 1.3.2 release

  ==> Input File <==

--------------------------------------------------------------------------
#psi4
#
memory 32 gb

molecule  {
0 1
  S        1.0053540    -0.0074810    -0.7736030
  S       -1.6960990    -1.1658100     0.0116150
  O        1.1339470    -1.3419000    -1.3567350
  O        1.3858060     1.2139170    -1.4782970
  N        1.8781370    -0.0233820     0.6524530
  C       -0.8035643     0.0300170    -0.2780662
  C        1.8702590     1.2384050     1.3961810
  C        1.6932100    -1.2084810     1.4940670
  C       -1.3340060     1.3908220    -0.1017950
  C       -2.6674560     1.1993540     0.3271550
  C       -2.9984720    -0.1352680     0.4414500
  H        2.0840190     2.0584320     0.7119160
  H        2.6656140     1.1849010     2.1428720
  H        0.9115380     1.4151000     1.9054530
  H        1.7293810    -2.1000160     0.8695980
  H        0.7471110    -1.1811200     2.0534300
  H        2.5234680    -1.2398400     2.2034110
  H       -0.8634200     2.3493520    -0.2940320
  H       -3.3646430     2.0039100     0.5365790
  H       -3.9505650    -0.5636820     0.7303990
units angstrom
no_reorient  #important for SAPT in psi4, default
symmetry c1  #important for SAPT in psi4, default
}

set PROPERTIES_ORIGIN ["COM"]
properties('MP2/aug-cc-pvtz', properties = ['dipole'])
--------------------------------------------------------------------------

    Molecular point group: c1
  Charge       = 0
  Multiplicity = 1
  Basis Set: AUG-CC-PVTZ
    Blend: AUG-CC-PVTZ
  Basis Set: (AUG-CC-PVTZ AUX)
    Blend: AUG-CC-PVTZ-JKFIT

    Orbital Energies [Eh]
    ---------------------

    Doubly Occupied:

       1A    -92.209674     2A    -92.019030     3A    -20.558558
       4A    -20.545053     5A    -15.608937     6A    -11.299849
       7A    -11.280939     8A    -11.272905     9A    -11.272602
      10A    -11.272430    11A    -11.262307    12A     -9.173105
      13A     -9.023921    14A     -6.858146    15A     -6.857838
      16A     -6.857358    17A     -6.705578    18A     -6.703766
      19A     -6.703161    20A     -1.454581    21A     -1.340944
      22A     -1.254015    23A     -1.223589    24A     -1.045600
      25A     -0.999314    26A     -0.983066    27A     -0.944051
      28A     -0.837747    29A     -0.784110    30A     -0.751866
      31A     -0.725951    32A     -0.704250    33A     -0.662525
      34A     -0.660106    35A     -0.623689    36A     -0.616081
      37A     -0.585648    38A     -0.580555    39A     -0.574247
      40A     -0.566089    41A     -0.562791    42A     -0.543409
      43A     -0.519743    44A     -0.503034    45A     -0.499576
      46A     -0.474900    47A     -0.456658    48A     -0.411941
      49A     -0.382172    50A     -0.333923

  @DF-RHF Final Energy: -1231.74094912732517

   => Energetics <=

    Nuclear Repulsion Energy =            893.1028204018199403
    One-Electron Energy =               -3469.5048881754150898
    Two-Electron Energy =                1344.6611186462700971
    Total Energy =                      -1231.7409491273251660
  Basis Set: (AUG-CC-PVTZ AUX)
    Blend: AUG-CC-PVTZ-RI
    Molecular point group: c1

    Geometry (in Angstrom), charge = 0, multiplicity = 1:

       Center              X                  Y                   Z               Mass
    ------------   -----------------  -----------------  -----------------  -----------------
         S            1.025562873091     0.022628221261    -0.719785329207    31.972071174400
         S           -1.675890126909    -1.135700778739     0.065432670793    31.972071174400
         O            1.154155873091    -1.311790778739    -1.302917329207    15.994914619570
         O            1.406014873091     1.244026221261    -1.424479329207    15.994914619570
         N            1.898345873091     0.006727221261     0.706270670793    14.003074004430
         C           -0.783355426909     0.060126221261    -0.224248529207    12.000000000000
         C            1.890467873091     1.268514221261     1.449998670793    12.000000000000
         C            1.713418873091    -1.178371778739     1.547884670793    12.000000000000
         C           -1.313797126909     1.420931221261    -0.047977329207    12.000000000000
         C           -2.647247126909     1.229463221261     0.380972670793    12.000000000000
         C           -2.978263126909    -0.105158778739     0.495267670793    12.000000000000
         H            2.104227873091     2.088541221261     0.765733670793     1.007825032230
         H            2.685822873091     1.215010221261     2.196689670793     1.007825032230
         H            0.931746873091     1.445209221261     1.959270670793     1.007825032230
         H            1.749589873091    -2.069906778739     0.923415670793     1.007825032230
         H            0.767319873091    -1.151010778739     2.107247670793     1.007825032230
         H            2.543676873091    -1.209730778739     2.257228670793     1.007825032230
         H           -0.843211126909     2.379461221261    -0.240214329207     1.007825032230
         H           -3.344434126909     2.034019221261     0.590396670793     1.007825032230
         H           -3.930356126909    -0.533572778739     0.784216670793     1.007825032230

  Basis Set: AUG-CC-PVTZ
    Blend: AUG-CC-PVTZ
  Basis Set: (AUG-CC-PVTZ AUX)
    Blend: AUG-CC-PVTZ-JKFIT
	 Reference Energy          =   -1231.7409491273251660 [Eh]
	 Singles Energy            =      -0.0000000000000000 [Eh]
	 Same-Spin Energy          =      -0.5902387274754379 [Eh]
	 Opposite-Spin Energy      =      -1.7482848901944898 [Eh]
	 Correlation Energy        =      -2.3385236176699280 [Eh]
	 Total Energy              =   -1234.0794727449952006 [Eh]

	 ================> DF-SCS-MP2 Energies <==================
	-----------------------------------------------------------
	 SCS Same-Spin Scale       =       0.3333333333333333 [-]
	 SCS Opposite-Spin Scale   =       1.2000000000000000 [-]
	 SCS Same-Spin Energy      =      -0.1967462424918126 [Eh]
	 SCS Opposite-Spin Energy  =      -2.0979418682333879 [Eh]
	 SCS Correlation Energy    =      -2.2946881107252004 [Eh]
	 SCS Total Energy          =   -1234.0356372380504126 [Eh]
	-----------------------------------------------------------

  Dipole Moment: [D]
     X:    -2.2704      Y:     0.6185      Z:     4.6983     Total:     5.2547

*** Psi4 exiting successfully. Buy a developer a beer!
