                               Psi4 1.3.2 release

  ==> Input File <==

--------------------------------------------------------------------------
#psi4
#
memory 32 gb

molecule  {
0 1
  S        1.0053540    -0.0074810    -0.7736030
  S       -1.6506223    -1.2020430    -0.0033377
  O        1.1339470    -1.3419000    -1.3567350
  O        1.3858060     1.2139170    -1.4782970
  N        1.8781370    -0.0233820     0.6524530
  C       -0.6861290     0.1873580    -0.3161810
  C        1.8702590     1.2384050     1.3961810
  C        1.6932100    -1.2084810     1.4940670
  C       -1.3340060     1.3908220    -0.1017950
  C       -2.6674560     1.1993540     0.3271550
  C       -2.9984720    -0.1352680     0.4414500
  H        2.0840190     2.0584320     0.7119160
  H        2.6656140     1.1849010     2.1428720
  H        0.9115380     1.4151000     1.9054530
  H        1.7293810    -2.1000160     0.8695980
  H        0.7471110    -1.1811200     2.0534300
  H        2.5234680    -1.2398400     2.2034110
  H       -0.8634200     2.3493520    -0.2940320
  H       -3.3646430     2.0039100     0.5365790
  H       -3.9505650    -0.5636820     0.7303990
units angstrom
no_reorient  #important for SAPT in psi4, default
symmetry c1  #important for SAPT in psi4, default
}

set PROPERTIES_ORIGIN ["COM"]
properties('MP2/aug-cc-pvtz', properties = ['dipole'])
--------------------------------------------------------------------------

    Molecular point group: c1
  Charge       = 0
  Multiplicity = 1
  Basis Set: AUG-CC-PVTZ
    Blend: AUG-CC-PVTZ
  Basis Set: (AUG-CC-PVTZ AUX)
    Blend: AUG-CC-PVTZ-JKFIT

    Orbital Energies [Eh]
    ---------------------

    Doubly Occupied:

       1A    -92.207501     2A    -92.017119     3A    -20.550114
       4A    -20.548698     5A    -15.606459     6A    -11.300376
       7A    -11.300084     8A    -11.277860     9A    -11.272030
      10A    -11.270532    11A    -11.266827    12A     -9.171825
      13A     -9.015471    14A     -6.856929    15A     -6.856652
      16A     -6.856296    17A     -6.696288    18A     -6.695628
      19A     -6.694959    20A     -1.455791    21A     -1.339929
      22A     -1.252753    23A     -1.194423    24A     -1.031994
      25A     -1.011361    26A     -0.981586    27A     -0.946151
      28A     -0.853393    29A     -0.787076    30A     -0.751855
      31A     -0.727189    32A     -0.703642    33A     -0.662067
      34A     -0.657758    35A     -0.625954    36A     -0.616190
      37A     -0.588612    38A     -0.579049    39A     -0.571914
      40A     -0.562040    41A     -0.545191    42A     -0.541861
      43A     -0.509145    44A     -0.501272    45A     -0.496880
      46A     -0.472703    47A     -0.467166    48A     -0.416814
      49A     -0.374510    50A     -0.351728

  @DF-RHF Final Energy: -1231.78632608488942

   => Energetics <=

    Nuclear Repulsion Energy =            891.9308104966258952
    One-Electron Energy =               -3467.3549827585156891
    Two-Electron Energy =                1343.6378461770004833
    Total Energy =                      -1231.7863260848894242
  Basis Set: (AUG-CC-PVTZ AUX)
    Blend: AUG-CC-PVTZ-RI
    Molecular point group: c1

    Geometry (in Angstrom), charge = 0, multiplicity = 1:

       Center              X                  Y                   Z               Mass
    ------------   -----------------  -----------------  -----------------  -----------------
         S            1.010572842199     0.018808224369    -0.714887895697    31.972071174400
         S           -1.645403457801    -1.175753775631     0.055377404303    31.972071174400
         O            1.139165842199    -1.315610775631    -1.298019895697    15.994914619570
         O            1.391024842199     1.240206224369    -1.419581895697    15.994914619570
         N            1.883355842199     0.002907224369     0.711168104303    14.003074004430
         C           -0.680910157801     0.213647224369    -0.257465895697    12.000000000000
         C            1.875477842199     1.264694224369     1.454896104303    12.000000000000
         C            1.698428842199    -1.182191775631     1.552782104303    12.000000000000
         C           -1.328787157801     1.417111224369    -0.043079895697    12.000000000000
         C           -2.662237157801     1.225643224369     0.385870104303    12.000000000000
         C           -2.993253157801    -0.108978775631     0.500165104303    12.000000000000
         H            2.089237842199     2.084721224369     0.770631104303     1.007825032230
         H            2.670832842199     1.211190224369     2.201587104303     1.007825032230
         H            0.916756842199     1.441389224369     1.964168104303     1.007825032230
         H            1.734599842199    -2.073726775631     0.928313104303     1.007825032230
         H            0.752329842199    -1.154830775631     2.112145104303     1.007825032230
         H            2.528686842199    -1.213550775631     2.262126104303     1.007825032230
         H           -0.858201157801     2.375641224369    -0.235316895697     1.007825032230
         H           -3.359424157801     2.030199224369     0.595294104303     1.007825032230
         H           -3.945346157801    -0.537392775631     0.789114104303     1.007825032230

  Basis Set: AUG-CC-PVTZ
    Blend: AUG-CC-PVTZ
  Basis Set: (AUG-CC-PVTZ AUX)
    Blend: AUG-CC-PVTZ-JKFIT
	 Reference Energy          =   -1231.7863260848894242 [Eh]
	 Singles Energy            =      -0.0000000000000000 [Eh]
	 Same-Spin Energy          =      -0.5858838163750608 [Eh]
	 Opposite-Spin Energy      =      -1.7449941559940825 [Eh]
	 Correlation Energy        =      -2.3308779723691435 [Eh]
	 Total Energy              =   -1234.1172040572585047 [Eh]

	 ================> DF-SCS-MP2 Energies <==================
	-----------------------------------------------------------
	 SCS Same-Spin Scale       =       0.3333333333333333 [-]
	 SCS Opposite-Spin Scale   =       1.2000000000000000 [-]
	 SCS Same-Spin Energy      =      -0.1952946054583536 [Eh]
	 SCS Opposite-Spin Energy  =      -2.0939929871928991 [Eh]
	 SCS Correlation Energy    =      -2.2892875926512528 [Eh]
	 SCS Total Energy          =   -1234.0756136775407867 [Eh]
	-----------------------------------------------------------

  Dipole Moment: [D]
     X:    -2.5648      Y:     0.7746      Z:     4.7624     Total:     5.4643

*** Psi4 exiting successfully. Buy a developer a beer!
