                               Psi4 1.3.2 release

  ==> Input File <==

--------------------------------------------------------------------------
#psi4
#
memory 32 gb

molecule  {
0 1
  S        1.0053540    -0.0074810    -0.7736030
  S       -1.6960990    -1.1658100     0.0116150
  O        1.1836430    -1.3329307    -1.3640682
  O        1.3858060     1.2139170    -1.4782970
  N        1.8781370    -0.0233820     0.6524530
  C       -0.6861290     0.1873580    -0.3161810
  C        1.8702590     1.2384050     1.3961810
  C        1.6932100    -1.2084810     1.4940670
  C       -1.3340060     1.3908220    -0.1017950
  C       -2.6674560     1.1993540     0.3271550
  C       -2.9984720    -0.1352680     0.4414500
  H        2.0840190     2.0584320     0.7119160
  H        2.6656140     1.1849010     2.1428720
  H        0.9115380     1.4151000     1.9054530
  H        1.7293810    -2.1000160     0.8695980
  H        0.7471110    -1.1811200     2.0534300
  H        2.5234680    -1.2398400     2.2034110
  H       -0.8634200     2.3493520    -0.2940320
  H       -3.3646430     2.0039100     0.5365790
  H       -3.9505650    -0.5636820     0.7303990
units angstrom
no_reorient  #important for SAPT in psi4, default
symmetry c1  #important for SAPT in psi4, default
}

set PROPERTIES_ORIGIN ["COM"]
properties('MP2/aug-cc-pvtz', properties = ['dipole'])
--------------------------------------------------------------------------

    Molecular point group: c1
  Charge       = 0
  Multiplicity = 1
  Basis Set: AUG-CC-PVTZ
    Blend: AUG-CC-PVTZ
  Basis Set: (AUG-CC-PVTZ AUX)
    Blend: AUG-CC-PVTZ-JKFIT

    Orbital Energies [Eh]
    ---------------------

    Doubly Occupied:

       1A    -92.207592     2A    -92.017484     3A    -20.548910
       4A    -20.547495     5A    -15.605255     6A    -11.300773
       7A    -11.297012     8A    -11.278772     9A    -11.271290
      10A    -11.270245    11A    -11.265525    12A     -9.171826
      13A     -9.017007    14A     -6.856954    15A     -6.856646
      16A     -6.856309    17A     -6.697849    18A     -6.697318
      19A     -6.696558    20A     -1.455034    21A     -1.337906
      22A     -1.251855    23A     -1.202764    24A     -1.033135
      25A     -1.018602    26A     -0.981109    27A     -0.945748
      28A     -0.854197    29A     -0.787884    30A     -0.753598
      31A     -0.727889    32A     -0.703064    33A     -0.661084
      34A     -0.658737    35A     -0.628375    36A     -0.615275
      37A     -0.589507    38A     -0.578845    39A     -0.571792
      40A     -0.564748    41A     -0.550824    42A     -0.541241
      43A     -0.510138    44A     -0.500928    45A     -0.496095
      46A     -0.471409    47A     -0.467881    48A     -0.417194
      49A     -0.373662    50A     -0.355299

  @DF-RHF Final Energy: -1231.78927510361086

   => Energetics <=

    Nuclear Repulsion Energy =            892.0339402624441618
    One-Electron Energy =               -3467.5131464436390161
    Two-Electron Energy =                1343.6899310775841059
    Total Energy =                      -1231.7892751036108621
  Basis Set: (AUG-CC-PVTZ AUX)
    Blend: AUG-CC-PVTZ-RI
    Molecular point group: c1

    Geometry (in Angstrom), charge = 0, multiplicity = 1:

       Center              X                  Y                   Z               Mass
    ------------   -----------------  -----------------  -----------------  -----------------
         S            1.014023497868     0.011992222688    -0.716776695538    31.972071174400
         S           -1.687429502132    -1.146336777312     0.068441304462    31.972071174400
         O            1.192312497868    -1.313457477312    -1.307241895538    15.994914619570
         O            1.394475497868     1.233390222688    -1.421470695538    15.994914619570
         N            1.886806497868    -0.003908777312     0.709279304462    14.003074004430
         C           -0.677459502132     0.206831222688    -0.259354695538    12.000000000000
         C            1.878928497868     1.257878222688     1.453007304462    12.000000000000
         C            1.701879497868    -1.189007777312     1.550893304462    12.000000000000
         C           -1.325336502132     1.410295222688    -0.044968695538    12.000000000000
         C           -2.658786502132     1.218827222688     0.383981304462    12.000000000000
         C           -2.989802502132    -0.115794777312     0.498276304462    12.000000000000
         H            2.092688497868     2.077905222688     0.768742304462     1.007825032230
         H            2.674283497868     1.204374222688     2.199698304462     1.007825032230
         H            0.920207497868     1.434573222688     1.962279304462     1.007825032230
         H            1.738050497868    -2.080542777312     0.926424304462     1.007825032230
         H            0.755780497868    -1.161646777312     2.110256304462     1.007825032230
         H            2.532137497868    -1.220366777312     2.260237304462     1.007825032230
         H           -0.854750502132     2.368825222688    -0.237205695538     1.007825032230
         H           -3.355973502132     2.023383222688     0.593405304462     1.007825032230
         H           -3.941895502132    -0.544208777312     0.787225304462     1.007825032230

  Basis Set: AUG-CC-PVTZ
    Blend: AUG-CC-PVTZ
  Basis Set: (AUG-CC-PVTZ AUX)
    Blend: AUG-CC-PVTZ-JKFIT
	 Reference Energy          =   -1231.7892751036108621 [Eh]
	 Singles Energy            =      -0.0000000000000000 [Eh]
	 Same-Spin Energy          =      -0.5860916068286359 [Eh]
	 Opposite-Spin Energy      =      -1.7439171845646571 [Eh]
	 Correlation Energy        =      -2.3300087913932930 [Eh]
	 Total Energy              =   -1234.1192838950041732 [Eh]

	 ================> DF-SCS-MP2 Energies <==================
	-----------------------------------------------------------
	 SCS Same-Spin Scale       =       0.3333333333333333 [-]
	 SCS Opposite-Spin Scale   =       1.2000000000000000 [-]
	 SCS Same-Spin Energy      =      -0.1953638689428786 [Eh]
	 SCS Opposite-Spin Energy  =      -2.0927006214775883 [Eh]
	 SCS Correlation Energy    =      -2.2880644904204668 [Eh]
	 SCS Total Energy          =   -1234.0773395940314003 [Eh]
	-----------------------------------------------------------

  Dipole Moment: [D]
     X:    -2.7324      Y:     0.7384      Z:     4.7927     Total:     5.5661

*** Psi4 exiting successfully. Buy a developer a beer!
