                               Psi4 1.3.2 release

  ==> Input File <==

--------------------------------------------------------------------------
#psi4
#
memory 32 gb

molecule  {
0 1
  S        1.0053540    -0.0074810    -0.7736030
  S       -1.6960990    -1.1658100     0.0116150
  O        1.1339470    -1.3419000    -1.3567350
  O        1.3858060     1.2139170    -1.4782970
  N        1.8781370    -0.0233820     0.6524530
  C       -0.5686937     0.3446990    -0.3542958
  C        1.8702590     1.2384050     1.3961810
  C        1.6932100    -1.2084810     1.4940670
  C       -1.3340060     1.3908220    -0.1017950
  C       -2.6674560     1.1993540     0.3271550
  C       -2.9984720    -0.1352680     0.4414500
  H        2.0840190     2.0584320     0.7119160
  H        2.6656140     1.1849010     2.1428720
  H        0.9115380     1.4151000     1.9054530
  H        1.7293810    -2.1000160     0.8695980
  H        0.7471110    -1.1811200     2.0534300
  H        2.5234680    -1.2398400     2.2034110
  H       -0.8634200     2.3493520    -0.2940320
  H       -3.3646430     2.0039100     0.5365790
  H       -3.9505650    -0.5636820     0.7303990
units angstrom
no_reorient  #important for SAPT in psi4, default
symmetry c1  #important for SAPT in psi4, default
}

set PROPERTIES_ORIGIN ["COM"]
properties('MP2/aug-cc-pvtz', properties = ['dipole'])
--------------------------------------------------------------------------

    Molecular point group: c1
  Charge       = 0
  Multiplicity = 1
  Basis Set: AUG-CC-PVTZ
    Blend: AUG-CC-PVTZ
  Basis Set: (AUG-CC-PVTZ AUX)
    Blend: AUG-CC-PVTZ-JKFIT

    Orbital Energies [Eh]
    ---------------------

    Doubly Occupied:

       1A    -92.209008     2A    -92.007003     3A    -20.556722
       4A    -20.542882     5A    -15.606419     6A    -11.305768
       7A    -11.300392     8A    -11.282289     9A    -11.272660
      10A    -11.269908    11A    -11.265552    12A     -9.174265
      13A     -9.004893    14A     -6.859654    15A     -6.859199
      16A     -6.858609    17A     -6.685645    18A     -6.684880
      19A     -6.684295    20A     -1.460338    21A     -1.341650
      22A     -1.253530    23A     -1.192587    24A     -1.053793
      25A     -1.006856    26A     -0.981724    27A     -0.948631
      28A     -0.870330    29A     -0.793769    30A     -0.751045
      31A     -0.728173    32A     -0.705489    33A     -0.663766
      34A     -0.659270    35A     -0.637810    36A     -0.617970
      37A     -0.596735    38A     -0.580705    39A     -0.571978
      40A     -0.546991    41A     -0.542851    42A     -0.541314
      43A     -0.514929    44A     -0.499899    45A     -0.488109
      46A     -0.474457    47A     -0.453207    48A     -0.420800
      49A     -0.383262    50A     -0.351633

  @DF-RHF Final Energy: -1231.76243859205306

   => Energetics <=

    Nuclear Repulsion Energy =            892.3573317877591080
    One-Electron Energy =               -3468.1122549709184568
    Two-Electron Energy =                1343.9924845911064040
    Total Energy =                      -1231.7624385920530585
  Basis Set: (AUG-CC-PVTZ AUX)
    Blend: AUG-CC-PVTZ-RI
    Molecular point group: c1

    Geometry (in Angstrom), charge = 0, multiplicity = 1:

       Center              X                  Y                   Z               Mass
    ------------   -----------------  -----------------  -----------------  -----------------
         S            1.010807182191     0.002858397691    -0.714996222290    31.972071174400
         S           -1.690645817809    -1.155470602309     0.070221777710    31.972071174400
         O            1.139400182191    -1.331560602309    -1.298128222290    15.994914619570
         O            1.391259182191     1.224256397691    -1.419690222290    15.994914619570
         N            1.883590182191    -0.013042602309     0.711059777710    14.003074004430
         C           -0.563240517809     0.355038397691    -0.295689022290    12.000000000000
         C            1.875712182191     1.248744397691     1.454787777710    12.000000000000
         C            1.698663182191    -1.198141602309     1.552673777710    12.000000000000
         C           -1.328552817809     1.401161397691    -0.043188222290    12.000000000000
         C           -2.662002817809     1.209693397691     0.385761777710    12.000000000000
         C           -2.993018817809    -0.124928602309     0.500056777710    12.000000000000
         H            2.089472182191     2.068771397691     0.770522777710     1.007825032230
         H            2.671067182191     1.195240397691     2.201478777710     1.007825032230
         H            0.916991182191     1.425439397691     1.964059777710     1.007825032230
         H            1.734834182191    -2.089676602309     0.928204777710     1.007825032230
         H            0.752564182191    -1.170780602309     2.112036777710     1.007825032230
         H            2.528921182191    -1.229500602309     2.262017777710     1.007825032230
         H           -0.857966817809     2.359691397691    -0.235425222290     1.007825032230
         H           -3.359189817809     2.014249397691     0.595185777710     1.007825032230
         H           -3.945111817809    -0.553342602309     0.789005777710     1.007825032230

  Basis Set: AUG-CC-PVTZ
    Blend: AUG-CC-PVTZ
  Basis Set: (AUG-CC-PVTZ AUX)
    Blend: AUG-CC-PVTZ-JKFIT
	 Reference Energy          =   -1231.7624385920530585 [Eh]
	 Singles Energy            =      -0.0000000000000000 [Eh]
	 Same-Spin Energy          =      -0.5854796716562451 [Eh]
	 Opposite-Spin Energy      =      -1.7450674622274749 [Eh]
	 Correlation Energy        =      -2.3305471338837203 [Eh]
	 Total Energy              =   -1234.0929857259368418 [Eh]

	 ================> DF-SCS-MP2 Energies <==================
	-----------------------------------------------------------
	 SCS Same-Spin Scale       =       0.3333333333333333 [-]
	 SCS Opposite-Spin Scale   =       1.2000000000000000 [-]
	 SCS Same-Spin Energy      =      -0.1951598905520817 [Eh]
	 SCS Opposite-Spin Energy  =      -2.0940809546729700 [Eh]
	 SCS Correlation Energy    =      -2.2892408452250517 [Eh]
	 SCS Total Energy          =   -1234.0516794372781533 [Eh]
	-----------------------------------------------------------

  Dipole Moment: [D]
     X:    -2.6070      Y:     0.9375      Z:     4.7929     Total:     5.5360

*** Psi4 exiting successfully. Buy a developer a beer!
