                               Psi4 1.4a3.dev225

  ==> Input File <==

--------------------------------------------------------------------------
#psi4
#
memory 32 gb

molecule  {
0 1
  S        1.0053540    -0.0074810    -0.7736030
  S       -1.6960990    -1.1658100     0.0116150
  O        1.1339470    -1.3419000    -1.3567350
  O        1.3858060     1.2139170    -1.4782970
  N        1.8885769    -0.0235722     0.6695109
  C       -0.6861290     0.1873580    -0.3161810
  C        1.8702590     1.2384050     1.3961810
  C        1.6932100    -1.2084810     1.4940670
  C       -1.3340060     1.3908220    -0.1017950
  C       -2.6674560     1.1993540     0.3271550
  C       -2.9984720    -0.1352680     0.4414500
  H        2.0840190     2.0584320     0.7119160
  H        2.6656140     1.1849010     2.1428720
  H        0.9115380     1.4151000     1.9054530
  H        1.7293810    -2.1000160     0.8695980
  H        0.7471110    -1.1811200     2.0534300
  H        2.5234680    -1.2398400     2.2034110
  H       -0.8634200     2.3493520    -0.2940320
  H       -3.3646430     2.0039100     0.5365790
  H       -3.9505650    -0.5636820     0.7303990
units angstrom
no_reorient  #important for SAPT in psi4, default
symmetry c1  #important for SAPT in psi4, default
}

set PROPERTIES_ORIGIN ["COM"]
properties('MP2/aug-cc-pvtz', properties = ['dipole'])
--------------------------------------------------------------------------

    Molecular point group: c1
  Charge       = 0
  Multiplicity = 1
  Basis Set: AUG-CC-PVTZ
    Blend: AUG-CC-PVTZ
  Basis Set: (AUG-CC-PVTZ AUX)
    Blend: AUG-CC-PVTZ-JKFIT

    Orbital Energies [Eh]
    ---------------------

    Doubly Occupied:

       1A    -92.208687     2A    -92.016516     3A    -20.550781
       4A    -20.550347     5A    -15.606441     6A    -11.299308
       7A    -11.296122     8A    -11.277697     9A    -11.270661
      10A    -11.269265    11A    -11.264632    12A     -9.172831
      13A     -9.016021    14A     -6.857881    15A     -6.857657
      16A     -6.857284    17A     -6.696857    18A     -6.696329
      19A     -6.695568    20A     -1.455345    21A     -1.340568
      22A     -1.253081    23A     -1.201765    24A     -1.031901
      25A     -1.017655    26A     -0.983002    27A     -0.942553
      28A     -0.852771    29A     -0.786992    30A     -0.754089
      31A     -0.727775    32A     -0.704494    33A     -0.661433
      34A     -0.658936    35A     -0.628467    36A     -0.617365
      37A     -0.588755    38A     -0.578472    39A     -0.571749
      40A     -0.564401    41A     -0.549667    42A     -0.544264
      43A     -0.509641    44A     -0.500574    45A     -0.498107
      46A     -0.473761    47A     -0.467160    48A     -0.415051
      49A     -0.372722    50A     -0.354608

  @DF-RHF Final Energy: -1231.78824585771031

   => Energetics <=

    Nuclear Repulsion Energy =            891.9571541155870591
    One-Electron Energy =               -3467.3547839359389400
    Two-Electron Energy =                1343.6093839626416866
    Total Energy =                      -1231.7882458577103080
  Basis Set: (AUG-CC-PVTZ AUX)
    Blend: AUG-CC-PVTZ-RI
    Molecular point group: c1

    Geometry (in Angstrom), charge = 0, multiplicity = 1:

       Center              X                  Y                   Z               Mass
    ------------   -----------------  -----------------  -----------------  -----------------
         S            1.017419661283     0.012757253353    -0.718641318646    31.972071174400
         S           -1.684033338717    -1.145571746647     0.066576681354    31.972071174400
         O            1.146012661283    -1.321661746647    -1.301773318646    15.994914619570
         O            1.397871661283     1.234155253353    -1.423335318646    15.994914619570
         N            1.900642561283    -0.003333946647     0.724472581354    14.003074004430
         C           -0.674063338717     0.207596253353    -0.261219318646    12.000000000000
         C            1.882324661283     1.258643253353     1.451142681354    12.000000000000
         C            1.705275661283    -1.188242746647     1.549028681354    12.000000000000
         C           -1.321940338717     1.411060253353    -0.046833318646    12.000000000000
         C           -2.655390338717     1.219592253353     0.382116681354    12.000000000000
         C           -2.986406338717    -0.115029746647     0.496411681354    12.000000000000
         H            2.096084661283     2.078670253353     0.766877681354     1.007825032230
         H            2.677679661283     1.205139253353     2.197833681354     1.007825032230
         H            0.923603661283     1.435338253353     1.960414681354     1.007825032230
         H            1.741446661283    -2.079777746647     0.924559681354     1.007825032230
         H            0.759176661283    -1.160881746647     2.108391681354     1.007825032230
         H            2.535533661283    -1.219601746647     2.258372681354     1.007825032230
         H           -0.851354338717     2.369590253353    -0.239070318646     1.007825032230
         H           -3.352577338717     2.024148253353     0.591540681354     1.007825032230
         H           -3.938499338717    -0.543443746647     0.785360681354     1.007825032230

  Basis Set: AUG-CC-PVTZ
    Blend: AUG-CC-PVTZ
  Basis Set: (AUG-CC-PVTZ AUX)
    Blend: AUG-CC-PVTZ-JKFIT
	 Reference Energy          =   -1231.7882458577103080 [Eh]
	 Singles Energy            =      -0.0000000000000000 [Eh]
	 Same-Spin Energy          =      -0.5863467907644526 [Eh]
	 Opposite-Spin Energy      =      -1.7444107177786339 [Eh]
	 Correlation Energy        =      -2.3307575085430865 [Eh]
	 Total Energy              =   -1234.1190033662533097 [Eh]

	 ================> DF-SCS-MP2 Energies <==================
	-----------------------------------------------------------
	 SCS Same-Spin Scale       =       0.3333333333333333 [-]
	 SCS Opposite-Spin Scale   =       1.2000000000000000 [-]
	 SCS Same-Spin Energy      =      -0.1954489302548175 [Eh]
	 SCS Opposite-Spin Energy  =      -2.0932928613343607 [Eh]
	 SCS Correlation Energy    =      -2.2887417915891781 [Eh]
	 SCS Total Energy          =   -1234.0769876492995536 [Eh]
	-----------------------------------------------------------

  Dipole Moment: [D]
     X:    -2.6376      Y:     0.7508      Z:     4.6866     Total:     5.4299

*** Psi4 exiting successfully. Buy a developer a beer!
