                               Psi4 1.3.2 release

  ==> Input File <==

--------------------------------------------------------------------------
#psi4
#
memory 32 gb

molecule  {
0 1
  S        1.0053540    -0.0074810    -0.7736030
  S       -1.6960990    -1.1658100     0.0116150
  O        1.1150409    -1.3615871    -1.3136201
  O        1.3858060     1.2139170    -1.4782970
  N        1.8781370    -0.0233820     0.6524530
  C       -0.6861290     0.1873580    -0.3161810
  C        1.8702590     1.2384050     1.3961810
  C        1.6932100    -1.2084810     1.4940670
  C       -1.3340060     1.3908220    -0.1017950
  C       -2.6674560     1.1993540     0.3271550
  C       -2.9984720    -0.1352680     0.4414500
  H        2.0840190     2.0584320     0.7119160
  H        2.6656140     1.1849010     2.1428720
  H        0.9115380     1.4151000     1.9054530
  H        1.7293810    -2.1000160     0.8695980
  H        0.7471110    -1.1811200     2.0534300
  H        2.5234680    -1.2398400     2.2034110
  H       -0.8634200     2.3493520    -0.2940320
  H       -3.3646430     2.0039100     0.5365790
  H       -3.9505650    -0.5636820     0.7303990
units angstrom
no_reorient  #important for SAPT in psi4, default
symmetry c1  #important for SAPT in psi4, default
}

set PROPERTIES_ORIGIN ["COM"]
properties('MP2/aug-cc-pvtz', properties = ['dipole'])
--------------------------------------------------------------------------

    Molecular point group: c1
  Charge       = 0
  Multiplicity = 1
  Basis Set: AUG-CC-PVTZ
    Blend: AUG-CC-PVTZ
  Basis Set: (AUG-CC-PVTZ AUX)
    Blend: AUG-CC-PVTZ-JKFIT

    Orbital Energies [Eh]
    ---------------------

    Doubly Occupied:

       1A    -92.208966     2A    -92.015344     3A    -20.552527
       4A    -20.550158     5A    -15.605537     6A    -11.297609
       7A    -11.294868     8A    -11.276271     9A    -11.271441
      10A    -11.269483    11A    -11.263590    12A     -9.173047
      13A     -9.014831    14A     -6.858173    15A     -6.857941
      16A     -6.857497    17A     -6.695662    18A     -6.695136
      19A     -6.694376    20A     -1.456826    21A     -1.343022
      22A     -1.251570    23A     -1.200498    24A     -1.030506
      25A     -1.016474    26A     -0.980843    27A     -0.945428
      28A     -0.852900    29A     -0.785837    30A     -0.753238
      31A     -0.727266    32A     -0.704769    33A     -0.662650
      34A     -0.658097    35A     -0.627326    36A     -0.617038
      37A     -0.587811    38A     -0.578381    39A     -0.571514
      40A     -0.563832    41A     -0.548834    42A     -0.541215
      43A     -0.509286    44A     -0.501133    45A     -0.499329
      46A     -0.475296    47A     -0.467594    48A     -0.416616
      49A     -0.371664    50A     -0.353360

  @DF-RHF Final Energy: -1231.78840914700345

   => Energetics <=

    Nuclear Repulsion Energy =            893.0178449143983244
    One-Electron Energy =               -3469.5072853469446272
    Two-Electron Energy =                1344.7010312855429675
    Total Energy =                      -1231.7884091470034491
  Basis Set: (AUG-CC-PVTZ AUX)
    Blend: AUG-CC-PVTZ-RI
    Molecular point group: c1

    Geometry (in Angstrom), charge = 0, multiplicity = 1:

       Center              X                  Y                   Z               Mass
    ------------   -----------------  -----------------  -----------------  -----------------
         S            1.019768219408     0.014391901974    -0.721001205965    31.972071174400
         S           -1.681684780592    -1.143937098026     0.064216794035    31.972071174400
         O            1.129455119408    -1.339714198026    -1.261018305965    15.994914619570
         O            1.400220219408     1.235789901974    -1.425695205965    15.994914619570
         N            1.892551219408    -0.001509098026     0.705054794035    14.003074004430
         C           -0.671714780592     0.209230901974    -0.263579205965    12.000000000000
         C            1.884673219408     1.260277901974     1.448782794035    12.000000000000
         C            1.707624219408    -1.186608098026     1.546668794035    12.000000000000
         C           -1.319591780592     1.412694901974    -0.049193205965    12.000000000000
         C           -2.653041780592     1.221226901974     0.379756794035    12.000000000000
         C           -2.984057780592    -0.113395098026     0.494051794035    12.000000000000
         H            2.098433219408     2.080304901974     0.764517794035     1.007825032230
         H            2.680028219408     1.206773901974     2.195473794035     1.007825032230
         H            0.925952219408     1.436972901974     1.958054794035     1.007825032230
         H            1.743795219408    -2.078143098026     0.922199794035     1.007825032230
         H            0.761525219408    -1.159247098026     2.106031794035     1.007825032230
         H            2.537882219408    -1.217967098026     2.256012794035     1.007825032230
         H           -0.849005780592     2.371224901974    -0.241430205965     1.007825032230
         H           -3.350228780592     2.025782901974     0.589180794035     1.007825032230
         H           -3.936150780592    -0.541809098026     0.783000794035     1.007825032230

  Basis Set: AUG-CC-PVTZ
    Blend: AUG-CC-PVTZ
  Basis Set: (AUG-CC-PVTZ AUX)
    Blend: AUG-CC-PVTZ-JKFIT
	 Reference Energy          =   -1231.7884091470034491 [Eh]
	 Singles Energy            =      -0.0000000000000000 [Eh]
	 Same-Spin Energy          =      -0.5863531078523075 [Eh]
	 Opposite-Spin Energy      =      -1.7443707077162900 [Eh]
	 Correlation Energy        =      -2.3307238155685974 [Eh]
	 Total Energy              =   -1234.1191329625719391 [Eh]

	 ================> DF-SCS-MP2 Energies <==================
	-----------------------------------------------------------
	 SCS Same-Spin Scale       =       0.3333333333333333 [-]
	 SCS Opposite-Spin Scale   =       1.2000000000000000 [-]
	 SCS Same-Spin Energy      =      -0.1954510359507692 [Eh]
	 SCS Opposite-Spin Energy  =      -2.0932448492595479 [Eh]
	 SCS Correlation Energy    =      -2.2886958852103172 [Eh]
	 SCS Total Energy          =   -1234.0771050322136944 [Eh]
	-----------------------------------------------------------

  Dipole Moment: [D]
     X:    -2.5096      Y:     0.7876      Z:     4.6525     Total:     5.3446

*** Psi4 exiting successfully. Buy a developer a beer!
