                               Psi4 1.4a3.dev225

  ==> Input File <==

--------------------------------------------------------------------------
#psi4
#
memory 32 gb

molecule  {
0 1
  S        1.0053540    -0.0074810    -0.7736030
  S       -1.6960990    -1.1658100     0.0116150
  O        1.1339470    -1.3419000    -1.3567350
  O        1.3858060     1.2139170    -1.4782970
  N        1.8781370    -0.0233820     0.6524530
  C       -0.6861290     0.1873580    -0.3161810
  C        1.8702590     1.2384050     1.3961810
  C        1.6932100    -1.2084810     1.4940670
  C       -1.3340060     1.3908220    -0.1017950
  C       -2.6674560     1.1993540     0.3271550
  C       -3.0136556    -0.1232535     0.4464612
  H        2.0840190     2.0584320     0.7119160
  H        2.6656140     1.1849010     2.1428720
  H        0.9115380     1.4151000     1.9054530
  H        1.7293810    -2.1000160     0.8695980
  H        0.7471110    -1.1811200     2.0534300
  H        2.5234680    -1.2398400     2.2034110
  H       -0.8634200     2.3493520    -0.2940320
  H       -3.3646430     2.0039100     0.5365790
  H       -3.9505650    -0.5636820     0.7303990
units angstrom
no_reorient  #important for SAPT in psi4, default
symmetry c1  #important for SAPT in psi4, default
}

set PROPERTIES_ORIGIN ["COM"]
properties('MP2/aug-cc-pvtz', properties = ['dipole'])
--------------------------------------------------------------------------

    Molecular point group: c1
  Charge       = 0
  Multiplicity = 1
  Basis Set: AUG-CC-PVTZ
    Blend: AUG-CC-PVTZ
  Basis Set: (AUG-CC-PVTZ AUX)
    Blend: AUG-CC-PVTZ-JKFIT

    Orbital Energies [Eh]
    ---------------------

    Doubly Occupied:

       1A    -92.208608     2A    -92.014919     3A    -20.550001
       4A    -20.549624     5A    -15.606846     6A    -11.299647
       7A    -11.295396     8A    -11.277236     9A    -11.272236
      10A    -11.270743    11A    -11.264293    12A     -9.172774
      13A     -9.014146    14A     -6.857894    15A     -6.857625
      16A     -6.857246    17A     -6.694976    18A     -6.694433
      19A     -6.693693    20A     -1.456058    21A     -1.340178
      22A     -1.253055    23A     -1.199714    24A     -1.032958
      25A     -1.014519    26A     -0.981832    27A     -0.946891
      28A     -0.854401    29A     -0.787803    30A     -0.753330
      31A     -0.727628    32A     -0.704012    33A     -0.662292
      34A     -0.658975    35A     -0.628334    36A     -0.616496
      37A     -0.592280    38A     -0.579411    39A     -0.572120
      40A     -0.562344    41A     -0.548562    42A     -0.542025
      43A     -0.508189    44A     -0.499306    45A     -0.497646
      46A     -0.473191    47A     -0.468184    48A     -0.417646
      49A     -0.372146    50A     -0.354803

  @DF-RHF Final Energy: -1231.78921920139123

   => Energetics <=

    Nuclear Repulsion Energy =            892.0521860352555450
    One-Electron Energy =               -3467.5654799607641507
    Two-Electron Energy =                1343.7240747241173722
    Total Energy =                      -1231.7892192013912336
  Basis Set: (AUG-CC-PVTZ AUX)
    Blend: AUG-CC-PVTZ-RI
    Molecular point group: c1

    Geometry (in Angstrom), charge = 0, multiplicity = 1:

       Center              X                  Y                   Z               Mass
    ------------   -----------------  -----------------  -----------------  -----------------
         S            1.019138933785     0.011988501303    -0.717705603225    31.972071174400
         S           -1.682314066215    -1.146340498697     0.067512396775    31.972071174400
         O            1.147731933785    -1.322430498697    -1.300837603225    15.994914619570
         O            1.399590933785     1.233386501303    -1.422399603225    15.994914619570
         N            1.891921933785    -0.003912498697     0.708350396775    14.003074004430
         C           -0.672344066215     0.206827501303    -0.260283603225    12.000000000000
         C            1.884043933785     1.257874501303     1.452078396775    12.000000000000
         C            1.706994933785    -1.189011498697     1.549964396775    12.000000000000
         C           -1.320221066215     1.410291501303    -0.045897603225    12.000000000000
         C           -2.653671066215     1.218823501303     0.383052396775    12.000000000000
         C           -2.999870666215    -0.103783998697     0.502358596775    12.000000000000
         H            2.097803933785     2.077901501303     0.767813396775     1.007825032230
         H            2.679398933785     1.204370501303     2.198769396775     1.007825032230
         H            0.925322933785     1.434569501303     1.961350396775     1.007825032230
         H            1.743165933785    -2.080546498697     0.925495396775     1.007825032230
         H            0.760895933785    -1.161650498697     2.109327396775     1.007825032230
         H            2.537252933785    -1.220370498697     2.259308396775     1.007825032230
         H           -0.849635066215     2.368821501303    -0.238134603225     1.007825032230
         H           -3.350858066215     2.023379501303     0.592476396775     1.007825032230
         H           -3.936780066215    -0.544212498697     0.786296396775     1.007825032230

  Basis Set: AUG-CC-PVTZ
    Blend: AUG-CC-PVTZ
  Basis Set: (AUG-CC-PVTZ AUX)
    Blend: AUG-CC-PVTZ-JKFIT
	 Reference Energy          =   -1231.7892192013912336 [Eh]
	 Singles Energy            =      -0.0000000000000000 [Eh]
	 Same-Spin Energy          =      -0.5859125170559122 [Eh]
	 Opposite-Spin Energy      =      -1.7440188309887876 [Eh]
	 Correlation Energy        =      -2.3299313480446999 [Eh]
	 Total Energy              =   -1234.1191505494359717 [Eh]

	 ================> DF-SCS-MP2 Energies <==================
	-----------------------------------------------------------
	 SCS Same-Spin Scale       =       0.3333333333333333 [-]
	 SCS Opposite-Spin Scale   =       1.2000000000000000 [-]
	 SCS Same-Spin Energy      =      -0.1953041723519707 [Eh]
	 SCS Opposite-Spin Energy  =      -2.0928225971865451 [Eh]
	 SCS Correlation Energy    =      -2.2881267695385157 [Eh]
	 SCS Total Energy          =   -1234.0773459709298550 [Eh]
	-----------------------------------------------------------

  Dipole Moment: [D]
     X:    -2.5669      Y:     0.7721      Z:     4.7728     Total:     5.4740

*** Psi4 exiting successfully. Buy a developer a beer!
