                               Psi4 1.4a3.dev225

  ==> Input File <==

--------------------------------------------------------------------------
#psi4
#
memory 32 gb

molecule  {
0 1
  S        1.0053540    -0.0074810    -0.7736030
  S       -1.6960990    -1.1658100     0.0116150
  O        1.1339470    -1.3419000    -1.3567350
  O        1.3858060     1.2139170    -1.4782970
  N        1.8781370    -0.0233820     0.6524530
  C       -0.6978725     0.1716239    -0.3123695
  C        1.8702590     1.2384050     1.3961810
  C        1.6932100    -1.2084810     1.4940670
  C       -1.3340060     1.3908220    -0.1017950
  C       -2.6674560     1.1993540     0.3271550
  C       -2.9984720    -0.1352680     0.4414500
  H        2.0840190     2.0584320     0.7119160
  H        2.6656140     1.1849010     2.1428720
  H        0.9115380     1.4151000     1.9054530
  H        1.7293810    -2.1000160     0.8695980
  H        0.7471110    -1.1811200     2.0534300
  H        2.5234680    -1.2398400     2.2034110
  H       -0.8634200     2.3493520    -0.2940320
  H       -3.3646430     2.0039100     0.5365790
  H       -3.9505650    -0.5636820     0.7303990
units angstrom
no_reorient  #important for SAPT in psi4, default
symmetry c1  #important for SAPT in psi4, default
}

set PROPERTIES_ORIGIN ["COM"]
properties('MP2/aug-cc-pvtz', properties = ['dipole'])
--------------------------------------------------------------------------

    Molecular point group: c1
  Charge       = 0
  Multiplicity = 1
  Basis Set: AUG-CC-PVTZ
    Blend: AUG-CC-PVTZ
  Basis Set: (AUG-CC-PVTZ AUX)
    Blend: AUG-CC-PVTZ-JKFIT

    Orbital Energies [Eh]
    ---------------------

    Doubly Occupied:

       1A    -92.208373     2A    -92.016588     3A    -20.550192
       4A    -20.549203     5A    -15.606676     6A    -11.298754
       7A    -11.294310     8A    -11.276646     9A    -11.272091
      10A    -11.270875    11A    -11.264058    12A     -9.172433
      13A     -9.016429    14A     -6.857545    15A     -6.857258
      16A     -6.856912    17A     -6.697296    18A     -6.696750
      19A     -6.695979    20A     -1.455550    21A     -1.339962
      22A     -1.252872    23A     -1.202650    24A     -1.030116
      25A     -1.017863    26A     -0.981814    27A     -0.945931
      28A     -0.851750    29A     -0.786015    30A     -0.753673
      31A     -0.727383    32A     -0.703832    33A     -0.662028
      34A     -0.658851    35A     -0.626987    36A     -0.616154
      37A     -0.587507    38A     -0.579332    39A     -0.572380
      40A     -0.565420    41A     -0.550640    42A     -0.542003
      43A     -0.509260    44A     -0.502246    45A     -0.497799
      46A     -0.473221    47A     -0.467610    48A     -0.417087
      49A     -0.372408    50A     -0.352911

  @DF-RHF Final Energy: -1231.78847472702637

   => Energetics <=

    Nuclear Repulsion Energy =            892.4960893694189963
    One-Electron Energy =               -3468.4458788293172802
    Two-Electron Energy =                1344.1613147328716877
    Total Energy =                      -1231.7884747270263688
  Basis Set: (AUG-CC-PVTZ AUX)
    Blend: AUG-CC-PVTZ-RI
    Molecular point group: c1

    Geometry (in Angstrom), charge = 0, multiplicity = 1:

       Center              X                  Y                   Z               Mass
    ------------   -----------------  -----------------  -----------------  -----------------
         S            1.018922810301     0.013731800654    -0.717630232351    31.972071174400
         S           -1.682530189699    -1.144597199346     0.067587767649    31.972071174400
         O            1.147515810301    -1.320687199346    -1.300762232351    15.994914619570
         O            1.399374810301     1.235129800654    -1.422324232351    15.994914619570
         N            1.891705810301    -0.002169199346     0.708425767649    14.003074004430
         C           -0.684303689699     0.192836700654    -0.256396732351    12.000000000000
         C            1.883827810301     1.259617800654     1.452153767649    12.000000000000
         C            1.706778810301    -1.187268199346     1.550039767649    12.000000000000
         C           -1.320437189699     1.412034800654    -0.045822232351    12.000000000000
         C           -2.653887189699     1.220566800654     0.383127767649    12.000000000000
         C           -2.984903189699    -0.114055199346     0.497422767649    12.000000000000
         H            2.097587810301     2.079644800654     0.767888767649     1.007825032230
         H            2.679182810301     1.206113800654     2.198844767649     1.007825032230
         H            0.925106810301     1.436312800654     1.961425767649     1.007825032230
         H            1.742949810301    -2.078803199346     0.925570767649     1.007825032230
         H            0.760679810301    -1.159907199346     2.109402767649     1.007825032230
         H            2.537036810301    -1.218627199346     2.259383767649     1.007825032230
         H           -0.849851189699     2.370564800654    -0.238059232351     1.007825032230
         H           -3.351074189699     2.025122800654     0.592551767649     1.007825032230
         H           -3.936996189699    -0.542469199346     0.786371767649     1.007825032230

  Basis Set: AUG-CC-PVTZ
    Blend: AUG-CC-PVTZ
  Basis Set: (AUG-CC-PVTZ AUX)
    Blend: AUG-CC-PVTZ-JKFIT
	 Reference Energy          =   -1231.7884747270263688 [Eh]
	 Singles Energy            =      -0.0000000000000000 [Eh]
	 Same-Spin Energy          =      -0.5864203601894494 [Eh]
	 Opposite-Spin Energy      =      -1.7442243965786055 [Eh]
	 Correlation Energy        =      -2.3306447567680548 [Eh]
	 Total Energy              =   -1234.1191194837945204 [Eh]

	 ================> DF-SCS-MP2 Energies <==================
	-----------------------------------------------------------
	 SCS Same-Spin Scale       =       0.3333333333333333 [-]
	 SCS Opposite-Spin Scale   =       1.2000000000000000 [-]
	 SCS Same-Spin Energy      =      -0.1954734533964831 [Eh]
	 SCS Opposite-Spin Energy  =      -2.0930692758943263 [Eh]
	 SCS Correlation Energy    =      -2.2885427292908096 [Eh]
	 SCS Total Energy          =   -1234.0770174563172077 [Eh]
	-----------------------------------------------------------

  Dipole Moment: [D]
     X:    -2.5506      Y:     0.7338      Z:     4.7639     Total:     5.4533

*** Psi4 exiting successfully. Buy a developer a beer!
