                               Psi4 1.3.2 release

  ==> Input File <==

--------------------------------------------------------------------------
#psi4
#
memory 32 gb

molecule  {
0 1
  S        1.0053540    -0.0074810    -0.7736030
  S       -1.5562005    -1.2693885    -0.0343680
  O        1.1339470    -1.3419000    -1.3567350
  O        1.3858060     1.2139170    -1.4782970
  N        1.8781370    -0.0233820     0.6524530
  C       -0.6861290     0.1873580    -0.3161810
  C        1.8702590     1.2384050     1.3961810
  C        1.6932100    -1.2084810     1.4940670
  C       -1.3340060     1.3908220    -0.1017950
  C       -2.6674560     1.1993540     0.3271550
  C       -2.9984720    -0.1352680     0.4414500
  H        2.0840190     2.0584320     0.7119160
  H        2.6656140     1.1849010     2.1428720
  H        0.9115380     1.4151000     1.9054530
  H        1.7293810    -2.1000160     0.8695980
  H        0.7471110    -1.1811200     2.0534300
  H        2.5234680    -1.2398400     2.2034110
  H       -0.8634200     2.3493520    -0.2940320
  H       -3.3646430     2.0039100     0.5365790
  H       -3.9505650    -0.5636820     0.7303990
units angstrom
no_reorient  #important for SAPT in psi4, default
symmetry c1  #important for SAPT in psi4, default
}

set PROPERTIES_ORIGIN ["COM"]
properties('MP2/aug-cc-pvtz', properties = ['dipole'])
--------------------------------------------------------------------------

    Molecular point group: c1
  Charge       = 0
  Multiplicity = 1
  Basis Set: AUG-CC-PVTZ
    Blend: AUG-CC-PVTZ
  Basis Set: (AUG-CC-PVTZ AUX)
    Blend: AUG-CC-PVTZ-JKFIT

    Orbital Energies [Eh]
    ---------------------

    Doubly Occupied:

       1A    -92.205817     2A    -92.018387     3A    -20.550753
       4A    -20.547315     5A    -15.606231     6A    -11.308248
       7A    -11.303531     8A    -11.279247     9A    -11.271871
      10A    -11.271744    11A    -11.270079    12A     -9.170488
      13A     -9.015136    14A     -6.855561    15A     -6.855273
      16A     -6.854931    17A     -6.695901    18A     -6.694984
      19A     -6.694415    20A     -1.455763    21A     -1.339863
      22A     -1.252530    23A     -1.184332    24A     -1.036510
      25A     -0.998486    26A     -0.981089    27A     -0.946092
      28A     -0.853099    29A     -0.789611    30A     -0.748143
      31A     -0.726351    32A     -0.703179    33A     -0.662049
      34A     -0.656375    35A     -0.623900    36A     -0.615938
      37A     -0.589875    38A     -0.578617    39A     -0.571541
      40A     -0.558484    41A     -0.541746    42A     -0.538123
      43A     -0.507845    44A     -0.501867    45A     -0.491668
      46A     -0.471090    47A     -0.464783    48A     -0.415310
      49A     -0.380841    50A     -0.345562

  @DF-RHF Final Energy: -1231.77126507288858

   => Energetics <=

    Nuclear Repulsion Energy =            891.3399948792522309
    One-Electron Energy =               -3466.2213802293049412
    Two-Electron Energy =                1343.1101202771642420
    Total Energy =                      -1231.7712650728885819
  Basis Set: (AUG-CC-PVTZ AUX)
    Blend: AUG-CC-PVTZ-RI
    Molecular point group: c1

    Geometry (in Angstrom), charge = 0, multiplicity = 1:

       Center              X                  Y                   Z               Mass
    ------------   -----------------  -----------------  -----------------  -----------------
         S            0.994767907994     0.030080951605    -0.709693842524    31.972071174400
         S           -1.566786592006    -1.231826548395     0.029541157476    31.972071174400
         O            1.123360907994    -1.304338048395    -1.292825842524    15.994914619570
         O            1.375219907994     1.251478951605    -1.414387842524    15.994914619570
         N            1.867550907994     0.014179951605     0.716362157476    14.003074004430
         C           -0.696715092006     0.224919951605    -0.252271842524    12.000000000000
         C            1.859672907994     1.275966951605     1.460090157476    12.000000000000
         C            1.682623907994    -1.170919048395     1.557976157476    12.000000000000
         C           -1.344592092006     1.428383951605    -0.037885842524    12.000000000000
         C           -2.678042092006     1.236915951605     0.391064157476    12.000000000000
         C           -3.009058092006    -0.097706048395     0.505359157476    12.000000000000
         H            2.073432907994     2.095993951605     0.775825157476     1.007825032230
         H            2.655027907994     1.222462951605     2.206781157476     1.007825032230
         H            0.900951907994     1.452661951605     1.969362157476     1.007825032230
         H            1.718794907994    -2.062454048395     0.933507157476     1.007825032230
         H            0.736524907994    -1.143558048395     2.117339157476     1.007825032230
         H            2.512881907994    -1.202278048395     2.267320157476     1.007825032230
         H           -0.874006092006     2.386913951605    -0.230122842524     1.007825032230
         H           -3.375229092006     2.041471951605     0.600488157476     1.007825032230
         H           -3.961151092006    -0.526120048395     0.794308157476     1.007825032230

  Basis Set: AUG-CC-PVTZ
    Blend: AUG-CC-PVTZ
  Basis Set: (AUG-CC-PVTZ AUX)
    Blend: AUG-CC-PVTZ-JKFIT
	 Reference Energy          =   -1231.7712650728885819 [Eh]
	 Singles Energy            =      -0.0000000000000000 [Eh]
	 Same-Spin Energy          =      -0.5857611420667211 [Eh]
	 Opposite-Spin Energy      =      -1.7475000630236908 [Eh]
	 Correlation Energy        =      -2.3332612050904120 [Eh]
	 Total Energy              =   -1234.1045262779789482 [Eh]

	 ================> DF-SCS-MP2 Energies <==================
	-----------------------------------------------------------
	 SCS Same-Spin Scale       =       0.3333333333333333 [-]
	 SCS Opposite-Spin Scale   =       1.2000000000000000 [-]
	 SCS Same-Spin Energy      =      -0.1952537140222404 [Eh]
	 SCS Opposite-Spin Energy  =      -2.0970000756284288 [Eh]
	 SCS Correlation Energy    =      -2.2922537896506694 [Eh]
	 SCS Total Energy          =   -1234.0635188625392402 [Eh]
	-----------------------------------------------------------

  Dipole Moment: [D]
     X:    -2.5738      Y:     0.8314      Z:     4.7521     Total:     5.4679

*** Psi4 exiting successfully. Buy a developer a beer!
