                               Psi4 1.4a3.dev225

  ==> Input File <==

--------------------------------------------------------------------------
#psi4
#
memory 32 gb

molecule  {
0 1
  S        1.0053540    -0.0074810    -0.7736030
  S       -1.6960990    -1.1658100     0.0116150
  O        1.1339470    -1.3419000    -1.3567350
  O        1.3858060     1.2139170    -1.4782970
  N        1.8781370    -0.0233820     0.6524530
  C       -0.6861290     0.1873580    -0.3161810
  C        1.8702590     1.2384050     1.3961810
  C        1.6932100    -1.2084810     1.4940670
  C       -1.3340060     1.3908220    -0.1017950
  C       -2.6674560     1.1993540     0.3271550
  C       -2.9605131    -0.1653041     0.4289220
  H        2.0840190     2.0584320     0.7119160
  H        2.6656140     1.1849010     2.1428720
  H        0.9115380     1.4151000     1.9054530
  H        1.7293810    -2.1000160     0.8695980
  H        0.7471110    -1.1811200     2.0534300
  H        2.5234680    -1.2398400     2.2034110
  H       -0.8634200     2.3493520    -0.2940320
  H       -3.3646430     2.0039100     0.5365790
  H       -3.9505650    -0.5636820     0.7303990
units angstrom
no_reorient  #important for SAPT in psi4, default
symmetry c1  #important for SAPT in psi4, default
}

set PROPERTIES_ORIGIN ["COM"]
properties('MP2/aug-cc-pvtz', properties = ['dipole'])
--------------------------------------------------------------------------

    Molecular point group: c1
  Charge       = 0
  Multiplicity = 1
  Basis Set: AUG-CC-PVTZ
    Blend: AUG-CC-PVTZ
  Basis Set: (AUG-CC-PVTZ AUX)
    Blend: AUG-CC-PVTZ-JKFIT

    Orbital Energies [Eh]
    ---------------------

    Doubly Occupied:

       1A    -92.207467     2A    -92.018649     3A    -20.549225
       4A    -20.548605     5A    -15.605738     6A    -11.296187
       7A    -11.295981     8A    -11.276520     9A    -11.271670
      10A    -11.270659    11A    -11.264256    12A     -9.171601
      13A     -9.019036    14A     -6.856717    15A     -6.856444
      16A     -6.856097    17A     -6.699935    18A     -6.699350
      19A     -6.698570    20A     -1.455133    21A     -1.339361
      22A     -1.252265    23A     -1.205717    24A     -1.029599
      25A     -1.022359    26A     -0.981467    27A     -0.944246
      28A     -0.850695    29A     -0.783739    30A     -0.754189
      31A     -0.727306    32A     -0.703428    33A     -0.661492
      34A     -0.658168    35A     -0.626554    36A     -0.615676
      37A     -0.579499    38A     -0.578211    39A     -0.572931
      40A     -0.567485    41A     -0.552609    42A     -0.541588
      43A     -0.514582    44A     -0.502508    45A     -0.496964
      46A     -0.472713    47A     -0.467344    48A     -0.417154
      49A     -0.374254    50A     -0.350787

  @DF-RHF Final Energy: -1231.78612285318991

   => Energetics <=

    Nuclear Repulsion Energy =            893.5233334155301463
    One-Electron Energy =               -3470.4934563637893916
    Two-Electron Energy =                1345.1840000950694503
    Total Energy =                      -1231.7861228531899087
  Basis Set: (AUG-CC-PVTZ AUX)
    Blend: AUG-CC-PVTZ-RI
    Molecular point group: c1

    Geometry (in Angstrom), charge = 0, multiplicity = 1:

       Center              X                  Y                   Z               Mass
    ------------   -----------------  -----------------  -----------------  -----------------
         S            1.015800268564     0.014630320483    -0.716603707058    31.972071174400
         S           -1.685652731436    -1.143698679517     0.068614292942    31.972071174400
         O            1.144393268564    -1.319788679517    -1.299735707058    15.994914619570
         O            1.396252268564     1.236028320483    -1.421297707058    15.994914619570
         N            1.888583268564    -0.001270679517     0.709452292942    14.003074004430
         C           -0.675682731436     0.209469320483    -0.259181707058    12.000000000000
         C            1.880705268564     1.260516320483     1.453180292942    12.000000000000
         C            1.703656268564    -1.186369679517     1.551066292942    12.000000000000
         C           -1.323559731436     1.412933320483    -0.044795707058    12.000000000000
         C           -2.657009731436     1.221465320483     0.384154292942    12.000000000000
         C           -2.950066831436    -0.143192779517     0.485921292942    12.000000000000
         H            2.094465268564     2.080543320483     0.768915292942     1.007825032230
         H            2.676060268564     1.207012320483     2.199871292942     1.007825032230
         H            0.921984268564     1.437211320483     1.962452292942     1.007825032230
         H            1.739827268564    -2.077904679517     0.926597292942     1.007825032230
         H            0.757557268564    -1.159008679517     2.110429292942     1.007825032230
         H            2.533914268564    -1.217728679517     2.260410292942     1.007825032230
         H           -0.852973731436     2.371463320483    -0.237032707058     1.007825032230
         H           -3.354196731436     2.026021320483     0.593578292942     1.007825032230
         H           -3.940118731436    -0.541570679517     0.787398292942     1.007825032230

  Basis Set: AUG-CC-PVTZ
    Blend: AUG-CC-PVTZ
  Basis Set: (AUG-CC-PVTZ AUX)
    Blend: AUG-CC-PVTZ-JKFIT
	 Reference Energy          =   -1231.7861228531899087 [Eh]
	 Singles Energy            =      -0.0000000000000000 [Eh]
	 Same-Spin Energy          =      -0.5868321360589174 [Eh]
	 Opposite-Spin Energy      =      -1.7442329838098205 [Eh]
	 Correlation Energy        =      -2.3310651198687378 [Eh]
	 Total Energy              =   -1234.1171879730586625 [Eh]

	 ================> DF-SCS-MP2 Energies <==================
	-----------------------------------------------------------
	 SCS Same-Spin Scale       =       0.3333333333333333 [-]
	 SCS Opposite-Spin Scale   =       1.2000000000000000 [-]
	 SCS Same-Spin Energy      =      -0.1956107120196391 [Eh]
	 SCS Opposite-Spin Energy  =      -2.0930795805717843 [Eh]
	 SCS Correlation Energy    =      -2.2886902925914234 [Eh]
	 SCS Total Energy          =   -1234.0748131457812633 [Eh]
	-----------------------------------------------------------

  Dipole Moment: [D]
     X:    -2.5830      Y:     0.6967      Z:     4.7631     Total:     5.4630

*** Psi4 exiting successfully. Buy a developer a beer!
