                               Psi4 1.4a3.dev225

  ==> Input File <==

--------------------------------------------------------------------------
#psi4
#
memory 32 gb

molecule  {
0 1
  S        1.0053540    -0.0074810    -0.7736030
  S       -1.6960990    -1.1658100     0.0116150
  O        1.1339470    -1.3419000    -1.3567350
  O        1.3858060     1.2139170    -1.4782970
  N        1.8781370    -0.0233820     0.6524530
  C       -0.6743855     0.2030921    -0.3199925
  C        1.8702590     1.2384050     1.3961810
  C        1.6932100    -1.2084810     1.4940670
  C       -1.3340060     1.3908220    -0.1017950
  C       -2.6674560     1.1993540     0.3271550
  C       -2.9984720    -0.1352680     0.4414500
  H        2.0840190     2.0584320     0.7119160
  H        2.6656140     1.1849010     2.1428720
  H        0.9115380     1.4151000     1.9054530
  H        1.7293810    -2.1000160     0.8695980
  H        0.7471110    -1.1811200     2.0534300
  H        2.5234680    -1.2398400     2.2034110
  H       -0.8634200     2.3493520    -0.2940320
  H       -3.3646430     2.0039100     0.5365790
  H       -3.9505650    -0.5636820     0.7303990
units angstrom
no_reorient  #important for SAPT in psi4, default
symmetry c1  #important for SAPT in psi4, default
}

set PROPERTIES_ORIGIN ["COM"]
properties('MP2/aug-cc-pvtz', properties = ['dipole'])
--------------------------------------------------------------------------

    Molecular point group: c1
  Charge       = 0
  Multiplicity = 1
  Basis Set: AUG-CC-PVTZ
    Blend: AUG-CC-PVTZ
  Basis Set: (AUG-CC-PVTZ AUX)
    Blend: AUG-CC-PVTZ-JKFIT

    Orbital Energies [Eh]
    ---------------------

    Doubly Occupied:

       1A    -92.208250     2A    -92.015452     3A    -20.550414
       4A    -20.548532     5A    -15.606436     6A    -11.298544
       7A    -11.296746     8A    -11.277443     9A    -11.272087
      10A    -11.270590    11A    -11.264394    12A     -9.172508
      13A     -9.014668    14A     -6.857634    15A     -6.857382
      16A     -6.856984    17A     -6.695485    18A     -6.694956
      19A     -6.694213    20A     -1.456104    21A     -1.339986
      22A     -1.252830    23A     -1.199965    24A     -1.033319
      25A     -1.016051    26A     -0.981677    27A     -0.946395
      28A     -0.855055    29A     -0.787059    30A     -0.753365
      31A     -0.727660    32A     -0.703924    33A     -0.662136
      34A     -0.658735    35A     -0.628732    36A     -0.616331
      37A     -0.589171    38A     -0.579389    39A     -0.572014
      40A     -0.562438    41A     -0.548674    42A     -0.541833
      43A     -0.509985    44A     -0.499863    45A     -0.497089
      46A     -0.473033    47A     -0.468040    48A     -0.417917
      49A     -0.372614    50A     -0.354767

  @DF-RHF Final Energy: -1231.78937341141932

   => Energetics <=

    Nuclear Repulsion Energy =            892.4375940148435120
    One-Electron Energy =               -3468.3361954893152870
    Two-Electron Energy =                1344.1092280630525693
    Total Energy =                      -1231.7893734114193194
  Basis Set: (AUG-CC-PVTZ AUX)
    Blend: AUG-CC-PVTZ-RI
    Molecular point group: c1

    Geometry (in Angstrom), charge = 0, multiplicity = 1:

       Center              X                  Y                   Z               Mass
    ------------   -----------------  -----------------  -----------------  -----------------
         S            1.017447244981     0.011754818297    -0.717151319146    31.972071174400
         S           -1.684005755019    -1.146574181703     0.068066680854    31.972071174400
         O            1.146040244981    -1.322664181703    -1.300283319146    15.994914619570
         O            1.397899244981     1.233152818297    -1.421845319146    15.994914619570
         N            1.890230244981    -0.004146181703     0.708904680854    14.003074004430
         C           -0.662292255019     0.222327918297    -0.263540819146    12.000000000000
         C            1.882352244981     1.257640818297     1.452632680854    12.000000000000
         C            1.705303244981    -1.189245181703     1.550518680854    12.000000000000
         C           -1.321912755019     1.410057818297    -0.045343319146    12.000000000000
         C           -2.655362755019     1.218589818297     0.383606680854    12.000000000000
         C           -2.986378755019    -0.116032181703     0.497901680854    12.000000000000
         H            2.096112244981     2.077667818297     0.768367680854     1.007825032230
         H            2.677707244981     1.204136818297     2.199323680854     1.007825032230
         H            0.923631244981     1.434335818297     1.961904680854     1.007825032230
         H            1.741474244981    -2.080780181703     0.926049680854     1.007825032230
         H            0.759204244981    -1.161884181703     2.109881680854     1.007825032230
         H            2.535561244981    -1.220604181703     2.259862680854     1.007825032230
         H           -0.851326755019     2.368587818297    -0.237580319146     1.007825032230
         H           -3.352549755019     2.023145818297     0.593030680854     1.007825032230
         H           -3.938471755019    -0.544446181703     0.786850680854     1.007825032230

  Basis Set: AUG-CC-PVTZ
    Blend: AUG-CC-PVTZ
  Basis Set: (AUG-CC-PVTZ AUX)
    Blend: AUG-CC-PVTZ-JKFIT
	 Reference Energy          =   -1231.7893734114193194 [Eh]
	 Singles Energy            =      -0.0000000000000000 [Eh]
	 Same-Spin Energy          =      -0.5859106002576422 [Eh]
	 Opposite-Spin Energy      =      -1.7438990362092244 [Eh]
	 Correlation Energy        =      -2.3298096364668668 [Eh]
	 Total Energy              =   -1234.1191830478862812 [Eh]

	 ================> DF-SCS-MP2 Energies <==================
	-----------------------------------------------------------
	 SCS Same-Spin Scale       =       0.3333333333333333 [-]
	 SCS Opposite-Spin Scale   =       1.2000000000000000 [-]
	 SCS Same-Spin Energy      =      -0.1953035334192141 [Eh]
	 SCS Opposite-Spin Energy  =      -2.0926788434510692 [Eh]
	 SCS Correlation Energy    =      -2.2879823768702834 [Eh]
	 SCS Total Energy          =   -1234.0773557882896512 [Eh]
	-----------------------------------------------------------

  Dipole Moment: [D]
     X:    -2.5854      Y:     0.7660      Z:     4.7747     Total:     5.4835

*** Psi4 exiting successfully. Buy a developer a beer!
