                               Psi4 1.3.2 release

  ==> Input File <==

--------------------------------------------------------------------------
#psi4
#
memory 32 gb

molecule  {
0 1
  S        1.0053540    -0.0074810    -0.7736030
  S       -1.6960990    -1.1658100     0.0116150
  O        1.1712663    -1.2976743    -1.4407817
  O        1.3858060     1.2139170    -1.4782970
  N        1.8781370    -0.0233820     0.6524530
  C       -0.6861290     0.1873580    -0.3161810
  C        1.8702590     1.2384050     1.3961810
  C        1.6932100    -1.2084810     1.4940670
  C       -1.3340060     1.3908220    -0.1017950
  C       -2.6674560     1.1993540     0.3271550
  C       -2.9984720    -0.1352680     0.4414500
  H        2.0840190     2.0584320     0.7119160
  H        2.6656140     1.1849010     2.1428720
  H        0.9115380     1.4151000     1.9054530
  H        1.7293810    -2.1000160     0.8695980
  H        0.7471110    -1.1811200     2.0534300
  H        2.5234680    -1.2398400     2.2034110
  H       -0.8634200     2.3493520    -0.2940320
  H       -3.3646430     2.0039100     0.5365790
  H       -3.9505650    -0.5636820     0.7303990
units angstrom
no_reorient  #important for SAPT in psi4, default
symmetry c1  #important for SAPT in psi4, default
}

set PROPERTIES_ORIGIN ["COM"]
properties('MP2/aug-cc-pvtz', properties = ['dipole'])
--------------------------------------------------------------------------

    Molecular point group: c1
  Charge       = 0
  Multiplicity = 1
  Basis Set: AUG-CC-PVTZ
    Blend: AUG-CC-PVTZ
  Basis Set: (AUG-CC-PVTZ AUX)
    Blend: AUG-CC-PVTZ-JKFIT

    Orbital Energies [Eh]
    ---------------------

    Doubly Occupied:

       1A    -92.206883     2A    -92.017403     3A    -20.548854
       4A    -20.542767     5A    -15.608494     6A    -11.300652
       7A    -11.296866     8A    -11.278531     9A    -11.273290
      10A    -11.273105    11A    -11.265462    12A     -9.171229
      13A     -9.016961    14A     -6.856334    15A     -6.855984
      16A     -6.855746    17A     -6.697811    18A     -6.697277
      19A     -6.696518    20A     -1.453892    21A     -1.333534
      22A     -1.255219    23A     -1.202677    24A     -1.033280
      25A     -1.018535    26A     -0.983455    27A     -0.947624
      28A     -0.854358    29A     -0.787808    30A     -0.754155
      31A     -0.728031    32A     -0.702077    33A     -0.661243
      34A     -0.659880    35A     -0.628756    36A     -0.614454
      37A     -0.589263    38A     -0.581238    39A     -0.573439
      40A     -0.564430    41A     -0.551155    42A     -0.543274
      43A     -0.510119    44A     -0.500743    45A     -0.493395
      46A     -0.468861    47A     -0.467447    48A     -0.419159
      49A     -0.373656    50A     -0.355288

  @DF-RHF Final Energy: -1231.78908701148407

   => Energetics <=

    Nuclear Repulsion Energy =            891.4472337970711351
    One-Electron Energy =               -3466.3314092548471308
    Two-Electron Energy =                1343.0950884462920385
    Total Energy =                      -1231.7890870114840709
  Basis Set: (AUG-CC-PVTZ AUX)
    Blend: AUG-CC-PVTZ-RI
    Molecular point group: c1

    Geometry (in Angstrom), charge = 0, multiplicity = 1:

       Center              X                  Y                   Z               Mass
    ------------   -----------------  -----------------  -----------------  -----------------
         S            1.015059919422     0.009039861164    -0.710352727528    31.972071174400
         S           -1.686393080578    -1.149289138836     0.074865272472    31.972071174400
         O            1.180972219422    -1.281153438836    -1.377531427528    15.994914619570
         O            1.395511919422     1.230437861164    -1.415046727528    15.994914619570
         N            1.887842919422    -0.006861138836     0.715703272472    14.003074004430
         C           -0.676423080578     0.203878861164    -0.252930727528    12.000000000000
         C            1.879964919422     1.254925861164     1.459431272472    12.000000000000
         C            1.702915919422    -1.191960138836     1.557317272472    12.000000000000
         C           -1.324300080578     1.407342861164    -0.038544727528    12.000000000000
         C           -2.657750080578     1.215874861164     0.390405272472    12.000000000000
         C           -2.988766080578    -0.118747138836     0.504700272472    12.000000000000
         H            2.093724919422     2.074952861164     0.775166272472     1.007825032230
         H            2.675319919422     1.201421861164     2.206122272472     1.007825032230
         H            0.921243919422     1.431620861164     1.968703272472     1.007825032230
         H            1.739086919422    -2.083495138836     0.932848272472     1.007825032230
         H            0.756816919422    -1.164599138836     2.116680272472     1.007825032230
         H            2.533173919422    -1.223319138836     2.266661272472     1.007825032230
         H           -0.853714080578     2.365872861164    -0.230781727528     1.007825032230
         H           -3.354937080578     2.020430861164     0.599829272472     1.007825032230
         H           -3.940859080578    -0.547161138836     0.793649272472     1.007825032230

  Basis Set: AUG-CC-PVTZ
    Blend: AUG-CC-PVTZ
  Basis Set: (AUG-CC-PVTZ AUX)
    Blend: AUG-CC-PVTZ-JKFIT
	 Reference Energy          =   -1231.7890870114840709 [Eh]
	 Singles Energy            =      -0.0000000000000000 [Eh]
	 Same-Spin Energy          =      -0.5858450054262139 [Eh]
	 Opposite-Spin Energy      =      -1.7435757234401117 [Eh]
	 Correlation Energy        =      -2.3294207288663253 [Eh]
	 Total Energy              =   -1234.1185077403504238 [Eh]

	 ================> DF-SCS-MP2 Energies <==================
	-----------------------------------------------------------
	 SCS Same-Spin Scale       =       0.3333333333333333 [-]
	 SCS Opposite-Spin Scale   =       1.2000000000000000 [-]
	 SCS Same-Spin Energy      =      -0.1952816684754046 [Eh]
	 SCS Opposite-Spin Energy  =      -2.0922908681281340 [Eh]
	 SCS Correlation Energy    =      -2.2875725366035384 [Eh]
	 SCS Total Energy          =   -1234.0766595480877186 [Eh]
	-----------------------------------------------------------

  Dipole Moment: [D]
     X:    -2.6860      Y:     0.6634      Z:     4.9957     Total:     5.7107

*** Psi4 exiting successfully. Buy a developer a beer!
