                               Psi4 1.3.2 release

  ==> Input File <==

--------------------------------------------------------------------------
#psi4
#
memory 32 gb

molecule  {
0 1
  S        1.0053540    -0.0074810    -0.7736030
  S       -1.6960990    -1.1658100     0.0116150
  O        1.1339470    -1.3419000    -1.3567350
  O        1.3858060     1.2139170    -1.4782970
  N        1.8781370    -0.0233820     0.6524530
  C       -0.8780115     0.2094606    -0.2642909
  C        1.8702590     1.2384050     1.3961810
  C        1.6932100    -1.2084810     1.4940670
  C       -1.3340060     1.3908220    -0.1017950
  C       -2.6674560     1.1993540     0.3271550
  C       -2.9984720    -0.1352680     0.4414500
  H        2.0840190     2.0584320     0.7119160
  H        2.6656140     1.1849010     2.1428720
  H        0.9115380     1.4151000     1.9054530
  H        1.7293810    -2.1000160     0.8695980
  H        0.7471110    -1.1811200     2.0534300
  H        2.5234680    -1.2398400     2.2034110
  H       -0.8634200     2.3493520    -0.2940320
  H       -3.3646430     2.0039100     0.5365790
  H       -3.9505650    -0.5636820     0.7303990
units angstrom
no_reorient  #important for SAPT in psi4, default
symmetry c1  #important for SAPT in psi4, default
}

set PROPERTIES_ORIGIN ["COM"]
properties('MP2/aug-cc-pvtz', properties = ['dipole'])
--------------------------------------------------------------------------

    Molecular point group: c1
  Charge       = 0
  Multiplicity = 1
  Basis Set: AUG-CC-PVTZ
    Blend: AUG-CC-PVTZ
  Basis Set: (AUG-CC-PVTZ AUX)
    Blend: AUG-CC-PVTZ-JKFIT

    Orbital Energies [Eh]
    ---------------------

    Doubly Occupied:

       1A    -92.203588     2A    -92.011945     3A    -20.550859
       4A    -20.550726     5A    -15.608206     6A    -11.295752
       7A    -11.283473     8A    -11.273041     9A    -11.271830
      10A    -11.261349    11A    -11.254160    12A     -9.167597
      13A     -9.014471    14A     -6.852514    15A     -6.851953
      16A     -6.851909    17A     -6.695587    18A     -6.694625
      19A     -6.693710    20A     -1.451217    21A     -1.338979
      22A     -1.253000    23A     -1.229946    24A     -1.037840
      25A     -1.013764    26A     -0.982718    27A     -0.944411
      28A     -0.826466    29A     -0.792667    30A     -0.754351
      31A     -0.730475    32A     -0.701766    33A     -0.661105
      34A     -0.657827    35A     -0.617272    36A     -0.614447
      37A     -0.588950    38A     -0.579703    39A     -0.575795
      40A     -0.571826    41A     -0.567222    42A     -0.543037
      43A     -0.522776    44A     -0.500970    45A     -0.497370
      46A     -0.473683    47A     -0.448926    48A     -0.404786
      49A     -0.378245    50A     -0.356887

  @DF-RHF Final Energy: -1231.75283306148435

   => Energetics <=

    Nuclear Repulsion Energy =            891.7120551379846347
    One-Electron Energy =               -3466.9183345080950858
    Two-Electron Energy =                1343.4534463086263258
    Total Energy =                      -1231.7528330614843526
  Basis Set: (AUG-CC-PVTZ AUX)
    Blend: AUG-CC-PVTZ-RI
    Molecular point group: c1

    Geometry (in Angstrom), charge = 0, multiplicity = 1:

       Center              X                  Y                   Z               Mass
    ------------   -----------------  -----------------  -----------------  -----------------
         S            1.030240001142     0.011354718764    -0.720650759231    31.972071174400
         S           -1.671212998858    -1.146974281236     0.064567240769    31.972071174400
         O            1.158833001142    -1.323064281236    -1.303782759231    15.994914619570
         O            1.410692001142     1.232752718764    -1.425344759231    15.994914619570
         N            1.903023001142    -0.004546281236     0.705405240769    14.003074004430
         C           -0.853125498858     0.228296318764    -0.211338659231    12.000000000000
         C            1.895145001142     1.257240718764     1.449133240769    12.000000000000
         C            1.718096001142    -1.189645281236     1.547019240769    12.000000000000
         C           -1.309119998858     1.409657718764    -0.048842759231    12.000000000000
         C           -2.642569998858     1.218189718764     0.380107240769    12.000000000000
         C           -2.973585998858    -0.116432281236     0.494402240769    12.000000000000
         H            2.108905001142     2.077267718764     0.764868240769     1.007825032230
         H            2.690500001142     1.203736718764     2.195824240769     1.007825032230
         H            0.936424001142     1.433935718764     1.958405240769     1.007825032230
         H            1.754267001142    -2.081180281236     0.922550240769     1.007825032230
         H            0.771997001142    -1.162284281236     2.106382240769     1.007825032230
         H            2.548354001142    -1.221004281236     2.256363240769     1.007825032230
         H           -0.838533998858     2.368187718764    -0.241079759231     1.007825032230
         H           -3.339756998858     2.022745718764     0.589531240769     1.007825032230
         H           -3.925678998858    -0.544846281236     0.783351240769     1.007825032230

  Basis Set: AUG-CC-PVTZ
    Blend: AUG-CC-PVTZ
  Basis Set: (AUG-CC-PVTZ AUX)
    Blend: AUG-CC-PVTZ-JKFIT
	 Reference Energy          =   -1231.7528330614843526 [Eh]
	 Singles Energy            =      -0.0000000000000000 [Eh]
	 Same-Spin Energy          =      -0.5863018387811556 [Eh]
	 Opposite-Spin Energy      =      -1.7449413920304917 [Eh]
	 Correlation Energy        =      -2.3312432308116473 [Eh]
	 Total Energy              =   -1234.0840762922960039 [Eh]

	 ================> DF-SCS-MP2 Energies <==================
	-----------------------------------------------------------
	 SCS Same-Spin Scale       =       0.3333333333333333 [-]
	 SCS Opposite-Spin Scale   =       1.2000000000000000 [-]
	 SCS Same-Spin Energy      =      -0.1954339462603852 [Eh]
	 SCS Opposite-Spin Energy  =      -2.0939296704365900 [Eh]
	 SCS Correlation Energy    =      -2.2893636166969751 [Eh]
	 SCS Total Energy          =   -1234.0421966781814263 [Eh]
	-----------------------------------------------------------

  Dipole Moment: [D]
     X:    -2.1860      Y:     0.6282      Z:     4.6816     Total:     5.2048

*** Psi4 exiting successfully. Buy a developer a beer!
