                               Psi4 1.3.2 release

  ==> Input File <==

--------------------------------------------------------------------------
#psi4
#
memory 32 gb

molecule  {
0 1
  S        1.0114256     0.0537552    -0.7730951
  S       -1.6960990    -1.1658100     0.0116150
  O        1.1339470    -1.3419000    -1.3567350
  O        1.3858060     1.2139170    -1.4782970
  N        1.8781370    -0.0233820     0.6524530
  C       -0.6861290     0.1873580    -0.3161810
  C        1.8702590     1.2384050     1.3961810
  C        1.6932100    -1.2084810     1.4940670
  C       -1.3340060     1.3908220    -0.1017950
  C       -2.6674560     1.1993540     0.3271550
  C       -2.9984720    -0.1352680     0.4414500
  H        2.0840190     2.0584320     0.7119160
  H        2.6656140     1.1849010     2.1428720
  H        0.9115380     1.4151000     1.9054530
  H        1.7293810    -2.1000160     0.8695980
  H        0.7471110    -1.1811200     2.0534300
  H        2.5234680    -1.2398400     2.2034110
  H       -0.8634200     2.3493520    -0.2940320
  H       -3.3646430     2.0039100     0.5365790
  H       -3.9505650    -0.5636820     0.7303990
units angstrom
no_reorient  #important for SAPT in psi4, default
symmetry c1  #important for SAPT in psi4, default
}

set PROPERTIES_ORIGIN ["COM"]
properties('MP2/aug-cc-pvtz', properties = ['dipole'])
--------------------------------------------------------------------------

    Molecular point group: c1
  Charge       = 0
  Multiplicity = 1
  Basis Set: AUG-CC-PVTZ
    Blend: AUG-CC-PVTZ
  Basis Set: (AUG-CC-PVTZ AUX)
    Blend: AUG-CC-PVTZ-JKFIT

    Orbital Energies [Eh]
    ---------------------

    Doubly Occupied:

       1A    -92.206807     2A    -92.016410     3A    -20.561877
       4A    -20.536080     5A    -15.606822     6A    -11.298523
       7A    -11.295345     8A    -11.276811     9A    -11.273001
      10A    -11.270356    11A    -11.263895    12A     -9.171679
      13A     -9.015706    14A     -6.856766    15A     -6.856606
      16A     -6.855971    17A     -6.696516    18A     -6.696010
      19A     -6.695233    20A     -1.468814    21A     -1.328836
      22A     -1.251731    23A     -1.201048    24A     -1.031816
      25A     -1.016934    26A     -0.982124    27A     -0.946494
      28A     -0.853586    29A     -0.786201    30A     -0.754151
      31A     -0.728067    32A     -0.706228    33A     -0.662981
      34A     -0.659463    35A     -0.629885    36A     -0.616873
      37A     -0.587807    38A     -0.580998    39A     -0.572642
      40A     -0.565243    41A     -0.549806    42A     -0.542968
      43A     -0.506308    44A     -0.505954    45A     -0.498772
      46A     -0.466292    47A     -0.460639    48A     -0.417676
      49A     -0.372146    50A     -0.354016

  @DF-RHF Final Energy: -1231.78237277347193

   => Energetics <=

    Nuclear Repulsion Energy =            892.3714358743120556
    One-Electron Energy =               -3468.1937858476235306
    Two-Electron Energy =                1344.0399771998393135
    Total Energy =                      -1231.7823727734719341
  Basis Set: (AUG-CC-PVTZ AUX)
    Blend: AUG-CC-PVTZ-RI
    Molecular point group: c1

    Geometry (in Angstrom), charge = 0, multiplicity = 1:

       Center              X                  Y                   Z               Mass
    ------------   -----------------  -----------------  -----------------  -----------------
         S            1.023240323795     0.063729396557    -0.716967891350    31.972071174400
         S           -1.684284276205    -1.155835803443     0.067742208650    31.972071174400
         O            1.145761723795    -1.331925803443    -1.300607791350    15.994914619570
         O            1.397620723795     1.223891196557    -1.422169791350    15.994914619570
         N            1.889951723795    -0.013407803443     0.708580208650    14.003074004430
         C           -0.674314276205     0.197332196557    -0.260053791350    12.000000000000
         C            1.882073723795     1.248379196557     1.452308208650    12.000000000000
         C            1.705024723795    -1.198506803443     1.550194208650    12.000000000000
         C           -1.322191276205     1.400796196557    -0.045667791350    12.000000000000
         C           -2.655641276205     1.209328196557     0.383282208650    12.000000000000
         C           -2.986657276205    -0.125293803443     0.497577208650    12.000000000000
         H            2.095833723795     2.068406196557     0.768043208650     1.007825032230
         H            2.677428723795     1.194875196557     2.198999208650     1.007825032230
         H            0.923352723795     1.425074196557     1.961580208650     1.007825032230
         H            1.741195723795    -2.090041803443     0.925725208650     1.007825032230
         H            0.758925723795    -1.171145803443     2.109557208650     1.007825032230
         H            2.535282723795    -1.229865803443     2.259538208650     1.007825032230
         H           -0.851605276205     2.359326196557    -0.237904791350     1.007825032230
         H           -3.352828276205     2.013884196557     0.592706208650     1.007825032230
         H           -3.938750276205    -0.553707803443     0.786526208650     1.007825032230

  Basis Set: AUG-CC-PVTZ
    Blend: AUG-CC-PVTZ
  Basis Set: (AUG-CC-PVTZ AUX)
    Blend: AUG-CC-PVTZ-JKFIT
	 Reference Energy          =   -1231.7823727734719341 [Eh]
	 Singles Energy            =      -0.0000000000000000 [Eh]
	 Same-Spin Energy          =      -0.5859298564692549 [Eh]
	 Opposite-Spin Energy      =      -1.7438667550850315 [Eh]
	 Correlation Energy        =      -2.3297966115542863 [Eh]
	 Total Energy              =   -1234.1121693850261636 [Eh]

	 ================> DF-SCS-MP2 Energies <==================
	-----------------------------------------------------------
	 SCS Same-Spin Scale       =       0.3333333333333333 [-]
	 SCS Opposite-Spin Scale   =       1.2000000000000000 [-]
	 SCS Same-Spin Energy      =      -0.1953099521564183 [Eh]
	 SCS Opposite-Spin Energy  =      -2.0926401061020377 [Eh]
	 SCS Correlation Energy    =      -2.2879500582584558 [Eh]
	 SCS Total Energy          =   -1234.0703228317304365 [Eh]
	-----------------------------------------------------------

  Dipole Moment: [D]
     X:    -2.5269      Y:     1.2217      Z:     4.7855     Total:     5.5479

*** Psi4 exiting successfully. Buy a developer a beer!
