                               Psi4 1.3.2 release

  ==> Input File <==

--------------------------------------------------------------------------
#psi4
#
memory 32 gb

molecule  {
0 1
  S        1.0053540    -0.0074810    -0.7736030
  S       -1.6960990    -1.1658100     0.0116150
  O        1.2204833    -1.3776753    -1.2357069
  O        1.3858060     1.2139170    -1.4782970
  N        1.8781370    -0.0233820     0.6524530
  C       -0.6861290     0.1873580    -0.3161810
  C        1.8702590     1.2384050     1.3961810
  C        1.6932100    -1.2084810     1.4940670
  C       -1.3340060     1.3908220    -0.1017950
  C       -2.6674560     1.1993540     0.3271550
  C       -2.9984720    -0.1352680     0.4414500
  H        2.0840190     2.0584320     0.7119160
  H        2.6656140     1.1849010     2.1428720
  H        0.9115380     1.4151000     1.9054530
  H        1.7293810    -2.1000160     0.8695980
  H        0.7471110    -1.1811200     2.0534300
  H        2.5234680    -1.2398400     2.2034110
  H       -0.8634200     2.3493520    -0.2940320
  H       -3.3646430     2.0039100     0.5365790
  H       -3.9505650    -0.5636820     0.7303990
units angstrom
no_reorient  #important for SAPT in psi4, default
symmetry c1  #important for SAPT in psi4, default
}

set PROPERTIES_ORIGIN ["COM"]
properties('MP2/aug-cc-pvtz', properties = ['dipole'])
--------------------------------------------------------------------------

    Molecular point group: c1
  Charge       = 0
  Multiplicity = 1
  Basis Set: AUG-CC-PVTZ
    Blend: AUG-CC-PVTZ
  Basis Set: (AUG-CC-PVTZ AUX)
    Blend: AUG-CC-PVTZ-JKFIT

    Orbital Energies [Eh]
    ---------------------

    Doubly Occupied:

       1A    -92.208371     2A    -92.018132     3A    -20.554323
       4A    -20.548176     5A    -15.599055     6A    -11.301865
       7A    -11.297760     8A    -11.279768     9A    -11.267325
      10A    -11.266095    11A    -11.264937    12A     -9.172521
      13A     -9.017608    14A     -6.857710    15A     -6.857415
      16A     -6.856912    17A     -6.698439    18A     -6.697911
      19A     -6.697150    20A     -1.456943    21A     -1.344056
      22A     -1.245236    23A     -1.203455    24A     -1.033559
      25A     -1.019225    26A     -0.976706    27A     -0.942417
      28A     -0.854155    29A     -0.788530    30A     -0.752730
      31A     -0.727614    32A     -0.704520    33A     -0.660978
      34A     -0.656554    35A     -0.627699    36A     -0.616015
      37A     -0.590340    38A     -0.574614    39A     -0.569536
      40A     -0.564608    41A     -0.550586    42A     -0.537439
      43A     -0.510383    44A     -0.501856    45A     -0.498962
      46A     -0.474758    47A     -0.466153    48A     -0.413385
      49A     -0.374141    50A     -0.355640

  @DF-RHF Final Energy: -1231.78498809309644

   => Energetics <=

    Nuclear Repulsion Energy =            893.0222699978173750
    One-Electron Energy =               -3469.5059817623491654
    Two-Electron Energy =                1344.6987236714355731
    Total Energy =                      -1231.7849880930964446
  Basis Set: (AUG-CC-PVTZ AUX)
    Blend: AUG-CC-PVTZ-RI
    Molecular point group: c1

    Geometry (in Angstrom), charge = 0, multiplicity = 1:

       Center              X                  Y                   Z               Mass
    ------------   -----------------  -----------------  -----------------  -----------------
         S            1.010938500981     0.015739123547    -0.727525636533    31.972071174400
         S           -1.690514499019    -1.142589876453     0.057692363467    31.972071174400
         O            1.226067800981    -1.354455176453    -1.189629536533    15.994914619570
         O            1.391390500981     1.237137123547    -1.432219636533    15.994914619570
         N            1.883721500981    -0.000161876453     0.698530363467    14.003074004430
         C           -0.680544499019     0.210578123547    -0.270103636533    12.000000000000
         C            1.875843500981     1.261625123547     1.442258363467    12.000000000000
         C            1.698794500981    -1.185260876453     1.540144363467    12.000000000000
         C           -1.328421499019     1.414042123547    -0.055717636533    12.000000000000
         C           -2.661871499019     1.222574123547     0.373232363467    12.000000000000
         C           -2.992887499019    -0.112047876453     0.487527363467    12.000000000000
         H            2.089603500981     2.081652123547     0.757993363467     1.007825032230
         H            2.671198500981     1.208121123547     2.188949363467     1.007825032230
         H            0.917122500981     1.438320123547     1.951530363467     1.007825032230
         H            1.734965500981    -2.076795876453     0.915675363467     1.007825032230
         H            0.752695500981    -1.157899876453     2.099507363467     1.007825032230
         H            2.529052500981    -1.216619876453     2.249488363467     1.007825032230
         H           -0.857835499019     2.372572123547    -0.247954636533     1.007825032230
         H           -3.359058499019     2.027130123547     0.582656363467     1.007825032230
         H           -3.944980499019    -0.540461876453     0.776476363467     1.007825032230

  Basis Set: AUG-CC-PVTZ
    Blend: AUG-CC-PVTZ
  Basis Set: (AUG-CC-PVTZ AUX)
    Blend: AUG-CC-PVTZ-JKFIT
	 Reference Energy          =   -1231.7849880930964446 [Eh]
	 Singles Energy            =      -0.0000000000000000 [Eh]
	 Same-Spin Energy          =      -0.5867362977200835 [Eh]
	 Opposite-Spin Energy      =      -1.7449501334703932 [Eh]
	 Correlation Energy        =      -2.3316864311904766 [Eh]
	 Total Energy              =   -1234.1166745242869638 [Eh]

	 ================> DF-SCS-MP2 Energies <==================
	-----------------------------------------------------------
	 SCS Same-Spin Scale       =       0.3333333333333333 [-]
	 SCS Opposite-Spin Scale   =       1.2000000000000000 [-]
	 SCS Same-Spin Energy      =      -0.1955787659066945 [Eh]
	 SCS Opposite-Spin Energy  =      -2.0939401601644718 [Eh]
	 SCS Correlation Energy    =      -2.2895189260711661 [Eh]
	 SCS Total Energy          =   -1234.0745070191676405 [Eh]
	-----------------------------------------------------------

  Dipole Moment: [D]
     X:    -2.8683      Y:     0.8363      Z:     4.4439     Total:     5.3549

*** Psi4 exiting successfully. Buy a developer a beer!
