                               Psi4 1.3.2 release

  ==> Input File <==

--------------------------------------------------------------------------
#psi4
#
memory 32 gb

molecule  {
0 1
  S        1.0053540    -0.0074810    -0.7736030
  S       -1.6960990    -1.1658100     0.0116150
  O        1.1339470    -1.3419000    -1.3567350
  O        1.3858060     1.2139170    -1.4782970
  N        1.8781370    -0.0233820     0.6524530
  C       -0.7820702     0.1984093    -0.2902359
  C        1.8702590     1.2384050     1.3961810
  C        1.6932100    -1.2084810     1.4940670
  C       -1.3340060     1.3908220    -0.1017950
  C       -2.6674560     1.1993540     0.3271550
  C       -2.9984720    -0.1352680     0.4414500
  H        2.0840190     2.0584320     0.7119160
  H        2.6656140     1.1849010     2.1428720
  H        0.9115380     1.4151000     1.9054530
  H        1.7293810    -2.1000160     0.8695980
  H        0.7471110    -1.1811200     2.0534300
  H        2.5234680    -1.2398400     2.2034110
  H       -0.8634200     2.3493520    -0.2940320
  H       -3.3646430     2.0039100     0.5365790
  H       -3.9505650    -0.5636820     0.7303990
units angstrom
no_reorient  #important for SAPT in psi4, default
symmetry c1  #important for SAPT in psi4, default
}

set PROPERTIES_ORIGIN ["COM"]
properties('MP2/aug-cc-pvtz', properties = ['dipole'])
--------------------------------------------------------------------------

    Molecular point group: c1
  Charge       = 0
  Multiplicity = 1
  Basis Set: AUG-CC-PVTZ
    Blend: AUG-CC-PVTZ
  Basis Set: (AUG-CC-PVTZ AUX)
    Blend: AUG-CC-PVTZ-JKFIT

    Orbital Energies [Eh]
    ---------------------

    Doubly Occupied:

       1A    -92.208191     2A    -92.013123     3A    -20.551529
       4A    -20.551087     5A    -15.608398     6A    -11.296579
       7A    -11.288265     8A    -11.273014     9A    -11.271769
      10A    -11.264144    11A    -11.261574    12A     -9.171925
      13A     -9.014120    14A     -6.856968    15A     -6.856534
      16A     -6.856344    17A     -6.695091    18A     -6.694380
      19A     -6.693543    20A     -1.454228    21A     -1.340452
      22A     -1.253672    23A     -1.213872    24A     -1.025683
      25A     -1.020977    26A     -0.982762    27A     -0.945892
      28A     -0.839227    29A     -0.789205    30A     -0.753436
      31A     -0.729816    32A     -0.703437    33A     -0.662253
      34A     -0.658457    35A     -0.622135    36A     -0.615986
      37A     -0.585462    38A     -0.579627    39A     -0.573467
      40A     -0.569680    41A     -0.557603    42A     -0.543021
      43A     -0.515068    44A     -0.502973    45A     -0.498621
      46A     -0.474371    47A     -0.460063    48A     -0.413461
      49A     -0.374178    50A     -0.355459

  @DF-RHF Final Energy: -1231.78094998438905

   => Energetics <=

    Nuclear Repulsion Energy =            891.9841458498858628
    One-Electron Energy =               -3467.4479459021345065
    Two-Electron Energy =                1343.6828500678595901
    Total Energy =                      -1231.7809499843890535
  Basis Set: (AUG-CC-PVTZ AUX)
    Blend: AUG-CC-PVTZ-RI
    Molecular point group: c1

    Geometry (in Angstrom), charge = 0, multiplicity = 1:

       Center              X                  Y                   Z               Mass
    ------------   -----------------  -----------------  -----------------  -----------------
         S            1.024212511250     0.012049014120    -0.719020770631    31.972071174400
         S           -1.677240488750    -1.146279985880     0.066197229369    31.972071174400
         O            1.152805511250    -1.322369985880    -1.302152770631    15.994914619570
         O            1.404664511250     1.233447014120    -1.423714770631    15.994914619570
         N            1.896995511250    -0.003851985880     0.707035229369    14.003074004430
         C           -0.763211688750     0.217939314120    -0.235653670631    12.000000000000
         C            1.889117511250     1.257935014120     1.450763229369    12.000000000000
         C            1.712068511250    -1.188950985880     1.548649229369    12.000000000000
         C           -1.315147488750     1.410352014120    -0.047212770631    12.000000000000
         C           -2.648597488750     1.218884014120     0.381737229369    12.000000000000
         C           -2.979613488750    -0.115737985880     0.496032229369    12.000000000000
         H            2.102877511250     2.077962014120     0.766498229369     1.007825032230
         H            2.684472511250     1.204431014120     2.197454229369     1.007825032230
         H            0.930396511250     1.434630014120     1.960035229369     1.007825032230
         H            1.748239511250    -2.080485985880     0.924180229369     1.007825032230
         H            0.765969511250    -1.161589985880     2.108012229369     1.007825032230
         H            2.542326511250    -1.220309985880     2.257993229369     1.007825032230
         H           -0.844561488750     2.368882014120    -0.239449770631     1.007825032230
         H           -3.345784488750     2.023440014120     0.591161229369     1.007825032230
         H           -3.931706488750    -0.544151985880     0.784981229369     1.007825032230

  Basis Set: AUG-CC-PVTZ
    Blend: AUG-CC-PVTZ
  Basis Set: (AUG-CC-PVTZ AUX)
    Blend: AUG-CC-PVTZ-JKFIT
	 Reference Energy          =   -1231.7809499843890535 [Eh]
	 Singles Energy            =      -0.0000000000000000 [Eh]
	 Same-Spin Energy          =      -0.5857504589643233 [Eh]
	 Opposite-Spin Energy      =      -1.7437355193179656 [Eh]
	 Correlation Energy        =      -2.3294859782822890 [Eh]
	 Total Energy              =   -1234.1104359626713176 [Eh]

	 ================> DF-SCS-MP2 Energies <==================
	-----------------------------------------------------------
	 SCS Same-Spin Scale       =       0.3333333333333333 [-]
	 SCS Opposite-Spin Scale   =       1.2000000000000000 [-]
	 SCS Same-Spin Energy      =      -0.1952501529881078 [Eh]
	 SCS Opposite-Spin Energy  =      -2.0924826231815588 [Eh]
	 SCS Correlation Energy    =      -2.2877327761696664 [Eh]
	 SCS Total Energy          =   -1234.0686827605586586 [Eh]
	-----------------------------------------------------------

  Dipole Moment: [D]
     X:    -2.3263      Y:     0.6874      Z:     4.7178     Total:     5.3049

*** Psi4 exiting successfully. Buy a developer a beer!
