                               Psi4 1.3.2 release

  ==> Input File <==

--------------------------------------------------------------------------
#psi4
#
memory 32 gb

molecule  {
0 1
  S        1.0053540    -0.0074810    -0.7736030
  S       -1.6960990    -1.1658100     0.0116150
  O        1.1433427    -1.3314452    -1.3780293
  O        1.3858060     1.2139170    -1.4782970
  N        1.8781370    -0.0233820     0.6524530
  C       -0.6861290     0.1873580    -0.3161810
  C        1.8702590     1.2384050     1.3961810
  C        1.6932100    -1.2084810     1.4940670
  C       -1.3340060     1.3908220    -0.1017950
  C       -2.6674560     1.1993540     0.3271550
  C       -2.9984720    -0.1352680     0.4414500
  H        2.0840190     2.0584320     0.7119160
  H        2.6656140     1.1849010     2.1428720
  H        0.9115380     1.4151000     1.9054530
  H        1.7293810    -2.1000160     0.8695980
  H        0.7471110    -1.1811200     2.0534300
  H        2.5234680    -1.2398400     2.2034110
  H       -0.8634200     2.3493520    -0.2940320
  H       -3.3646430     2.0039100     0.5365790
  H       -3.9505650    -0.5636820     0.7303990
units angstrom
no_reorient  #important for SAPT in psi4, default
symmetry c1  #important for SAPT in psi4, default
}

set PROPERTIES_ORIGIN ["COM"]
properties('MP2/aug-cc-pvtz', properties = ['dipole'])
--------------------------------------------------------------------------

    Molecular point group: c1
  Charge       = 0
  Multiplicity = 1
  Basis Set: AUG-CC-PVTZ
    Blend: AUG-CC-PVTZ
  Basis Set: (AUG-CC-PVTZ AUX)
    Blend: AUG-CC-PVTZ-JKFIT

    Orbital Energies [Eh]
    ---------------------

    Doubly Occupied:

       1A    -92.207958     2A    -92.016393     3A    -20.549590
       4A    -20.547732     5A    -15.607040     6A    -11.299142
       7A    -11.295885     8A    -11.277421     9A    -11.272395
      10A    -11.271334    11A    -11.264543    12A     -9.172158
      13A     -9.015916    14A     -6.857273    15A     -6.856982
      16A     -6.856649    17A     -6.696757    18A     -6.696227
      19A     -6.695467    20A     -1.455316    21A     -1.338394
      22A     -1.253457    23A     -1.201608    24A     -1.031913
      25A     -1.017524    26A     -0.982178    27A     -0.946527
      28A     -0.853640    29A     -0.786839    30A     -0.753696
      31A     -0.727655    32A     -0.703419    33A     -0.661808
      34A     -0.659107    35A     -0.628072    36A     -0.615812
      37A     -0.588556    38A     -0.579827    39A     -0.572491
      40A     -0.564129    41A     -0.550011    42A     -0.542258
      43A     -0.509683    44A     -0.500965    45A     -0.496536
      46A     -0.471908    47A     -0.468112    48A     -0.417936
      49A     -0.372678    50A     -0.354337

  @DF-RHF Final Energy: -1231.78948715231991

   => Energetics <=

    Nuclear Repulsion Energy =            892.1986753150523555
    One-Electron Energy =               -3467.8498104536847677
    Two-Electron Energy =                1343.8616479863126187
    Total Energy =                      -1231.7894871523199072
  Basis Set: (AUG-CC-PVTZ AUX)
    Blend: AUG-CC-PVTZ-RI
    Molecular point group: c1

    Geometry (in Angstrom), charge = 0, multiplicity = 1:

       Center              X                  Y                   Z               Mass
    ------------   -----------------  -----------------  -----------------  -----------------
         S            1.017398234231     0.011867827315    -0.715607596752    31.972071174400
         S           -1.684054765769    -1.146461172685     0.069610403248    31.972071174400
         O            1.155386934231    -1.312096372685    -1.320033896752    15.994914619570
         O            1.397850234231     1.233265827315    -1.420301596752    15.994914619570
         N            1.890181234231    -0.004033172685     0.710448403248    14.003074004430
         C           -0.674084765769     0.206706827315    -0.258185596752    12.000000000000
         C            1.882303234231     1.257753827315     1.454176403248    12.000000000000
         C            1.705254234231    -1.189132172685     1.552062403248    12.000000000000
         C           -1.321961765769     1.410170827315    -0.043799596752    12.000000000000
         C           -2.655411765769     1.218702827315     0.385150403248    12.000000000000
         C           -2.986427765769    -0.115919172685     0.499445403248    12.000000000000
         H            2.096063234231     2.077780827315     0.769911403248     1.007825032230
         H            2.677658234231     1.204249827315     2.200867403248     1.007825032230
         H            0.923582234231     1.434448827315     1.963448403248     1.007825032230
         H            1.741425234231    -2.080667172685     0.927593403248     1.007825032230
         H            0.759155234231    -1.161771172685     2.111425403248     1.007825032230
         H            2.535512234231    -1.220491172685     2.261406403248     1.007825032230
         H           -0.851375765769     2.368700827315    -0.236036596752     1.007825032230
         H           -3.352598765769     2.023258827315     0.594574403248     1.007825032230
         H           -3.938520765769    -0.544333172685     0.788394403248     1.007825032230

  Basis Set: AUG-CC-PVTZ
    Blend: AUG-CC-PVTZ
  Basis Set: (AUG-CC-PVTZ AUX)
    Blend: AUG-CC-PVTZ-JKFIT
	 Reference Energy          =   -1231.7894871523199072 [Eh]
	 Singles Energy            =      -0.0000000000000000 [Eh]
	 Same-Spin Energy          =      -0.5860581720615452 [Eh]
	 Opposite-Spin Energy      =      -1.7438929932202862 [Eh]
	 Correlation Energy        =      -2.3299511652818312 [Eh]
	 Total Energy              =   -1234.1194383176016345 [Eh]

	 ================> DF-SCS-MP2 Energies <==================
	-----------------------------------------------------------
	 SCS Same-Spin Scale       =       0.3333333333333333 [-]
	 SCS Opposite-Spin Scale   =       1.2000000000000000 [-]
	 SCS Same-Spin Energy      =      -0.1953527240205151 [Eh]
	 SCS Opposite-Spin Energy  =      -2.0926715918643435 [Eh]
	 SCS Correlation Energy    =      -2.2880243158848588 [Eh]
	 SCS Total Energy          =   -1234.0775114682048752 [Eh]
	-----------------------------------------------------------

  Dipole Moment: [D]
     X:    -2.5988      Y:     0.7293      Z:     4.8271     Total:     5.5305

*** Psi4 exiting successfully. Buy a developer a beer!
