                               Psi4 1.3.2 release

  ==> Input File <==

--------------------------------------------------------------------------
#psi4
#
memory 32 gb

molecule  {
0 1
  S        1.0053540    -0.0074810    -0.7736030
  S       -1.6960990    -1.1658100     0.0116150
  O        1.1629962    -1.3554723    -1.3170380
  O        1.3858060     1.2139170    -1.4782970
  N        1.8781370    -0.0233820     0.6524530
  C       -0.6861290     0.1873580    -0.3161810
  C        1.8702590     1.2384050     1.3961810
  C        1.6932100    -1.2084810     1.4940670
  C       -1.3340060     1.3908220    -0.1017950
  C       -2.6674560     1.1993540     0.3271550
  C       -2.9984720    -0.1352680     0.4414500
  H        2.0840190     2.0584320     0.7119160
  H        2.6656140     1.1849010     2.1428720
  H        0.9115380     1.4151000     1.9054530
  H        1.7293810    -2.1000160     0.8695980
  H        0.7471110    -1.1811200     2.0534300
  H        2.5234680    -1.2398400     2.2034110
  H       -0.8634200     2.3493520    -0.2940320
  H       -3.3646430     2.0039100     0.5365790
  H       -3.9505650    -0.5636820     0.7303990
units angstrom
no_reorient  #important for SAPT in psi4, default
symmetry c1  #important for SAPT in psi4, default
}

set PROPERTIES_ORIGIN ["COM"]
properties('MP2/aug-cc-pvtz', properties = ['dipole'])
--------------------------------------------------------------------------

    Molecular point group: c1
  Charge       = 0
  Multiplicity = 1
  Basis Set: AUG-CC-PVTZ
    Blend: AUG-CC-PVTZ
  Basis Set: (AUG-CC-PVTZ AUX)
    Blend: AUG-CC-PVTZ-JKFIT

    Orbital Energies [Eh]
    ---------------------

    Doubly Occupied:

       1A    -92.208338     2A    -92.016746     3A    -20.551026
       4A    -20.549330     5A    -15.604123     6A    -11.299690
       7A    -11.296297     8A    -11.277964     9A    -11.270566
      10A    -11.268855    11A    -11.264854    12A     -9.172481
      13A     -9.016244    14A     -6.857618    15A     -6.857349
      16A     -6.856935    17A     -6.697079    18A     -6.696551
      19A     -6.695791    20A     -1.456134    21A     -1.341333
      22A     -1.250426    23A     -1.201986    24A     -1.032144
      25A     -1.017863    26A     -0.980107    27A     -0.944923
      28A     -0.853666    29A     -0.787180    30A     -0.753238
      31A     -0.727622    32A     -0.704061    33A     -0.661684
      34A     -0.658018    35A     -0.627824    36A     -0.616193
      37A     -0.588987    38A     -0.577760    39A     -0.571105
      40A     -0.564468    41A     -0.549980    42A     -0.540452
      43A     -0.509768    44A     -0.501166    45A     -0.498204
      46A     -0.473854    47A     -0.467576    48A     -0.416221
      49A     -0.372946    50A     -0.354605

  @DF-RHF Final Energy: -1231.78862514743037

   => Energetics <=

    Nuclear Repulsion Energy =            892.6227513818797661
    One-Electron Energy =               -3468.7040907123041507
    Two-Electron Energy =                1344.2927141829939046
    Total Energy =                      -1231.7886251474303663
  Basis Set: (AUG-CC-PVTZ AUX)
    Blend: AUG-CC-PVTZ-RI
    Molecular point group: c1

    Geometry (in Angstrom), charge = 0, multiplicity = 1:

       Center              X                  Y                   Z               Mass
    ------------   -----------------  -----------------  -----------------  -----------------
         S            1.015752455388     0.013879850254    -0.720714991931    31.972071174400
         S           -1.685700544612    -1.144449149746     0.064503008069    31.972071174400
         O            1.173394655388    -1.334111449746    -1.264149991931    15.994914619570
         O            1.396204455388     1.235277850254    -1.425408991931    15.994914619570
         N            1.888535455388    -0.002021149746     0.705341008069    14.003074004430
         C           -0.675730544612     0.208718850254    -0.263292991931    12.000000000000
         C            1.880657455388     1.259765850254     1.449069008069    12.000000000000
         C            1.703608455388    -1.187120149746     1.546955008069    12.000000000000
         C           -1.323607544612     1.412182850254    -0.048906991931    12.000000000000
         C           -2.657057544612     1.220714850254     0.380043008069    12.000000000000
         C           -2.988073544612    -0.113907149746     0.494338008069    12.000000000000
         H            2.094417455388     2.079792850254     0.764804008069     1.007825032230
         H            2.676012455388     1.206261850254     2.195760008069     1.007825032230
         H            0.921936455388     1.436460850254     1.958341008069     1.007825032230
         H            1.739779455388    -2.078655149746     0.922486008069     1.007825032230
         H            0.757509455388    -1.159759149746     2.106318008069     1.007825032230
         H            2.533866455388    -1.218479149746     2.256299008069     1.007825032230
         H           -0.853021544612     2.370712850254    -0.241143991931     1.007825032230
         H           -3.354244544612     2.025270850254     0.589467008069     1.007825032230
         H           -3.940166544612    -0.542321149746     0.783287008069     1.007825032230

  Basis Set: AUG-CC-PVTZ
    Blend: AUG-CC-PVTZ
  Basis Set: (AUG-CC-PVTZ AUX)
    Blend: AUG-CC-PVTZ-JKFIT
	 Reference Energy          =   -1231.7886251474303663 [Eh]
	 Singles Energy            =      -0.0000000000000000 [Eh]
	 Same-Spin Energy          =      -0.5863015580546727 [Eh]
	 Opposite-Spin Energy      =      -1.7442552564775284 [Eh]
	 Correlation Energy        =      -2.3305568145322013 [Eh]
	 Total Energy              =   -1234.1191819619625676 [Eh]

	 ================> DF-SCS-MP2 Energies <==================
	-----------------------------------------------------------
	 SCS Same-Spin Scale       =       0.3333333333333333 [-]
	 SCS Opposite-Spin Scale   =       1.2000000000000000 [-]
	 SCS Same-Spin Energy      =      -0.1954338526848909 [Eh]
	 SCS Opposite-Spin Energy  =      -2.0931063077730339 [Eh]
	 SCS Correlation Energy    =      -2.2885401604579245 [Eh]
	 SCS Total Energy          =   -1234.0771653078882082 [Eh]
	-----------------------------------------------------------

  Dipole Moment: [D]
     X:    -2.6693      Y:     0.7822      Z:     4.6647     Total:     5.4311

*** Psi4 exiting successfully. Buy a developer a beer!
