                               Psi4 1.3.2 release

  ==> Input File <==

--------------------------------------------------------------------------
#psi4
#
memory 32 gb

molecule  {
0 1
  S        1.0053540    -0.0074810    -0.7736030
  S       -1.8249321    -1.0474059     0.0540066
  O        1.1339470    -1.3419000    -1.3567350
  O        1.3858060     1.2139170    -1.4782970
  N        1.8781370    -0.0233820     0.6524530
  C       -0.6861290     0.1873580    -0.3161810
  C        1.8702590     1.2384050     1.3961810
  C        1.6932100    -1.2084810     1.4940670
  C       -1.3340060     1.3908220    -0.1017950
  C       -2.6674560     1.1993540     0.3271550
  C       -2.9984720    -0.1352680     0.4414500
  H        2.0840190     2.0584320     0.7119160
  H        2.6656140     1.1849010     2.1428720
  H        0.9115380     1.4151000     1.9054530
  H        1.7293810    -2.1000160     0.8695980
  H        0.7471110    -1.1811200     2.0534300
  H        2.5234680    -1.2398400     2.2034110
  H       -0.8634200     2.3493520    -0.2940320
  H       -3.3646430     2.0039100     0.5365790
  H       -3.9505650    -0.5636820     0.7303990
units angstrom
no_reorient  #important for SAPT in psi4, default
symmetry c1  #important for SAPT in psi4, default
}

set PROPERTIES_ORIGIN ["COM"]
properties('MP2/aug-cc-pvtz', properties = ['dipole'])
--------------------------------------------------------------------------

    Molecular point group: c1
  Charge       = 0
  Multiplicity = 1
  Basis Set: AUG-CC-PVTZ
    Blend: AUG-CC-PVTZ
  Basis Set: (AUG-CC-PVTZ AUX)
    Blend: AUG-CC-PVTZ-JKFIT

    Orbital Energies [Eh]
    ---------------------

    Doubly Occupied:

       1A    -92.210328     2A    -92.010557     3A    -20.550982
       4A    -20.548664     5A    -15.606558     6A    -11.292462
       7A    -11.280242     8A    -11.274160     9A    -11.272068
      10A    -11.271068    11A    -11.256226    12A     -9.174020
      13A     -9.015657    14A     -6.859179    15A     -6.858930
      16A     -6.858510    17A     -6.697109    18A     -6.695764
      19A     -6.695034    20A     -1.455693    21A     -1.339861
      22A     -1.252989    23A     -1.231822    24A     -1.051086
      25A     -1.015815    26A     -0.981893    27A     -0.945933
      28A     -0.852899    29A     -0.790166    30A     -0.755391
      31A     -0.727645    32A     -0.704577    33A     -0.664909
      34A     -0.661684    35A     -0.635842    36A     -0.615942
      37A     -0.589025    38A     -0.581825    39A     -0.572961
      40A     -0.568139    41A     -0.566726    42A     -0.541937
      43A     -0.508748    44A     -0.501107    45A     -0.490509
      46A     -0.473240    47A     -0.469054    48A     -0.419549
      49A     -0.378726    50A     -0.349064

  @DF-RHF Final Energy: -1231.76691140986350

   => Energetics <=

    Nuclear Repulsion Energy =            895.0865704780378564
    One-Electron Energy =               -3473.4624094312798661
    Two-Electron Energy =                1346.6089275433787407
    Total Energy =                      -1231.7669114098634964
  Basis Set: (AUG-CC-PVTZ AUX)
    Blend: AUG-CC-PVTZ-RI
    Molecular point group: c1

    Geometry (in Angstrom), charge = 0, multiplicity = 1:

       Center              X                  Y                   Z               Mass
    ------------   -----------------  -----------------  -----------------  -----------------
         S            1.039749948760    -0.007075937882    -0.724486557113    31.972071174400
         S           -1.790536151240    -1.047000837882     0.103123042887    31.972071174400
         O            1.168342948760    -1.341494937882    -1.307618557113    15.994914619570
         O            1.420201948760     1.214322062118    -1.429180557113    15.994914619570
         N            1.912532948760    -0.022976937882     0.701569442887    14.003074004430
         C           -0.651733051240     0.187763062118    -0.267064557113    12.000000000000
         C            1.904654948760     1.238810062118     1.445297442887    12.000000000000
         C            1.727605948760    -1.208075937882     1.543183442887    12.000000000000
         C           -1.299610051240     1.391227062118    -0.052678557113    12.000000000000
         C           -2.633060051240     1.199759062118     0.376271442887    12.000000000000
         C           -2.964076051240    -0.134862937882     0.490566442887    12.000000000000
         H            2.118414948760     2.058837062118     0.761032442887     1.007825032230
         H            2.700009948760     1.185306062118     2.191988442887     1.007825032230
         H            0.945933948760     1.415505062118     1.954569442887     1.007825032230
         H            1.763776948760    -2.099610937882     0.918714442887     1.007825032230
         H            0.781506948760    -1.180714937882     2.102546442887     1.007825032230
         H            2.557863948760    -1.239434937882     2.252527442887     1.007825032230
         H           -0.829024051240     2.349757062118    -0.244915557113     1.007825032230
         H           -3.330247051240     2.004315062118     0.585695442887     1.007825032230
         H           -3.916169051240    -0.563276937882     0.779515442887     1.007825032230

  Basis Set: AUG-CC-PVTZ
    Blend: AUG-CC-PVTZ
  Basis Set: (AUG-CC-PVTZ AUX)
    Blend: AUG-CC-PVTZ-JKFIT
	 Reference Energy          =   -1231.7669114098634964 [Eh]
	 Singles Energy            =      -0.0000000000000000 [Eh]
	 Same-Spin Energy          =      -0.5876302703616401 [Eh]
	 Opposite-Spin Energy      =      -1.7424119431087493 [Eh]
	 Correlation Energy        =      -2.3300422134703895 [Eh]
	 Total Energy              =   -1234.0969536233337749 [Eh]

	 ================> DF-SCS-MP2 Energies <==================
	-----------------------------------------------------------
	 SCS Same-Spin Scale       =       0.3333333333333333 [-]
	 SCS Opposite-Spin Scale   =       1.2000000000000000 [-]
	 SCS Same-Spin Energy      =      -0.1958767567872133 [Eh]
	 SCS Opposite-Spin Energy  =      -2.0908943317304991 [Eh]
	 SCS Correlation Energy    =      -2.2867710885177126 [Eh]
	 SCS Total Energy          =   -1234.0536824983812494 [Eh]
	-----------------------------------------------------------

  Dipole Moment: [D]
     X:    -2.6469      Y:     0.6974      Z:     4.8071     Total:     5.5317

*** Psi4 exiting successfully. Buy a developer a beer!
