                               Psi4 1.3.2 release

  ==> Input File <==

--------------------------------------------------------------------------
#psi4
#
memory 32 gb

molecule  {
0 1
  S        1.0053540    -0.0074810    -0.7736030
  S       -1.6960990    -1.1658100     0.0116150
  O        1.1918534    -1.3674022    -1.2766789
  O        1.3858060     1.2139170    -1.4782970
  N        1.8781370    -0.0233820     0.6524530
  C       -0.6861290     0.1873580    -0.3161810
  C        1.8702590     1.2384050     1.3961810
  C        1.6932100    -1.2084810     1.4940670
  C       -1.3340060     1.3908220    -0.1017950
  C       -2.6674560     1.1993540     0.3271550
  C       -2.9984720    -0.1352680     0.4414500
  H        2.0840190     2.0584320     0.7119160
  H        2.6656140     1.1849010     2.1428720
  H        0.9115380     1.4151000     1.9054530
  H        1.7293810    -2.1000160     0.8695980
  H        0.7471110    -1.1811200     2.0534300
  H        2.5234680    -1.2398400     2.2034110
  H       -0.8634200     2.3493520    -0.2940320
  H       -3.3646430     2.0039100     0.5365790
  H       -3.9505650    -0.5636820     0.7303990
units angstrom
no_reorient  #important for SAPT in psi4, default
symmetry c1  #important for SAPT in psi4, default
}

set PROPERTIES_ORIGIN ["COM"]
properties('MP2/aug-cc-pvtz', properties = ['dipole'])
--------------------------------------------------------------------------

    Molecular point group: c1
  Charge       = 0
  Multiplicity = 1
  Basis Set: AUG-CC-PVTZ
    Blend: AUG-CC-PVTZ
  Basis Set: (AUG-CC-PVTZ AUX)
    Blend: AUG-CC-PVTZ-JKFIT

    Orbital Energies [Eh]
    ---------------------

    Doubly Occupied:

       1A    -92.208361     2A    -92.017441     3A    -20.552685
       4A    -20.548790     5A    -15.601625     6A    -11.300768
       7A    -11.297034     8A    -11.278873     9A    -11.268981
      10A    -11.266924    11A    -11.265476    12A     -9.172501
      13A     -9.016927    14A     -6.857663    15A     -6.857385
      16A     -6.856926    17A     -6.697760    18A     -6.697232
      19A     -6.696471    20A     -1.456510    21A     -1.342696
      22A     -1.247891    23A     -1.202724    24A     -1.032848
      25A     -1.018545    26A     -0.978428    27A     -0.943673
      28A     -0.853919    29A     -0.787854    30A     -0.752965
      31A     -0.727652    32A     -0.704278    33A     -0.661318
      34A     -0.657273    35A     -0.627779    36A     -0.616119
      37A     -0.589663    38A     -0.576174    39A     -0.570181
      40A     -0.564709    41A     -0.550305    42A     -0.538958
      43A     -0.510048    44A     -0.501426    45A     -0.498698
      46A     -0.474414    47A     -0.466982    48A     -0.414846
      49A     -0.373545    50A     -0.355148

  @DF-RHF Final Energy: -1231.78720530299756

   => Energetics <=

    Nuclear Repulsion Energy =            892.8085010164470532
    One-Electron Energy =               -3469.0766259614056253
    Two-Electron Energy =                1344.4809196419612363
    Total Energy =                      -1231.7872053029975632
  Basis Set: (AUG-CC-PVTZ AUX)
    Blend: AUG-CC-PVTZ-RI
    Molecular point group: c1

    Geometry (in Angstrom), charge = 0, multiplicity = 1:

       Center              X                  Y                   Z               Mass
    ------------   -----------------  -----------------  -----------------  -----------------
         S            1.013335961164     0.014878856896    -0.724094652191    31.972071174400
         S           -1.688117038836    -1.143450143104     0.061123347809    31.972071174400
         O            1.199835361164    -1.345042343104    -1.227170552191    15.994914619570
         O            1.393787961164     1.236276856896    -1.428788652191    15.994914619570
         N            1.886118961164    -0.001022143104     0.701961347809    14.003074004430
         C           -0.678147038836     0.209717856896    -0.266672652191    12.000000000000
         C            1.878240961164     1.260764856896     1.445689347809    12.000000000000
         C            1.701191961164    -1.186121143104     1.543575347809    12.000000000000
         C           -1.326024038836     1.413181856896    -0.052286652191    12.000000000000
         C           -2.659474038836     1.221713856896     0.376663347809    12.000000000000
         C           -2.990490038836    -0.112908143104     0.490958347809    12.000000000000
         H            2.092000961164     2.080791856896     0.761424347809     1.007825032230
         H            2.673595961164     1.207260856896     2.192380347809     1.007825032230
         H            0.919519961164     1.437459856896     1.954961347809     1.007825032230
         H            1.737362961164    -2.077656143104     0.919106347809     1.007825032230
         H            0.755092961164    -1.158760143104     2.102938347809     1.007825032230
         H            2.531449961164    -1.217480143104     2.252919347809     1.007825032230
         H           -0.855438038836     2.371711856896    -0.244523652191     1.007825032230
         H           -3.356661038836     2.026269856896     0.586087347809     1.007825032230
         H           -3.942583038836    -0.541322143104     0.779907347809     1.007825032230

  Basis Set: AUG-CC-PVTZ
    Blend: AUG-CC-PVTZ
  Basis Set: (AUG-CC-PVTZ AUX)
    Blend: AUG-CC-PVTZ-JKFIT
	 Reference Energy          =   -1231.7872053029975632 [Eh]
	 Singles Energy            =      -0.0000000000000000 [Eh]
	 Same-Spin Energy          =      -0.5864972189126787 [Eh]
	 Opposite-Spin Energy      =      -1.7445593478338337 [Eh]
	 Correlation Energy        =      -2.3310565667465122 [Eh]
	 Total Energy              =   -1234.1182618697441740 [Eh]

	 ================> DF-SCS-MP2 Energies <==================
	-----------------------------------------------------------
	 SCS Same-Spin Scale       =       0.3333333333333333 [-]
	 SCS Opposite-Spin Scale   =       1.2000000000000000 [-]
	 SCS Same-Spin Energy      =      -0.1954990729708929 [Eh]
	 SCS Opposite-Spin Energy  =      -2.0934712174006003 [Eh]
	 SCS Correlation Energy    =      -2.2889702903714930 [Eh]
	 SCS Total Energy          =   -1234.0761755933690438 [Eh]
	-----------------------------------------------------------

  Dipole Moment: [D]
     X:    -2.7690      Y:     0.8111      Z:     4.5561     Total:     5.3929

*** Psi4 exiting successfully. Buy a developer a beer!
