                               Psi4 1.3.2 release

  ==> Input File <==

--------------------------------------------------------------------------
#psi4
#
memory 32 gb

molecule  {
0 1
  S        1.0204134    -0.0631995    -0.7822468
  S       -1.6960990    -1.1658100     0.0116150
  O        1.1339470    -1.3419000    -1.3567350
  O        1.3858060     1.2139170    -1.4782970
  N        1.8781370    -0.0233820     0.6524530
  C       -0.6861290     0.1873580    -0.3161810
  C        1.8702590     1.2384050     1.3961810
  C        1.6932100    -1.2084810     1.4940670
  C       -1.3340060     1.3908220    -0.1017950
  C       -2.6674560     1.1993540     0.3271550
  C       -2.9984720    -0.1352680     0.4414500
  H        2.0840190     2.0584320     0.7119160
  H        2.6656140     1.1849010     2.1428720
  H        0.9115380     1.4151000     1.9054530
  H        1.7293810    -2.1000160     0.8695980
  H        0.7471110    -1.1811200     2.0534300
  H        2.5234680    -1.2398400     2.2034110
  H       -0.8634200     2.3493520    -0.2940320
  H       -3.3646430     2.0039100     0.5365790
  H       -3.9505650    -0.5636820     0.7303990
units angstrom
no_reorient  #important for SAPT in psi4, default
symmetry c1  #important for SAPT in psi4, default
}

set PROPERTIES_ORIGIN ["COM"]
properties('MP2/aug-cc-pvtz', properties = ['dipole'])
--------------------------------------------------------------------------

    Molecular point group: c1
  Charge       = 0
  Multiplicity = 1
  Basis Set: AUG-CC-PVTZ
    Blend: AUG-CC-PVTZ
  Basis Set: (AUG-CC-PVTZ AUX)
    Blend: AUG-CC-PVTZ-JKFIT

    Orbital Energies [Eh]
    ---------------------

    Doubly Occupied:

       1A    -92.208750     2A    -92.013304     3A    -20.564177
       4A    -20.540843     5A    -15.606785     6A    -11.297555
       7A    -11.292801     8A    -11.273845     9A    -11.271943
      10A    -11.271757    11A    -11.262501    12A     -9.173270
      13A     -9.013043    14A     -6.858408    15A     -6.858196
      16A     -6.857660    17A     -6.693914    18A     -6.693368
      19A     -6.692626    20A     -1.473731    21A     -1.339156
      22A     -1.252391    23A     -1.198432    24A     -1.025952
      25A     -1.014650    26A     -0.982116    27A     -0.946137
      28A     -0.849494    29A     -0.784180    30A     -0.753714
      31A     -0.726747    32A     -0.708658    33A     -0.665221
      34A     -0.658770    35A     -0.629785    36A     -0.618873
      37A     -0.586778    38A     -0.581863    39A     -0.571881
      40A     -0.561311    41A     -0.547945    42A     -0.543249
      43A     -0.512125    44A     -0.509047    45A     -0.499143
      46A     -0.472962    47A     -0.461453    48A     -0.415891
      49A     -0.370504    50A     -0.351245

  @DF-RHF Final Energy: -1231.78424089033774

   => Energetics <=

    Nuclear Repulsion Energy =            892.2178142350703638
    One-Electron Energy =               -3467.8878118411735159
    Two-Electron Energy =                1343.8857567157654103
    Total Energy =                      -1231.7842408903377418
  Basis Set: (AUG-CC-PVTZ AUX)
    Blend: AUG-CC-PVTZ-RI
    Molecular point group: c1

    Geometry (in Angstrom), charge = 0, multiplicity = 1:

       Center              X                  Y                   Z               Mass
    ------------   -----------------  -----------------  -----------------  -----------------
         S            1.030723687450    -0.033648666072    -0.724587720358    31.972071174400
         S           -1.685788712550    -1.136259166072     0.069274079642    31.972071174400
         O            1.144257287450    -1.312349166072    -1.299075920358    15.994914619570
         O            1.396116287450     1.243467833928    -1.420637920358    15.994914619570
         N            1.888447287450     0.006168833928     0.710112079642    14.003074004430
         C           -0.675818712550     0.216908833928    -0.258521920358    12.000000000000
         C            1.880569287450     1.267955833928     1.453840079642    12.000000000000
         C            1.703520287450    -1.178930166072     1.551726079642    12.000000000000
         C           -1.323695712550     1.420372833928    -0.044135920358    12.000000000000
         C           -2.657145712550     1.228904833928     0.384814079642    12.000000000000
         C           -2.988161712550    -0.105717166072     0.499109079642    12.000000000000
         H            2.094329287450     2.087982833928     0.769575079642     1.007825032230
         H            2.675924287450     1.214451833928     2.200531079642     1.007825032230
         H            0.921848287450     1.444650833928     1.963112079642     1.007825032230
         H            1.739691287450    -2.070465166072     0.927257079642     1.007825032230
         H            0.757421287450    -1.151569166072     2.111089079642     1.007825032230
         H            2.533778287450    -1.210289166072     2.261070079642     1.007825032230
         H           -0.853109712550     2.378902833928    -0.236372920358     1.007825032230
         H           -3.354332712550     2.033460833928     0.594238079642     1.007825032230
         H           -3.940254712550    -0.534131166072     0.788058079642     1.007825032230

  Basis Set: AUG-CC-PVTZ
    Blend: AUG-CC-PVTZ
  Basis Set: (AUG-CC-PVTZ AUX)
    Blend: AUG-CC-PVTZ-JKFIT
	 Reference Energy          =   -1231.7842408903377418 [Eh]
	 Singles Energy            =      -0.0000000000000000 [Eh]
	 Same-Spin Energy          =      -0.5858003497250694 [Eh]
	 Opposite-Spin Energy      =      -1.7435589017461341 [Eh]
	 Correlation Energy        =      -2.3293592514712036 [Eh]
	 Total Energy              =   -1234.1136001418090018 [Eh]

	 ================> DF-SCS-MP2 Energies <==================
	-----------------------------------------------------------
	 SCS Same-Spin Scale       =       0.3333333333333333 [-]
	 SCS Opposite-Spin Scale   =       1.2000000000000000 [-]
	 SCS Same-Spin Energy      =      -0.1952667832416898 [Eh]
	 SCS Opposite-Spin Energy  =      -2.0922706820953607 [Eh]
	 SCS Correlation Energy    =      -2.2875374653370506 [Eh]
	 SCS Total Energy          =   -1234.0717783556747236 [Eh]
	-----------------------------------------------------------

  Dipole Moment: [D]
     X:    -2.3623      Y:     0.3233      Z:     4.6850     Total:     5.2568

*** Psi4 exiting successfully. Buy a developer a beer!
