                               Psi4 1.3.2 release

  ==> Input File <==

--------------------------------------------------------------------------
#psi4
#
memory 32 gb

molecule  {
0 1
  S        1.0053540    -0.0074810    -0.7736030
  S       -1.6960990    -1.1658100     0.0116150
  O        1.1339470    -1.3419000    -1.3567350
  O        1.3858060     1.2139170    -1.4782970
  N        1.8781370    -0.0233820     0.6524530
  C       -0.6861290     0.1873580    -0.3161810
  C        1.8702590     1.2384050     1.3961810
  C        1.6932100    -1.2084810     1.4940670
  C       -1.3340060     1.3908220    -0.1017950
  C       -2.6674560     1.1993540     0.3271550
  C       -2.9225541    -0.1953403     0.4163941
  H        2.0840190     2.0584320     0.7119160
  H        2.6656140     1.1849010     2.1428720
  H        0.9115380     1.4151000     1.9054530
  H        1.7293810    -2.1000160     0.8695980
  H        0.7471110    -1.1811200     2.0534300
  H        2.5234680    -1.2398400     2.2034110
  H       -0.8634200     2.3493520    -0.2940320
  H       -3.3646430     2.0039100     0.5365790
  H       -3.9505650    -0.5636820     0.7303990
units angstrom
no_reorient  #important for SAPT in psi4, default
symmetry c1  #important for SAPT in psi4, default
}

set PROPERTIES_ORIGIN ["COM"]
properties('MP2/aug-cc-pvtz', properties = ['dipole'])
--------------------------------------------------------------------------

    Molecular point group: c1
  Charge       = 0
  Multiplicity = 1
  Basis Set: AUG-CC-PVTZ
    Blend: AUG-CC-PVTZ
  Basis Set: (AUG-CC-PVTZ AUX)
    Blend: AUG-CC-PVTZ-JKFIT

    Orbital Energies [Eh]
    ---------------------

    Doubly Occupied:

       1A    -92.206535     2A    -92.020938     3A    -20.548561
       4A    -20.547779     5A    -15.604857     6A    -11.297045
       7A    -11.293149     8A    -11.275957     9A    -11.271211
      10A    -11.270564    11A    -11.264479    12A     -9.170646
      13A     -9.022469    14A     -6.855760    15A     -6.855481
      16A     -6.855158    17A     -6.703509    18A     -6.702696
      19A     -6.701951    20A     -1.454370    21A     -1.338677
      22A     -1.251632    23A     -1.211302    24A     -1.035139
      25A     -1.020676    26A     -0.981142    27A     -0.942224
      28A     -0.847728    29A     -0.781631    30A     -0.754870
      31A     -0.727147    32A     -0.702860    33A     -0.660875
      34A     -0.657374    35A     -0.625206    36A     -0.615182
      37A     -0.579306    38A     -0.576291    39A     -0.571992
      40A     -0.565493    41A     -0.556106    42A     -0.541197
      43A     -0.519058    44A     -0.502365    45A     -0.496152
      46A     -0.472171    47A     -0.466558    48A     -0.416804
      49A     -0.377507    50A     -0.346477

  @DF-RHF Final Energy: -1231.77761348469403

   => Energetics <=

    Nuclear Repulsion Energy =            894.6294700376976152
    One-Electron Energy =               -3472.6856614575999629
    Two-Electron Energy =                1346.2785779352084319
    Total Energy =                      -1231.7776134846940295
  Basis Set: (AUG-CC-PVTZ AUX)
    Blend: AUG-CC-PVTZ-RI
    Molecular point group: c1

    Geometry (in Angstrom), charge = 0, multiplicity = 1:

       Center              X                  Y                   Z               Mass
    ------------   -----------------  -----------------  -----------------  -----------------
         S            1.013415503204     0.016517337773    -0.715816644650    31.972071174400
         S           -1.688037496796    -1.141811662227     0.069401355350    31.972071174400
         O            1.142008503204    -1.317901662227    -1.298948644650    15.994914619570
         O            1.393867503204     1.237915337773    -1.420510644650    15.994914619570
         N            1.886198503204     0.000616337773     0.710239355350    14.003074004430
         C           -0.678067496796     0.211356337773    -0.258394644650    12.000000000000
         C            1.878320503204     1.262403337773     1.453967355350    12.000000000000
         C            1.701271503204    -1.184482662227     1.551853355350    12.000000000000
         C           -1.325944496796     1.414820337773    -0.044008644650    12.000000000000
         C           -2.659394496796     1.223352337773     0.384941355350    12.000000000000
         C           -2.914492596796    -0.171341962227     0.474180455350    12.000000000000
         H            2.092080503204     2.082430337773     0.769702355350     1.007825032230
         H            2.673675503204     1.208899337773     2.200658355350     1.007825032230
         H            0.919599503204     1.439098337773     1.963239355350     1.007825032230
         H            1.737442503204    -2.076017662227     0.927384355350     1.007825032230
         H            0.755172503204    -1.157121662227     2.111216355350     1.007825032230
         H            2.531529503204    -1.215841662227     2.261197355350     1.007825032230
         H           -0.855358496796     2.373350337773    -0.236245644650     1.007825032230
         H           -3.356581496796     2.027908337773     0.594365355350     1.007825032230
         H           -3.942503496796    -0.539683662227     0.788185355350     1.007825032230

  Basis Set: AUG-CC-PVTZ
    Blend: AUG-CC-PVTZ
  Basis Set: (AUG-CC-PVTZ AUX)
    Blend: AUG-CC-PVTZ-JKFIT
	 Reference Energy          =   -1231.7776134846940295 [Eh]
	 Singles Energy            =      -0.0000000000000000 [Eh]
	 Same-Spin Energy          =      -0.5876357338192667 [Eh]
	 Opposite-Spin Energy      =      -1.7446573294650962 [Eh]
	 Correlation Energy        =      -2.3322930632843630 [Eh]
	 Total Energy              =   -1234.1099065479784258 [Eh]

	 ================> DF-SCS-MP2 Energies <==================
	-----------------------------------------------------------
	 SCS Same-Spin Scale       =       0.3333333333333333 [-]
	 SCS Opposite-Spin Scale   =       1.2000000000000000 [-]
	 SCS Same-Spin Energy      =      -0.1958785779397555 [Eh]
	 SCS Opposite-Spin Energy  =      -2.0935887953581154 [Eh]
	 SCS Correlation Energy    =      -2.2894673732978710 [Eh]
	 SCS Total Energy          =   -1234.0670808579918685 [Eh]
	-----------------------------------------------------------

  Dipole Moment: [D]
     X:    -2.6083      Y:     0.6483      Z:     4.7595     Total:     5.4659

*** Psi4 exiting successfully. Buy a developer a beer!
