                               Psi4 1.3.2 release

  ==> Input File <==

--------------------------------------------------------------------------
#psi4
#
memory 32 gb

molecule  {
0 1
  S        1.0536475    -0.1744233    -0.7942820
  S       -1.6960990    -1.1658100     0.0116150
  O        1.1339470    -1.3419000    -1.3567350
  O        1.3858060     1.2139170    -1.4782970
  N        1.8781370    -0.0233820     0.6524530
  C       -0.6861290     0.1873580    -0.3161810
  C        1.8702590     1.2384050     1.3961810
  C        1.6932100    -1.2084810     1.4940670
  C       -1.3340060     1.3908220    -0.1017950
  C       -2.6674560     1.1993540     0.3271550
  C       -2.9984720    -0.1352680     0.4414500
  H        2.0840190     2.0584320     0.7119160
  H        2.6656140     1.1849010     2.1428720
  H        0.9115380     1.4151000     1.9054530
  H        1.7293810    -2.1000160     0.8695980
  H        0.7471110    -1.1811200     2.0534300
  H        2.5234680    -1.2398400     2.2034110
  H       -0.8634200     2.3493520    -0.2940320
  H       -3.3646430     2.0039100     0.5365790
  H       -3.9505650    -0.5636820     0.7303990
units angstrom
no_reorient  #important for SAPT in psi4, default
symmetry c1  #important for SAPT in psi4, default
}

set PROPERTIES_ORIGIN ["COM"]
properties('MP2/aug-cc-pvtz', properties = ['dipole'])
--------------------------------------------------------------------------

    Molecular point group: c1
  Charge       = 0
  Multiplicity = 1
  Basis Set: AUG-CC-PVTZ
    Blend: AUG-CC-PVTZ
  Basis Set: (AUG-CC-PVTZ AUX)
    Blend: AUG-CC-PVTZ-JKFIT

    Orbital Energies [Eh]
    ---------------------

    Doubly Occupied:

       1A    -92.203571     2A    -92.007373     3A    -20.591236
       4A    -20.523887     5A    -15.607963     6A    -11.294818
       7A    -11.286744     8A    -11.274380     9A    -11.272305
      10A    -11.266815    11A    -11.258618    12A     -9.172868
      13A     -9.007556    14A     -6.859141    15A     -6.856852
      16A     -6.856212    17A     -6.688494    18A     -6.687904
      19A     -6.687202    20A     -1.550998    21A     -1.310990
      22A     -1.244862    23A     -1.192244    24A     -1.016292
      25A     -1.007767    26A     -0.983911    27A     -0.946415
      28A     -0.842915    29A     -0.779046    30A     -0.760495
      31A     -0.730255    32A     -0.726654    33A     -0.681852
      34A     -0.660618    35A     -0.643468    36A     -0.624475
      37A     -0.596774    38A     -0.582148    39A     -0.572084
      40A     -0.556494    41A     -0.547294    42A     -0.543916
      43A     -0.528374    44A     -0.507441    45A     -0.493437
      46A     -0.454362    47A     -0.439629    48A     -0.410818
      49A     -0.366484    50A     -0.344855

  @DF-RHF Final Energy: -1231.73022496058320

   => Energetics <=

    Nuclear Repulsion Energy =            892.0563188539813382
    One-Electron Energy =               -3467.4704703710981448
    Two-Electron Energy =                1343.6839265565336063
    Total Energy =                      -1231.7302249605832003
  Basis Set: (AUG-CC-PVTZ AUX)
    Blend: AUG-CC-PVTZ-RI
    Molecular point group: c1

    Geometry (in Angstrom), charge = 0, multiplicity = 1:

       Center              X                  Y                   Z               Mass
    ------------   -----------------  -----------------  -----------------  -----------------
         S            1.058394847918    -0.126255103969    -0.734608390407    31.972071174400
         S           -1.691351652082    -1.117641803969     0.071288609593    31.972071174400
         O            1.138694347918    -1.293731803969    -1.297061390407    15.994914619570
         O            1.390553347918     1.262085196031    -1.418623390407    15.994914619570
         N            1.882884347918     0.024786196031     0.712126609593    14.003074004430
         C           -0.681381652082     0.235526196031    -0.256507390407    12.000000000000
         C            1.875006347918     1.286573196031     1.455854609593    12.000000000000
         C            1.697957347918    -1.160312803969     1.553740609593    12.000000000000
         C           -1.329258652082     1.438990196031    -0.042121390407    12.000000000000
         C           -2.662708652082     1.247522196031     0.386828609593    12.000000000000
         C           -2.993724652082    -0.087099803969     0.501123609593    12.000000000000
         H            2.088766347918     2.106600196031     0.771589609593     1.007825032230
         H            2.670361347918     1.233069196031     2.202545609593     1.007825032230
         H            0.916285347918     1.463268196031     1.965126609593     1.007825032230
         H            1.734128347918    -2.051847803969     0.929271609593     1.007825032230
         H            0.751858347918    -1.132951803969     2.113103609593     1.007825032230
         H            2.528215347918    -1.191671803969     2.263084609593     1.007825032230
         H           -0.858672652082     2.397520196031    -0.234358390407     1.007825032230
         H           -3.359895652082     2.052078196031     0.596252609593     1.007825032230
         H           -3.945817652082    -0.515513803969     0.790072609593     1.007825032230

  Basis Set: AUG-CC-PVTZ
    Blend: AUG-CC-PVTZ
  Basis Set: (AUG-CC-PVTZ AUX)
    Blend: AUG-CC-PVTZ-JKFIT
	 Reference Energy          =   -1231.7302249605832003 [Eh]
	 Singles Energy            =      -0.0000000000000000 [Eh]
	 Same-Spin Energy          =      -0.5847110389811950 [Eh]
	 Opposite-Spin Energy      =      -1.7424875178756163 [Eh]
	 Correlation Energy        =      -2.3271985568568114 [Eh]
	 Total Energy              =   -1234.0574235174399291 [Eh]

	 ================> DF-SCS-MP2 Energies <==================
	-----------------------------------------------------------
	 SCS Same-Spin Scale       =       0.3333333333333333 [-]
	 SCS Opposite-Spin Scale   =       1.2000000000000000 [-]
	 SCS Same-Spin Energy      =      -0.1949036796603983 [Eh]
	 SCS Opposite-Spin Energy  =      -2.0909850214507393 [Eh]
	 SCS Correlation Energy    =      -2.2858887011111375 [Eh]
	 SCS Total Energy          =   -1234.0161136616943622 [Eh]
	-----------------------------------------------------------

  Dipole Moment: [D]
     X:    -1.9186      Y:    -0.5246      Z:     4.5978     Total:     5.0096

*** Psi4 exiting successfully. Buy a developer a beer!
