                               Psi4 1.3.2 release

  ==> Input File <==

--------------------------------------------------------------------------
#psi4
#
memory 32 gb

molecule  {
0 1
  F       -2.7449650     0.0145570    -0.0001620
  O        2.7531530    -0.0983640     0.0001690
  C        1.3806500    -0.0137200     0.0000700
  C        0.6751730    -1.2211850     0.0000160
  C        0.6920200     1.2024970     0.0000780
  C       -0.7178840    -1.2139290    -0.0000690
  C       -0.7046260     1.2155960    -0.0000150
  C       -1.2854579     0.0055832    -0.0000632
  H        1.2313420    -2.1539510     0.0000130
  H        1.2396650     2.1436990     0.0001380
  H       -1.2874740    -2.1381980    -0.0001180
  H       -1.2612150     2.1476890    -0.0000120
  H        3.1178830     0.8039200     0.0000280
units angstrom
no_reorient  #important for SAPT in psi4, default
symmetry c1  #important for SAPT in psi4, default
}

set PROPERTIES_ORIGIN ["COM"]
properties('MP2/aug-cc-pvtz', properties = ['dipole'])
--------------------------------------------------------------------------

    Molecular point group: c1
  Charge       = 0
  Multiplicity = 1
  Basis Set: AUG-CC-PVTZ
    Blend: AUG-CC-PVTZ
  Basis Set: (AUG-CC-PVTZ AUX)
    Blend: AUG-CC-PVTZ-JKFIT

    Orbital Energies [Eh]
    ---------------------

    Doubly Occupied:

       1A    -26.275563     2A    -20.602309     3A    -11.319086
       4A    -11.316579     5A    -11.258122     6A    -11.256563
       7A    -11.255424     8A    -11.251682     9A     -1.563049
      10A     -1.411357    11A     -1.179652    12A     -1.050001
      13A     -1.019865    14A     -0.878910    15A     -0.835012
      16A     -0.751336    17A     -0.715803    18A     -0.689338
      19A     -0.651142    20A     -0.642181    21A     -0.624620
      22A     -0.617845    23A     -0.600369    24A     -0.575101
      25A     -0.558773    26A     -0.524386    27A     -0.504702
      28A     -0.364782    29A     -0.332873

  @DF-RHF Final Energy:  -404.54564638420447

   => Energetics <=

    Nuclear Repulsion Energy =            342.5914329675861154
    One-Electron Energy =               -1233.0213066520225311
    Two-Electron Energy =                 485.8842273002319416
    Total Energy =                       -404.5456463842044741
  Basis Set: (AUG-CC-PVTZ AUX)
    Blend: AUG-CC-PVTZ-RI
    Molecular point group: c1

    Geometry (in Angstrom), charge = 0, multiplicity = 1:

       Center              X                  Y                   Z               Mass
    ------------   -----------------  -----------------  -----------------  -----------------
         F           -2.704164205364     0.021601511938    -0.000160896594    18.998403162730
         O            2.793953794636    -0.091319488062     0.000170103406    15.994914619570
         C            1.421450794636    -0.006675488062     0.000071103406    12.000000000000
         C            0.715973794636    -1.214140488062     0.000017103406    12.000000000000
         C            0.732820794636     1.209541511938     0.000079103406    12.000000000000
         C           -0.677083205364    -1.206884488062    -0.000067896594    12.000000000000
         C           -0.663825205364     1.222640511938    -0.000013896594    12.000000000000
         C           -1.244657105364     0.012627711938    -0.000062096594    12.000000000000
         H            1.272142794636    -2.146906488062     0.000014103406     1.007825032230
         H            1.280465794636     2.150743511938     0.000139103406     1.007825032230
         H           -1.246673205364    -2.131153488062    -0.000116896594     1.007825032230
         H           -1.220414205364     2.154733511938    -0.000010896594     1.007825032230
         H            3.158683794636     0.810964511938     0.000029103406     1.007825032230

  Basis Set: AUG-CC-PVTZ
    Blend: AUG-CC-PVTZ
  Basis Set: (AUG-CC-PVTZ AUX)
    Blend: AUG-CC-PVTZ-JKFIT
	 Reference Energy          =    -404.5456463842044741 [Eh]
	 Singles Energy            =      -0.0000000000000000 [Eh]
	 Same-Spin Energy          =      -0.3991107779683877 [Eh]
	 Opposite-Spin Energy      =      -1.1981984284648752 [Eh]
	 Correlation Energy        =      -1.5973092064332630 [Eh]
	 Total Energy              =    -406.1429555906377118 [Eh]

	 ================> DF-SCS-MP2 Energies <==================
	-----------------------------------------------------------
	 SCS Same-Spin Scale       =       0.3333333333333333 [-]
	 SCS Opposite-Spin Scale   =       1.2000000000000000 [-]
	 SCS Same-Spin Energy      =      -0.1330369259894625 [Eh]
	 SCS Opposite-Spin Energy  =      -1.4378381141578502 [Eh]
	 SCS Correlation Energy    =      -1.5708750401473128 [Eh]
	 SCS Total Energy          =    -406.1165214243517880 [Eh]
	-----------------------------------------------------------

  Dipole Moment: [D]
     X:     2.1173      Y:     1.2699      Z:    -0.0001     Total:     2.4690

*** Psi4 exiting successfully. Buy a developer a beer!
