                               Psi4 1.3.2 release

  ==> Input File <==

--------------------------------------------------------------------------
#psi4
#
memory 32 gb

molecule  {
0 1
  F       -2.7449650     0.0145570    -0.0001620
  O        2.7531530    -0.0983640     0.0001690
  C        1.3780889    -0.1096672     0.0000872
  C        0.6751730    -1.2211850     0.0000160
  C        0.6920200     1.2024970     0.0000780
  C       -0.7178840    -1.2139290    -0.0000690
  C       -0.7046260     1.2155960    -0.0000150
  C       -1.3854560     0.0061980    -0.0000700
  H        1.2313420    -2.1539510     0.0000130
  H        1.2396650     2.1436990     0.0001380
  H       -1.2874740    -2.1381980    -0.0001180
  H       -1.2612150     2.1476890    -0.0000120
  H        3.1178830     0.8039200     0.0000280
units angstrom
no_reorient  #important for SAPT in psi4, default
symmetry c1  #important for SAPT in psi4, default
}

set PROPERTIES_ORIGIN ["COM"]
properties('MP2/aug-cc-pvtz', properties = ['dipole'])
--------------------------------------------------------------------------

    Molecular point group: c1
  Charge       = 0
  Multiplicity = 1
  Basis Set: AUG-CC-PVTZ
    Blend: AUG-CC-PVTZ
  Basis Set: (AUG-CC-PVTZ AUX)
    Blend: AUG-CC-PVTZ-JKFIT

    Orbital Energies [Eh]
    ---------------------

    Doubly Occupied:

       1A    -26.304845     2A    -20.595727     3A    -11.324755
       4A    -11.311786     5A    -11.263015     6A    -11.257143
       7A    -11.254141     8A    -11.235938     9A     -1.617446
      10A     -1.404224    11A     -1.164027    12A     -1.045432
      13A     -1.010734    14A     -0.874027    15A     -0.835520
      16A     -0.749046    17A     -0.740393    18A     -0.707282
      19A     -0.687926    20A     -0.643590    21A     -0.625023
      22A     -0.610955    23A     -0.595947    24A     -0.591577
      25A     -0.552033    26A     -0.501754    27A     -0.491694
      28A     -0.362667    29A     -0.321214

  @DF-RHF Final Energy:  -404.54737613105311

   => Energetics <=

    Nuclear Repulsion Energy =            342.1160064119036406
    One-Electron Energy =               -1231.9670462119904641
    Two-Electron Energy =                 485.3036636690337104
    Total Energy =                       -404.5473761310531131
  Basis Set: (AUG-CC-PVTZ AUX)
    Blend: AUG-CC-PVTZ-RI
    Molecular point group: c1

    Geometry (in Angstrom), charge = 0, multiplicity = 1:

       Center              X                  Y                   Z               Mass
    ------------   -----------------  -----------------  -----------------  -----------------
         F           -2.693178901753     0.031812739775    -0.000162010557    18.998403162730
         O            2.804939098247    -0.081108260225     0.000168989443    15.994914619570
         C            1.429874998247    -0.092411460225     0.000087189443    12.000000000000
         C            0.726959098247    -1.203929260225     0.000015989443    12.000000000000
         C            0.743806098247     1.219752739775     0.000077989443    12.000000000000
         C           -0.666097901753    -1.196673260225    -0.000069010557    12.000000000000
         C           -0.652839901753     1.232851739775    -0.000015010557    12.000000000000
         C           -1.333669901753     0.023453739775    -0.000070010557    12.000000000000
         H            1.283128098247    -2.136695260225     0.000012989443     1.007825032230
         H            1.291451098247     2.160954739775     0.000137989443     1.007825032230
         H           -1.235687901753    -2.120942260225    -0.000118010557     1.007825032230
         H           -1.209428901753     2.164944739775    -0.000012010557     1.007825032230
         H            3.169669098247     0.821175739775     0.000027989443     1.007825032230

  Basis Set: AUG-CC-PVTZ
    Blend: AUG-CC-PVTZ
  Basis Set: (AUG-CC-PVTZ AUX)
    Blend: AUG-CC-PVTZ-JKFIT
	 Reference Energy          =    -404.5473761310531131 [Eh]
	 Singles Energy            =      -0.0000000000000000 [Eh]
	 Same-Spin Energy          =      -0.3980416147989223 [Eh]
	 Opposite-Spin Energy      =      -1.1962059737599553 [Eh]
	 Correlation Energy        =      -1.5942475885588776 [Eh]
	 Total Energy              =    -406.1416237196119710 [Eh]

	 ================> DF-SCS-MP2 Energies <==================
	-----------------------------------------------------------
	 SCS Same-Spin Scale       =       0.3333333333333333 [-]
	 SCS Opposite-Spin Scale   =       1.2000000000000000 [-]
	 SCS Same-Spin Energy      =      -0.1326805382663074 [Eh]
	 SCS Opposite-Spin Energy  =      -1.4354471685119463 [Eh]
	 SCS Correlation Energy    =      -1.5681277067782537 [Eh]
	 SCS Total Energy          =    -406.1155038378313407 [Eh]
	-----------------------------------------------------------

  Dipole Moment: [D]
     X:     1.4490      Y:     1.2990      Z:    -0.0001     Total:     1.9460

*** Psi4 exiting successfully. Buy a developer a beer!
