                               Psi4 1.3.2 release

  ==> Input File <==

--------------------------------------------------------------------------
#psi4
#
memory 32 gb

molecule  {
0 1
  F       -2.7449650     0.0145570    -0.0001620
  O        2.7544212    -0.0743976     0.0001692
  C        1.3806500    -0.0137200     0.0000700
  C        0.6751730    -1.2211850     0.0000160
  C        0.6920200     1.2024970     0.0000780
  C       -0.7178840    -1.2139290    -0.0000690
  C       -0.7046260     1.2155960    -0.0000150
  C       -1.3854560     0.0061980    -0.0000700
  H        1.2313420    -2.1539510     0.0000130
  H        1.2396650     2.1436990     0.0001380
  H       -1.2874740    -2.1381980    -0.0001180
  H       -1.2612150     2.1476890    -0.0000120
  H        3.1178830     0.8039200     0.0000280
units angstrom
no_reorient  #important for SAPT in psi4, default
symmetry c1  #important for SAPT in psi4, default
}

set PROPERTIES_ORIGIN ["COM"]
properties('MP2/aug-cc-pvtz', properties = ['dipole'])
--------------------------------------------------------------------------

    Molecular point group: c1
  Charge       = 0
  Multiplicity = 1
  Basis Set: AUG-CC-PVTZ
    Blend: AUG-CC-PVTZ
  Basis Set: (AUG-CC-PVTZ AUX)
    Blend: AUG-CC-PVTZ-JKFIT

    Orbital Energies [Eh]
    ---------------------

    Doubly Occupied:

       1A    -26.304578     2A    -20.596606     3A    -11.324475
       4A    -11.313306     5A    -11.255880     6A    -11.254645
       7A    -11.253309     8A    -11.248274     9A     -1.617196
      10A     -1.412063    11A     -1.162817    12A     -1.038777
      13A     -1.014748    14A     -0.872059    15A     -0.841888
      16A     -0.750185    17A     -0.741571    18A     -0.705157
      19A     -0.687691    20A     -0.644096    21A     -0.626269
      22A     -0.609512    23A     -0.597231    24A     -0.584739
      25A     -0.558976    26A     -0.510174    27A     -0.492045
      28A     -0.359186    29A     -0.322189

  @DF-RHF Final Energy:  -404.55952981422871

   => Energetics <=

    Nuclear Repulsion Energy =            342.1267629712720577
    One-Electron Energy =               -1231.9733012485007748
    Two-Electron Energy =                 485.2870084630000633
    Total Energy =                       -404.5595298142287106
  Basis Set: (AUG-CC-PVTZ AUX)
    Blend: AUG-CC-PVTZ-RI
    Molecular point group: c1

    Geometry (in Angstrom), charge = 0, multiplicity = 1:

       Center              X                  Y                   Z               Mass
    ------------   -----------------  -----------------  -----------------  -----------------
         F           -2.693634287259     0.018113967513    -0.000160196787    18.998403162730
         O            2.805751912741    -0.070840632487     0.000171003213    15.994914619570
         C            1.431980712741    -0.010163032487     0.000071803213    12.000000000000
         C            0.726503712741    -1.217628032487     0.000017803213    12.000000000000
         C            0.743350712741     1.206053967513     0.000079803213    12.000000000000
         C           -0.666553287259    -1.210372032487    -0.000067196787    12.000000000000
         C           -0.653295287259     1.219152967513    -0.000013196787    12.000000000000
         C           -1.334125287259     0.009754967513    -0.000068196787    12.000000000000
         H            1.282672712741    -2.150394032487     0.000014803213     1.007825032230
         H            1.290995712741     2.147255967513     0.000139803213     1.007825032230
         H           -1.236143287259    -2.134641032487    -0.000116196787     1.007825032230
         H           -1.209884287259     2.151245967513    -0.000010196787     1.007825032230
         H            3.169213712741     0.807476967513     0.000029803213     1.007825032230

  Basis Set: AUG-CC-PVTZ
    Blend: AUG-CC-PVTZ
  Basis Set: (AUG-CC-PVTZ AUX)
    Blend: AUG-CC-PVTZ-JKFIT
	 Reference Energy          =    -404.5595298142287106 [Eh]
	 Singles Energy            =      -0.0000000000000000 [Eh]
	 Same-Spin Energy          =      -0.3981145386846273 [Eh]
	 Opposite-Spin Energy      =      -1.1953838930682910 [Eh]
	 Correlation Energy        =      -1.5934984317529182 [Eh]
	 Total Energy              =    -406.1530282459816021 [Eh]

	 ================> DF-SCS-MP2 Energies <==================
	-----------------------------------------------------------
	 SCS Same-Spin Scale       =       0.3333333333333333 [-]
	 SCS Opposite-Spin Scale   =       1.2000000000000000 [-]
	 SCS Same-Spin Energy      =      -0.1327048462282091 [Eh]
	 SCS Opposite-Spin Energy  =      -1.4344606716819490 [Eh]
	 SCS Correlation Energy    =      -1.5671655179101580 [Eh]
	 SCS Total Energy          =    -406.1266953321388655 [Eh]
	-----------------------------------------------------------

  Dipole Moment: [D]
     X:     1.4800      Y:     1.2523      Z:    -0.0002     Total:     1.9388

*** Psi4 exiting successfully. Buy a developer a beer!
