                               Psi4 1.4a3.dev225

  ==> Input File <==

--------------------------------------------------------------------------
#psi4
#
memory 32 gb

molecule  {
0 1
  F       -2.7448780     0.0146810    -0.0001360
  O        2.7530530    -0.0983740     0.0001420
  C        1.3805510    -0.0140580     0.0000660
  C        0.6748340    -1.2214480     0.0000070
  C        0.6924230     1.2023800     0.0000660
  C       -0.7180740    -1.2138510    -0.0000640
  C       -0.7043650     1.2157020    -0.0000090
  C       -1.3854240     0.0065120    -0.0000670
  H        1.2310880    -2.1541510     0.0000080
  H        1.2399310     2.1436010     0.0001160
  H       -1.2882010    -2.1378200    -0.0001110
  H       -1.2607430     2.1479340    -0.0000130
  H        3.0989942     0.7575174     0.0001041
units angstrom
no_reorient  #important for SAPT in psi4, default
symmetry c1  #important for SAPT in psi4, default
}

set PROPERTIES_ORIGIN ["COM"]
properties('MP2/aug-cc-pvtz', properties = ['dipole'])
--------------------------------------------------------------------------

    Molecular point group: c1
  Charge       = 0
  Multiplicity = 1
  Basis Set: AUG-CC-PVTZ
    Blend: AUG-CC-PVTZ
  Basis Set: (AUG-CC-PVTZ AUX)
    Blend: AUG-CC-PVTZ-JKFIT

    Orbital Energies [Eh]
    ---------------------

    Doubly Occupied:

       1A    -26.304795     2A    -20.595090     3A    -11.324751
       4A    -11.313282     5A    -11.256281     6A    -11.254589
       7A    -11.254085     8A    -11.247952     9A     -1.617426
      10A     -1.419865    11A     -1.163399    12A     -1.039066
      13A     -1.015917    14A     -0.873399    15A     -0.842851
      16A     -0.753427    17A     -0.741955    18A     -0.705046
      19A     -0.687899    20A     -0.646415    21A     -0.626562
      22A     -0.609711    23A     -0.598674    24A     -0.584405
      25A     -0.562122    26A     -0.510866    27A     -0.492578
      28A     -0.359385    29A     -0.322614

  @DF-RHF Final Energy:  -404.55914673057299

   => Energetics <=

    Nuclear Repulsion Energy =            342.3465129901121031
    One-Electron Energy =               -1232.3625037576937302
    Two-Electron Energy =                 485.4568440370085796
    Total Energy =                       -404.5591467305729907
  Basis Set: (AUG-CC-PVTZ AUX)
    Blend: AUG-CC-PVTZ-RI
    Molecular point group: c1

    Geometry (in Angstrom), charge = 0, multiplicity = 1:

       Center              X                  Y                   Z               Mass
    ------------   -----------------  -----------------  -----------------  -----------------
         F           -2.693201879384     0.022078130383    -0.000134039939    18.998403162730
         O            2.804729120616    -0.090976869617     0.000143960061    15.994914619570
         C            1.432227120616    -0.006660869617     0.000067960061    12.000000000000
         C            0.726510120616    -1.214050869617     0.000008960061    12.000000000000
         C            0.744099120616     1.209777130383     0.000067960061    12.000000000000
         C           -0.666397879384    -1.206453869617    -0.000062039939    12.000000000000
         C           -0.652688879384     1.223099130383    -0.000007039939    12.000000000000
         C           -1.333747879384     0.013909130383    -0.000065039939    12.000000000000
         H            1.282764120616    -2.146753869617     0.000009960061     1.007825032230
         H            1.291607120616     2.150998130383     0.000117960061     1.007825032230
         H           -1.236524879384    -2.130422869617    -0.000109039939     1.007825032230
         H           -1.209066879384     2.155331130383    -0.000011039939     1.007825032230
         H            3.150670320616     0.764914530383     0.000106060061     1.007825032230

  Basis Set: AUG-CC-PVTZ
    Blend: AUG-CC-PVTZ
  Basis Set: (AUG-CC-PVTZ AUX)
    Blend: AUG-CC-PVTZ-JKFIT
	 Reference Energy          =    -404.5591467305729907 [Eh]
	 Singles Energy            =      -0.0000000000000000 [Eh]
	 Same-Spin Energy          =      -0.3978368835469717 [Eh]
	 Opposite-Spin Energy      =      -1.1946967907977619 [Eh]
	 Correlation Energy        =      -1.5925336743447336 [Eh]
	 Total Energy              =    -406.1516804049177267 [Eh]

	 ================> DF-SCS-MP2 Energies <==================
	-----------------------------------------------------------
	 SCS Same-Spin Scale       =       0.3333333333333333 [-]
	 SCS Opposite-Spin Scale   =       1.2000000000000000 [-]
	 SCS Same-Spin Energy      =      -0.1326122945156572 [Eh]
	 SCS Opposite-Spin Energy  =      -1.4336361489573142 [Eh]
	 SCS Correlation Energy    =      -1.5662484434729713 [Eh]
	 SCS Total Energy          =    -406.1253951740459343 [Eh]
	-----------------------------------------------------------

  Dipole Moment: [D]
     X:     1.4529      Y:     1.2341      Z:    -0.0000     Total:     1.9063

*** Psi4 exiting successfully. Buy a developer a beer!
