                               Psi4 1.3.2 release

  ==> Input File <==

--------------------------------------------------------------------------
#psi4
#
memory 32 gb

molecule  {
0 1
  F       -2.7449038    -0.0091710    -0.0001629
  O        2.7531530    -0.0983640     0.0001690
  C        1.3806500    -0.0137200     0.0000700
  C        0.6751730    -1.2211850     0.0000160
  C        0.6920200     1.2024970     0.0000780
  C       -0.7178840    -1.2139290    -0.0000690
  C       -0.7046260     1.2155960    -0.0000150
  C       -1.3854560     0.0061980    -0.0000700
  H        1.2313420    -2.1539510     0.0000130
  H        1.2396650     2.1436990     0.0001380
  H       -1.2874740    -2.1381980    -0.0001180
  H       -1.2612150     2.1476890    -0.0000120
  H        3.1178830     0.8039200     0.0000280
units angstrom
no_reorient  #important for SAPT in psi4, default
symmetry c1  #important for SAPT in psi4, default
}

set PROPERTIES_ORIGIN ["COM"]
properties('MP2/aug-cc-pvtz', properties = ['dipole'])
--------------------------------------------------------------------------

    Molecular point group: c1
  Charge       = 0
  Multiplicity = 1
  Basis Set: AUG-CC-PVTZ
    Blend: AUG-CC-PVTZ
  Basis Set: (AUG-CC-PVTZ AUX)
    Blend: AUG-CC-PVTZ-JKFIT

    Orbital Energies [Eh]
    ---------------------

    Doubly Occupied:

       1A    -26.304484     2A    -20.599453     3A    -11.324351
       4A    -11.312839     5A    -11.256461     6A    -11.253856
       7A    -11.253810     8A    -11.247447     9A     -1.617114
      10A     -1.408361    11A     -1.162384    12A     -1.038687
      13A     -1.013635    14A     -0.871731    15A     -0.840147
      16A     -0.747170    17A     -0.740317    18A     -0.703663
      19A     -0.687608    20A     -0.644637    21A     -0.626132
      22A     -0.609340    23A     -0.597061    24A     -0.581928
      25A     -0.560819    26A     -0.510186    27A     -0.491874
      28A     -0.359089    29A     -0.321990

  @DF-RHF Final Energy:  -404.55834050218959

   => Energetics <=

    Nuclear Repulsion Energy =            342.0402628474921016
    One-Electron Energy =               -1231.8240613842667699
    Two-Electron Energy =                 485.2254580345850172
    Total Energy =                       -404.5583405021895942
  Basis Set: (AUG-CC-PVTZ AUX)
    Blend: AUG-CC-PVTZ-RI
    Molecular point group: c1

    Geometry (in Angstrom), charge = 0, multiplicity = 1:

       Center              X                  Y                   Z               Mass
    ------------   -----------------  -----------------  -----------------  -----------------
         F           -2.693402404125     0.001831441432    -0.000160915612    18.998403162730
         O            2.804654395875    -0.087361558568     0.000170984388    15.994914619570
         C            1.432151395875    -0.002717558568     0.000071984388    12.000000000000
         C            0.726674395875    -1.210182558568     0.000017984388    12.000000000000
         C            0.743521395875     1.213499441432     0.000079984388    12.000000000000
         C           -0.666382604125    -1.202926558568    -0.000067015612    12.000000000000
         C           -0.653124604125     1.226598441432    -0.000013015612    12.000000000000
         C           -1.333954604125     0.017200441432    -0.000068015612    12.000000000000
         H            1.282843395875    -2.142948558568     0.000014984388     1.007825032230
         H            1.291166395875     2.154701441432     0.000139984388     1.007825032230
         H           -1.235972604125    -2.127195558568    -0.000116015612     1.007825032230
         H           -1.209713604125     2.158691441432    -0.000010015612     1.007825032230
         H            3.169384395875     0.814922441432     0.000029984388     1.007825032230

  Basis Set: AUG-CC-PVTZ
    Blend: AUG-CC-PVTZ
  Basis Set: (AUG-CC-PVTZ AUX)
    Blend: AUG-CC-PVTZ-JKFIT
	 Reference Energy          =    -404.5583405021895942 [Eh]
	 Singles Energy            =      -0.0000000000000000 [Eh]
	 Same-Spin Energy          =      -0.3984664699774242 [Eh]
	 Opposite-Spin Energy      =      -1.1962473021483708 [Eh]
	 Correlation Energy        =      -1.5947137721257949 [Eh]
	 Total Energy              =    -406.1530542743153660 [Eh]

	 ================> DF-SCS-MP2 Energies <==================
	-----------------------------------------------------------
	 SCS Same-Spin Scale       =       0.3333333333333333 [-]
	 SCS Opposite-Spin Scale   =       1.2000000000000000 [-]
	 SCS Same-Spin Energy      =      -0.1328221566591414 [Eh]
	 SCS Opposite-Spin Energy  =      -1.4354967625780450 [Eh]
	 SCS Correlation Energy    =      -1.5683189192371865 [Eh]
	 SCS Total Energy          =    -406.1266594214267798 [Eh]
	-----------------------------------------------------------

  Dipole Moment: [D]
     X:     1.4963      Y:     1.2937      Z:    -0.0001     Total:     1.9781

*** Psi4 exiting successfully. Buy a developer a beer!
