                               Psi4 1.3.2 release

  ==> Input File <==

--------------------------------------------------------------------------
#psi4
#
memory 32 gb

molecule  {
0 1
  F       -2.7449650     0.0145570    -0.0001620
  O        2.7531530    -0.0983640     0.0001690
  C        1.3823363     0.0102206     0.0000658
  C        0.6751730    -1.2211850     0.0000160
  C        0.6920200     1.2024970     0.0000780
  C       -0.7178840    -1.2139290    -0.0000690
  C       -0.7046260     1.2155960    -0.0000150
  C       -1.3854560     0.0061980    -0.0000700
  H        1.2313420    -2.1539510     0.0000130
  H        1.2396650     2.1436990     0.0001380
  H       -1.2874740    -2.1381980    -0.0001180
  H       -1.2612150     2.1476890    -0.0000120
  H        3.1178830     0.8039200     0.0000280
units angstrom
no_reorient  #important for SAPT in psi4, default
symmetry c1  #important for SAPT in psi4, default
}

set PROPERTIES_ORIGIN ["COM"]
properties('MP2/aug-cc-pvtz', properties = ['dipole'])
--------------------------------------------------------------------------

    Molecular point group: c1
  Charge       = 0
  Multiplicity = 1
  Basis Set: AUG-CC-PVTZ
    Blend: AUG-CC-PVTZ
  Basis Set: (AUG-CC-PVTZ AUX)
    Blend: AUG-CC-PVTZ-JKFIT

    Orbital Energies [Eh]
    ---------------------

    Doubly Occupied:

       1A    -26.304513     2A    -20.600402     3A    -11.324448
       4A    -11.312738     5A    -11.255435     6A    -11.254338
       7A    -11.251180     8A    -11.250261     9A     -1.617121
      10A     -1.409376    11A     -1.162284    12A     -1.038771
      13A     -1.013315    14A     -0.871415    15A     -0.840545
      16A     -0.746512    17A     -0.740975    18A     -0.702985
      19A     -0.687593    20A     -0.644165    21A     -0.626580
      22A     -0.608802    23A     -0.597578    24A     -0.580305
      25A     -0.562865    26A     -0.510229    27A     -0.491942
      28A     -0.359500    29A     -0.321695

  @DF-RHF Final Energy:  -404.55748828651775

   => Energetics <=

    Nuclear Repulsion Energy =            342.0214758328709195
    One-Electron Energy =               -1231.7821918236334113
    Two-Electron Energy =                 485.2032277042447390
    Total Energy =                       -404.5574882865177528
  Basis Set: (AUG-CC-PVTZ AUX)
    Blend: AUG-CC-PVTZ-RI
    Molecular point group: c1

    Geometry (in Angstrom), charge = 0, multiplicity = 1:

       Center              X                  Y                   Z               Mass
    ------------   -----------------  -----------------  -----------------  -----------------
         F           -2.693633848540     0.018971338104    -0.000159718363    18.998403162730
         O            2.804484151460    -0.093949661896     0.000171281637    15.994914619570
         C            1.433667451460     0.014634938104     0.000068081637    12.000000000000
         C            0.726504151460    -1.216770661896     0.000018281637    12.000000000000
         C            0.743351151460     1.206911338104     0.000080281637    12.000000000000
         C           -0.666552848540    -1.209514661896    -0.000066718363    12.000000000000
         C           -0.653294848540     1.220010338104    -0.000012718363    12.000000000000
         C           -1.334124848540     0.010612338104    -0.000067718363    12.000000000000
         H            1.282673151460    -2.149536661896     0.000015281637     1.007825032230
         H            1.290996151460     2.148113338104     0.000140281637     1.007825032230
         H           -1.236142848540    -2.133783661896    -0.000115718363     1.007825032230
         H           -1.209883848540     2.152103338104    -0.000009718363     1.007825032230
         H            3.169214151460     0.808334338104     0.000030281637     1.007825032230

  Basis Set: AUG-CC-PVTZ
    Blend: AUG-CC-PVTZ
  Basis Set: (AUG-CC-PVTZ AUX)
    Blend: AUG-CC-PVTZ-JKFIT
	 Reference Energy          =    -404.5574882865177528 [Eh]
	 Singles Energy            =      -0.0000000000000000 [Eh]
	 Same-Spin Energy          =      -0.3984582492160618 [Eh]
	 Opposite-Spin Energy      =      -1.1963900438673214 [Eh]
	 Correlation Energy        =      -1.5948482930833832 [Eh]
	 Total Energy              =    -406.1523365796011262 [Eh]

	 ================> DF-SCS-MP2 Energies <==================
	-----------------------------------------------------------
	 SCS Same-Spin Scale       =       0.3333333333333333 [-]
	 SCS Opposite-Spin Scale   =       1.2000000000000000 [-]
	 SCS Same-Spin Energy      =      -0.1328194164053539 [Eh]
	 SCS Opposite-Spin Energy  =      -1.4356680526407857 [Eh]
	 SCS Correlation Energy    =      -1.5684874690461397 [Eh]
	 SCS Total Energy          =    -406.1259757555638998 [Eh]
	-----------------------------------------------------------

  Dipole Moment: [D]
     X:     1.5080      Y:     1.2652      Z:    -0.0001     Total:     1.9685

*** Psi4 exiting successfully. Buy a developer a beer!
