                               Psi4 1.3.2 release

  ==> Input File <==

--------------------------------------------------------------------------
#psi4
#
memory 32 gb

molecule  {
0 1
  F       -2.7410702     0.1093712    -0.0001583
  O        2.7531530    -0.0983640     0.0001690
  C        1.3806500    -0.0137200     0.0000700
  C        0.6751730    -1.2211850     0.0000160
  C        0.6920200     1.2024970     0.0000780
  C       -0.7178840    -1.2139290    -0.0000690
  C       -0.7046260     1.2155960    -0.0000150
  C       -1.3854560     0.0061980    -0.0000700
  H        1.2313420    -2.1539510     0.0000130
  H        1.2396650     2.1436990     0.0001380
  H       -1.2874740    -2.1381980    -0.0001180
  H       -1.2612150     2.1476890    -0.0000120
  H        3.1178830     0.8039200     0.0000280
units angstrom
no_reorient  #important for SAPT in psi4, default
symmetry c1  #important for SAPT in psi4, default
}

set PROPERTIES_ORIGIN ["COM"]
properties('MP2/aug-cc-pvtz', properties = ['dipole'])
--------------------------------------------------------------------------

    Molecular point group: c1
  Charge       = 0
  Multiplicity = 1
  Basis Set: AUG-CC-PVTZ
    Blend: AUG-CC-PVTZ
  Basis Set: (AUG-CC-PVTZ AUX)
    Blend: AUG-CC-PVTZ-JKFIT

    Orbital Energies [Eh]
    ---------------------

    Doubly Occupied:

       1A    -26.304357     2A    -20.599366     3A    -11.324297
       4A    -11.312750     5A    -11.256379     6A    -11.254147
       7A    -11.252778     8A    -11.248160     9A     -1.617215
      10A     -1.408285    11A     -1.162316    12A     -1.038648
      13A     -1.013603    14A     -0.872173    15A     -0.839478
      16A     -0.746044    17A     -0.741712    18A     -0.704697
      19A     -0.687683    20A     -0.641689    21A     -0.625615
      22A     -0.609589    23A     -0.596991    24A     -0.586463
      25A     -0.557468    26A     -0.510314    27A     -0.491778
      28A     -0.359172    29A     -0.321795

  @DF-RHF Final Energy:  -404.55722766559632

   => Energetics <=

    Nuclear Repulsion Energy =            342.0859124258687416
    One-Electron Energy =               -1231.9163584974123751
    Two-Electron Energy =                 485.2732184059473184
    Total Energy =                       -404.5572276655963151
  Basis Set: (AUG-CC-PVTZ AUX)
    Blend: AUG-CC-PVTZ-RI
    Molecular point group: c1

    Geometry (in Angstrom), charge = 0, multiplicity = 1:

       Center              X                  Y                   Z               Mass
    ------------   -----------------  -----------------  -----------------  -----------------
         F           -2.690218904011     0.100271317068    -0.000157095677    18.998403162730
         O            2.804004295989    -0.107463882932     0.000170204323    15.994914619570
         C            1.431501295989    -0.022819882932     0.000071204323    12.000000000000
         C            0.726024295989    -1.230284882932     0.000017204323    12.000000000000
         C            0.742871295989     1.193397117068     0.000079204323    12.000000000000
         C           -0.667032704011    -1.223028882932    -0.000067795677    12.000000000000
         C           -0.653774704011     1.206496117068    -0.000013795677    12.000000000000
         C           -1.334604704011    -0.002901882932    -0.000068795677    12.000000000000
         H            1.282193295989    -2.163050882932     0.000014204323     1.007825032230
         H            1.290516295989     2.134599117068     0.000139204323     1.007825032230
         H           -1.236622704011    -2.147297882932    -0.000116795677     1.007825032230
         H           -1.210363704011     2.138589117068    -0.000010795677     1.007825032230
         H            3.168734295989     0.794820117068     0.000029204323     1.007825032230

  Basis Set: AUG-CC-PVTZ
    Blend: AUG-CC-PVTZ
  Basis Set: (AUG-CC-PVTZ AUX)
    Blend: AUG-CC-PVTZ-JKFIT
	 Reference Energy          =    -404.5572276655963151 [Eh]
	 Singles Energy            =      -0.0000000000000000 [Eh]
	 Same-Spin Energy          =      -0.3985153680335256 [Eh]
	 Opposite-Spin Energy      =      -1.1963324380028229 [Eh]
	 Correlation Energy        =      -1.5948478060363485 [Eh]
	 Total Energy              =    -406.1520754716326564 [Eh]

	 ================> DF-SCS-MP2 Energies <==================
	-----------------------------------------------------------
	 SCS Same-Spin Scale       =       0.3333333333333333 [-]
	 SCS Opposite-Spin Scale   =       1.2000000000000000 [-]
	 SCS Same-Spin Energy      =      -0.1328384560111752 [Eh]
	 SCS Opposite-Spin Energy  =      -1.4355989256033874 [Eh]
	 SCS Correlation Energy    =      -1.5684373816145627 [Eh]
	 SCS Total Energy          =    -406.1256650472108731 [Eh]
	-----------------------------------------------------------

  Dipole Moment: [D]
     X:     1.4888      Y:     1.1891      Z:    -0.0002     Total:     1.9053

*** Psi4 exiting successfully. Buy a developer a beer!
