                               Psi4 1.3.2 release

  ==> Input File <==

--------------------------------------------------------------------------
#psi4
#
memory 32 gb

molecule  {
0 1
  F       -2.7438451     0.0619981    -0.0001602
  O        2.7531530    -0.0983640     0.0001690
  C        1.3806500    -0.0137200     0.0000700
  C        0.6751730    -1.2211850     0.0000160
  C        0.6920200     1.2024970     0.0000780
  C       -0.7178840    -1.2139290    -0.0000690
  C       -0.7046260     1.2155960    -0.0000150
  C       -1.3854560     0.0061980    -0.0000700
  H        1.2313420    -2.1539510     0.0000130
  H        1.2396650     2.1436990     0.0001380
  H       -1.2874740    -2.1381980    -0.0001180
  H       -1.2612150     2.1476890    -0.0000120
  H        3.1178830     0.8039200     0.0000280
units angstrom
no_reorient  #important for SAPT in psi4, default
symmetry c1  #important for SAPT in psi4, default
}

set PROPERTIES_ORIGIN ["COM"]
properties('MP2/aug-cc-pvtz', properties = ['dipole'])
--------------------------------------------------------------------------

    Molecular point group: c1
  Charge       = 0
  Multiplicity = 1
  Basis Set: AUG-CC-PVTZ
    Blend: AUG-CC-PVTZ
  Basis Set: (AUG-CC-PVTZ AUX)
    Blend: AUG-CC-PVTZ-JKFIT

    Orbital Energies [Eh]
    ---------------------

    Doubly Occupied:

       1A    -26.304443     2A    -20.599412     3A    -11.324323
       4A    -11.312797     5A    -11.255380     6A    -11.255042
       7A    -11.253264     8A    -11.247910     9A     -1.617127
      10A     -1.408327    11A     -1.162365    12A     -1.038681
      13A     -1.013629    14A     -0.871961    15A     -0.839758
      16A     -0.746477    17A     -0.741210    18A     -0.704274
      19A     -0.687622    20A     -0.642900    21A     -0.625878
      22A     -0.609487    23A     -0.597034    24A     -0.584740
      25A     -0.558890    26A     -0.510312    27A     -0.491838
      28A     -0.359162    29A     -0.321893

  @DF-RHF Final Energy:  -404.55810441791954

   => Energetics <=

    Nuclear Repulsion Energy =            342.0494723486397106
    One-Electron Energy =               -1231.8428775386496454
    Two-Electron Energy =                 485.2353007720903975
    Total Energy =                       -404.5581044179195374
  Basis Set: (AUG-CC-PVTZ AUX)
    Blend: AUG-CC-PVTZ-RI
    Molecular point group: c1

    Geometry (in Angstrom), charge = 0, multiplicity = 1:

       Center              X                  Y                   Z               Mass
    ------------   -----------------  -----------------  -----------------  -----------------
         F           -2.692523237918     0.060931722624    -0.000158673476    18.998403162730
         O            2.804474862082    -0.099430377376     0.000170526524    15.994914619570
         C            1.431971862082    -0.014786377376     0.000071526524    12.000000000000
         C            0.726494862082    -1.222251377376     0.000017526524    12.000000000000
         C            0.743341862082     1.201430622624     0.000079526524    12.000000000000
         C           -0.666562137918    -1.214995377376    -0.000067473476    12.000000000000
         C           -0.653304137918     1.214529622624    -0.000013473476    12.000000000000
         C           -1.334134137918     0.005131622624    -0.000068473476    12.000000000000
         H            1.282663862082    -2.155017377376     0.000014526524     1.007825032230
         H            1.290986862082     2.142632622624     0.000139526524     1.007825032230
         H           -1.236152137918    -2.139264377376    -0.000116473476     1.007825032230
         H           -1.209893137918     2.146622622624    -0.000010473476     1.007825032230
         H            3.169204862082     0.802853622624     0.000029526524     1.007825032230

  Basis Set: AUG-CC-PVTZ
    Blend: AUG-CC-PVTZ
  Basis Set: (AUG-CC-PVTZ AUX)
    Blend: AUG-CC-PVTZ-JKFIT
	 Reference Energy          =    -404.5581044179195374 [Eh]
	 Singles Energy            =      -0.0000000000000000 [Eh]
	 Same-Spin Energy          =      -0.3984823262466612 [Eh]
	 Opposite-Spin Energy      =      -1.1962655046125210 [Eh]
	 Correlation Energy        =      -1.5947478308591823 [Eh]
	 Total Energy              =    -406.1528522487787427 [Eh]

	 ================> DF-SCS-MP2 Energies <==================
	-----------------------------------------------------------
	 SCS Same-Spin Scale       =       0.3333333333333333 [-]
	 SCS Opposite-Spin Scale   =       1.2000000000000000 [-]
	 SCS Same-Spin Energy      =      -0.1328274420822204 [Eh]
	 SCS Opposite-Spin Energy  =      -1.4355186055350251 [Eh]
	 SCS Correlation Energy    =      -1.5683460476172455 [Eh]
	 SCS Total Energy          =    -406.1264504655367773 [Eh]
	-----------------------------------------------------------

  Dipole Moment: [D]
     X:     1.4943      Y:     1.2308      Z:    -0.0001     Total:     1.9359

*** Psi4 exiting successfully. Buy a developer a beer!
