                               Psi4 1.3.2 release

  ==> Input File <==

--------------------------------------------------------------------------
#psi4
#
memory 32 gb

molecule  {
0 1
  F       -2.7422364    -0.0802979    -0.0001653
  O        2.7531530    -0.0983640     0.0001690
  C        1.3806500    -0.0137200     0.0000700
  C        0.6751730    -1.2211850     0.0000160
  C        0.6920200     1.2024970     0.0000780
  C       -0.7178840    -1.2139290    -0.0000690
  C       -0.7046260     1.2155960    -0.0000150
  C       -1.3854560     0.0061980    -0.0000700
  H        1.2313420    -2.1539510     0.0000130
  H        1.2396650     2.1436990     0.0001380
  H       -1.2874740    -2.1381980    -0.0001180
  H       -1.2612150     2.1476890    -0.0000120
  H        3.1178830     0.8039200     0.0000280
units angstrom
no_reorient  #important for SAPT in psi4, default
symmetry c1  #important for SAPT in psi4, default
}

set PROPERTIES_ORIGIN ["COM"]
properties('MP2/aug-cc-pvtz', properties = ['dipole'])
--------------------------------------------------------------------------

    Molecular point group: c1
  Charge       = 0
  Multiplicity = 1
  Basis Set: AUG-CC-PVTZ
    Blend: AUG-CC-PVTZ
  Basis Set: (AUG-CC-PVTZ AUX)
    Blend: AUG-CC-PVTZ-JKFIT

    Orbital Energies [Eh]
    ---------------------

    Doubly Occupied:

       1A    -26.304417     2A    -20.599462     3A    -11.324365
       4A    -11.312845     5A    -11.257896     6A    -11.254211
       7A    -11.252302     8A    -11.246875     9A     -1.617242
      10A     -1.408360    11A     -1.162336    12A     -1.038639
      13A     -1.013600    14A     -0.871608    15A     -0.840489
      16A     -0.747874    17A     -0.739318    18A     -0.703055
      19A     -0.687684    20A     -0.646283    21A     -0.626225
      22A     -0.609181    23A     -0.597044    24A     -0.578843
      25A     -0.562519    26A     -0.509915    27A     -0.491843
      28A     -0.358950    29A     -0.322027

  @DF-RHF Final Energy:  -404.55728366494856

   => Energetics <=

    Nuclear Repulsion Energy =            342.0855670529243753
    One-Electron Energy =               -1231.9148852139371684
    Two-Electron Energy =                 485.2720344960642365
    Total Energy =                       -404.5572836649485566
  Basis Set: (AUG-CC-PVTZ AUX)
    Blend: AUG-CC-PVTZ-RI
    Molecular point group: c1

    Geometry (in Angstrom), charge = 0, multiplicity = 1:

       Center              X                  Y                   Z               Mass
    ------------   -----------------  -----------------  -----------------  -----------------
         F           -2.691187340424    -0.057233796014    -0.000162908621    18.998403162730
         O            2.804202059576    -0.075299896014     0.000171391379    15.994914619570
         C            1.431699059576     0.009344103986     0.000072391379    12.000000000000
         C            0.726222059576    -1.198120896014     0.000018391379    12.000000000000
         C            0.743069059576     1.225561103986     0.000080391379    12.000000000000
         C           -0.666834940424    -1.190864896014    -0.000066608621    12.000000000000
         C           -0.653576940424     1.238660103986    -0.000012608621    12.000000000000
         C           -1.334406940424     0.029262103986    -0.000067608621    12.000000000000
         H            1.282391059576    -2.130886896014     0.000015391379     1.007825032230
         H            1.290714059576     2.166763103986     0.000140391379     1.007825032230
         H           -1.236424940424    -2.115133896014    -0.000115608621     1.007825032230
         H           -1.210165940424     2.170753103986    -0.000009608621     1.007825032230
         H            3.168932059576     0.826984103986     0.000030391379     1.007825032230

  Basis Set: AUG-CC-PVTZ
    Blend: AUG-CC-PVTZ
  Basis Set: (AUG-CC-PVTZ AUX)
    Blend: AUG-CC-PVTZ-JKFIT
	 Reference Energy          =    -404.5572836649485566 [Eh]
	 Singles Energy            =      -0.0000000000000000 [Eh]
	 Same-Spin Energy          =      -0.3984910093194781 [Eh]
	 Opposite-Spin Energy      =      -1.1963278680049181 [Eh]
	 Correlation Energy        =      -1.5948188773243963 [Eh]
	 Total Energy              =    -406.1521025422729281 [Eh]

	 ================> DF-SCS-MP2 Energies <==================
	-----------------------------------------------------------
	 SCS Same-Spin Scale       =       0.3333333333333333 [-]
	 SCS Opposite-Spin Scale   =       1.2000000000000000 [-]
	 SCS Same-Spin Energy      =      -0.1328303364398260 [Eh]
	 SCS Opposite-Spin Energy  =      -1.4355934416059017 [Eh]
	 SCS Correlation Energy    =      -1.5684237780457277 [Eh]
	 SCS Total Energy          =    -406.1257074429942691 [Eh]
	-----------------------------------------------------------

  Dipole Moment: [D]
     X:     1.4909      Y:     1.3564      Z:    -0.0001     Total:     2.0157

*** Psi4 exiting successfully. Buy a developer a beer!
