                               Psi4 1.4a3.dev225

  ==> Input File <==

--------------------------------------------------------------------------
#psi4
#
memory 32 gb

molecule  {
0 1
  F       -2.7448780     0.0146810    -0.0001360
  O        2.7530530    -0.0983740     0.0001420
  C        1.3805510    -0.0140580     0.0000660
  C        0.6748340    -1.2214480     0.0000070
  C        0.6924230     1.2023800     0.0000660
  C       -0.7180740    -1.2138510    -0.0000640
  C       -0.7043650     1.2157020    -0.0000090
  C       -1.3854240     0.0065120    -0.0000670
  H        1.2310880    -2.1541510     0.0000080
  H        1.2399310     2.1436010     0.0001160
  H       -1.2882010    -2.1378200    -0.0001110
  H       -1.2607430     2.1479340    -0.0000130
  H        3.1252257     0.8224166     0.0001012
units angstrom
no_reorient  #important for SAPT in psi4, default
symmetry c1  #important for SAPT in psi4, default
}

set PROPERTIES_ORIGIN ["COM"]
properties('MP2/aug-cc-pvtz', properties = ['dipole'])
--------------------------------------------------------------------------

    Molecular point group: c1
  Charge       = 0
  Multiplicity = 1
  Basis Set: AUG-CC-PVTZ
    Blend: AUG-CC-PVTZ
  Basis Set: (AUG-CC-PVTZ AUX)
    Blend: AUG-CC-PVTZ-JKFIT

    Orbital Energies [Eh]
    ---------------------

    Doubly Occupied:

       1A    -26.304376     2A    -20.600998     3A    -11.324175
       4A    -11.312663     5A    -11.255867     6A    -11.254290
       7A    -11.253457     8A    -11.247506     9A     -1.617020
      10A     -1.404253    11A     -1.162000    12A     -1.038558
      13A     -1.012795    14A     -0.871257    15A     -0.839007
      16A     -0.745113    17A     -0.739431    18A     -0.703371
      19A     -0.687517    20A     -0.643096    21A     -0.625874
      22A     -0.609270    23A     -0.596443    24A     -0.582347
      25A     -0.559288    26A     -0.509985    27A     -0.491587
      28A     -0.359027    29A     -0.321702

  @DF-RHF Final Energy:  -404.55678461807679

   => Energetics <=

    Nuclear Repulsion Energy =            341.9252869480687309
    One-Electron Energy =               -1231.6195961717846785
    Two-Electron Energy =                 485.1375246056391006
    Total Energy =                       -404.5567846180767901
  Basis Set: (AUG-CC-PVTZ AUX)
    Blend: AUG-CC-PVTZ-RI
    Molecular point group: c1

    Geometry (in Angstrom), charge = 0, multiplicity = 1:

       Center              X                  Y                   Z               Mass
    ------------   -----------------  -----------------  -----------------  -----------------
         F           -2.693437853550     0.021494308085    -0.000134013852    18.998403162730
         O            2.804493146450    -0.091560691915     0.000143986148    15.994914619570
         C            1.431991146450    -0.007244691915     0.000067986148    12.000000000000
         C            0.726274146450    -1.214634691915     0.000008986148    12.000000000000
         C            0.743863146450     1.209193308085     0.000067986148    12.000000000000
         C           -0.666633853550    -1.207037691915    -0.000062013852    12.000000000000
         C           -0.652924853550     1.222515308085    -0.000007013852    12.000000000000
         C           -1.333983853550     0.013325308085    -0.000065013852    12.000000000000
         H            1.282528146450    -2.147337691915     0.000009986148     1.007825032230
         H            1.291371146450     2.150414308085     0.000117986148     1.007825032230
         H           -1.236760853550    -2.131006691915    -0.000109013852     1.007825032230
         H           -1.209302853550     2.154747308085    -0.000011013852     1.007825032230
         H            3.176665846450     0.829229908085     0.000103186148     1.007825032230

  Basis Set: AUG-CC-PVTZ
    Blend: AUG-CC-PVTZ
  Basis Set: (AUG-CC-PVTZ AUX)
    Blend: AUG-CC-PVTZ-JKFIT
	 Reference Energy          =    -404.5567846180767901 [Eh]
	 Singles Energy            =      -0.0000000000000000 [Eh]
	 Same-Spin Energy          =      -0.3987146969339314 [Eh]
	 Opposite-Spin Energy      =      -1.1968720047739838 [Eh]
	 Correlation Energy        =      -1.5955867017079153 [Eh]
	 Total Energy              =    -406.1523713197847201 [Eh]

	 ================> DF-SCS-MP2 Energies <==================
	-----------------------------------------------------------
	 SCS Same-Spin Scale       =       0.3333333333333333 [-]
	 SCS Opposite-Spin Scale   =       1.2000000000000000 [-]
	 SCS Same-Spin Energy      =      -0.1329048989779771 [Eh]
	 SCS Opposite-Spin Energy  =      -1.4362464057287805 [Eh]
	 SCS Correlation Energy    =      -1.5691513047067576 [Eh]
	 SCS Total Energy          =    -406.1259359227835262 [Eh]
	-----------------------------------------------------------

  Dipole Moment: [D]
     X:     1.5120      Y:     1.2880      Z:    -0.0000     Total:     1.9862

*** Psi4 exiting successfully. Buy a developer a beer!
