                               Psi4 1.4a3.dev225

  ==> Input File <==

--------------------------------------------------------------------------
#psi4
#
memory 32 gb

molecule  {
0 1
  F       -2.7448780     0.0146810    -0.0001360
  O        2.7530530    -0.0983740     0.0001420
  C        1.3805510    -0.0140580     0.0000660
  C        0.6748340    -1.2214480     0.0000070
  C        0.6924230     1.2023800     0.0000660
  C       -0.7180740    -1.2138510    -0.0000640
  C       -0.7043650     1.2157020    -0.0000090
  C       -1.3854240     0.0065120    -0.0000670
  H        1.2310880    -2.1541510     0.0000080
  H        1.2399310     2.1436010     0.0001160
  H       -1.2882010    -2.1378200    -0.0001110
  H       -1.2607430     2.1479340    -0.0000130
  H        3.1364678     0.8502306     0.0000999
units angstrom
no_reorient  #important for SAPT in psi4, default
symmetry c1  #important for SAPT in psi4, default
}

set PROPERTIES_ORIGIN ["COM"]
properties('MP2/aug-cc-pvtz', properties = ['dipole'])
--------------------------------------------------------------------------

    Molecular point group: c1
  Charge       = 0
  Multiplicity = 1
  Basis Set: AUG-CC-PVTZ
    Blend: AUG-CC-PVTZ
  Basis Set: (AUG-CC-PVTZ AUX)
    Blend: AUG-CC-PVTZ-JKFIT

    Orbital Energies [Eh]
    ---------------------

    Doubly Occupied:

       1A    -26.304209     2A    -20.603235     3A    -11.323945
       4A    -11.312416     5A    -11.255700     6A    -11.254175
       7A    -11.253208     8A    -11.247342     9A     -1.616857
      10A     -1.398592    11A     -1.161462    12A     -1.038359
      13A     -1.011635    14A     -0.870521    15A     -0.837579
      16A     -0.743595    17A     -0.736522    18A     -0.702556
      19A     -0.687364    20A     -0.641588    21A     -0.625575
      22A     -0.609088    23A     -0.595576    24A     -0.581411
      25A     -0.557949    26A     -0.509579    27A     -0.491195
      28A     -0.358885    29A     -0.321340

  @DF-RHF Final Energy:  -404.55320311863727

   => Energetics <=

    Nuclear Repulsion Energy =            341.7585795563194324
    One-Electron Energy =               -1231.3206488891764820
    Two-Electron Energy =                 485.0088662142197791
    Total Energy =                       -404.5532031186372706
  Basis Set: (AUG-CC-PVTZ AUX)
    Blend: AUG-CC-PVTZ-RI
    Molecular point group: c1

    Geometry (in Angstrom), charge = 0, multiplicity = 1:

       Center              X                  Y                   Z               Mass
    ------------   -----------------  -----------------  -----------------  -----------------
         F           -2.693538985593     0.021244098014    -0.000134002157    18.998403162730
         O            2.804392014407    -0.091810901986     0.000143997843    15.994914619570
         C            1.431890014407    -0.007494901986     0.000067997843    12.000000000000
         C            0.726173014407    -1.214884901986     0.000008997843    12.000000000000
         C            0.743762014407     1.208943098014     0.000067997843    12.000000000000
         C           -0.666734985593    -1.207287901986    -0.000062002157    12.000000000000
         C           -0.653025985593     1.222265098014    -0.000007002157    12.000000000000
         C           -1.334084985593     0.013075098014    -0.000065002157    12.000000000000
         H            1.282427014407    -2.147587901986     0.000009997843     1.007825032230
         H            1.291270014407     2.150164098014     0.000117997843     1.007825032230
         H           -1.236861985593    -2.131256901986    -0.000109002157     1.007825032230
         H           -1.209403985593     2.154497098014    -0.000011002157     1.007825032230
         H            3.187806814407     0.856793698014     0.000101897843     1.007825032230

  Basis Set: AUG-CC-PVTZ
    Blend: AUG-CC-PVTZ
  Basis Set: (AUG-CC-PVTZ AUX)
    Blend: AUG-CC-PVTZ-JKFIT
	 Reference Energy          =    -404.5532031186372706 [Eh]
	 Singles Energy            =      -0.0000000000000000 [Eh]
	 Same-Spin Energy          =      -0.3990868504016609 [Eh]
	 Opposite-Spin Energy      =      -1.1978473118193307 [Eh]
	 Correlation Energy        =      -1.5969341622209916 [Eh]
	 Total Energy              =    -406.1501372808582460 [Eh]

	 ================> DF-SCS-MP2 Energies <==================
	-----------------------------------------------------------
	 SCS Same-Spin Scale       =       0.3333333333333333 [-]
	 SCS Opposite-Spin Scale   =       1.2000000000000000 [-]
	 SCS Same-Spin Energy      =      -0.1330289501338870 [Eh]
	 SCS Opposite-Spin Energy  =      -1.4374167741831967 [Eh]
	 SCS Correlation Energy    =      -1.5704457243170837 [Eh]
	 SCS Total Energy          =    -406.1236488429543670 [Eh]
	-----------------------------------------------------------

  Dipole Moment: [D]
     X:     1.5353      Y:     1.3108      Z:    -0.0000     Total:     2.0187

*** Psi4 exiting successfully. Buy a developer a beer!
