                               Psi4 1.3.2 release

  ==> Input File <==

--------------------------------------------------------------------------
#psi4
#
memory 32 gb

molecule  {
0 1
  F       -2.7449650     0.0145570    -0.0001620
  O        2.7531530    -0.0983640     0.0001690
  C        1.3793818    -0.0376864     0.0000743
  C        0.6751730    -1.2211850     0.0000160
  C        0.6920200     1.2024970     0.0000780
  C       -0.7178840    -1.2139290    -0.0000690
  C       -0.7046260     1.2155960    -0.0000150
  C       -1.3854560     0.0061980    -0.0000700
  H        1.2313420    -2.1539510     0.0000130
  H        1.2396650     2.1436990     0.0001380
  H       -1.2874740    -2.1381980    -0.0001180
  H       -1.2612150     2.1476890    -0.0000120
  H        3.1178830     0.8039200     0.0000280
units angstrom
no_reorient  #important for SAPT in psi4, default
symmetry c1  #important for SAPT in psi4, default
}

set PROPERTIES_ORIGIN ["COM"]
properties('MP2/aug-cc-pvtz', properties = ['dipole'])
--------------------------------------------------------------------------

    Molecular point group: c1
  Charge       = 0
  Multiplicity = 1
  Basis Set: AUG-CC-PVTZ
    Blend: AUG-CC-PVTZ
  Basis Set: (AUG-CC-PVTZ AUX)
    Blend: AUG-CC-PVTZ-JKFIT

    Orbital Energies [Eh]
    ---------------------

    Doubly Occupied:

       1A    -26.304500     2A    -20.598494     3A    -11.324321
       4A    -11.312775     5A    -11.256865     6A    -11.255661
       7A    -11.254369     8A    -11.244819     9A     -1.617126
      10A     -1.407325    11A     -1.162608    12A     -1.039413
      13A     -1.013454    14A     -0.872272    15A     -0.839219
      16A     -0.747392    17A     -0.740377    18A     -0.704767
      19A     -0.687642    20A     -0.643970    21A     -0.625658
      22A     -0.609914    23A     -0.596630    24A     -0.585345
      25A     -0.557745    26A     -0.509397    27A     -0.491809
      28A     -0.359259    29A     -0.322043

  @DF-RHF Final Energy:  -404.55786676490675

   => Energetics <=

    Nuclear Repulsion Energy =            342.0545937947842958
    One-Electron Energy =               -1231.8545833413002129
    Two-Electron Energy =                 485.2421227816091687
    Total Energy =                       -404.5578667649067484
  Basis Set: (AUG-CC-PVTZ AUX)
    Blend: AUG-CC-PVTZ-RI
    Molecular point group: c1

    Geometry (in Angstrom), charge = 0, multiplicity = 1:

       Center              X                  Y                   Z               Mass
    ------------   -----------------  -----------------  -----------------  -----------------
         F           -2.693317386638     0.024102744551    -0.000160628814    18.998403162730
         O            2.804800613362    -0.088818255449     0.000170371186    15.994914619570
         C            1.431029413362    -0.028140655449     0.000075671186    12.000000000000
         C            0.726820613362    -1.211639255449     0.000017371186    12.000000000000
         C            0.743667613362     1.212042744551     0.000079371186    12.000000000000
         C           -0.666236386638    -1.204383255449    -0.000067628814    12.000000000000
         C           -0.652978386638     1.225141744551    -0.000013628814    12.000000000000
         C           -1.333808386638     0.015743744551    -0.000068628814    12.000000000000
         H            1.282989613362    -2.144405255449     0.000014371186     1.007825032230
         H            1.291312613362     2.153244744551     0.000139371186     1.007825032230
         H           -1.235826386638    -2.128652255449    -0.000116628814     1.007825032230
         H           -1.209567386638     2.157234744551    -0.000010628814     1.007825032230
         H            3.169530613362     0.813465744551     0.000029371186     1.007825032230

  Basis Set: AUG-CC-PVTZ
    Blend: AUG-CC-PVTZ
  Basis Set: (AUG-CC-PVTZ AUX)
    Blend: AUG-CC-PVTZ-JKFIT
	 Reference Energy          =    -404.5578667649067484 [Eh]
	 Singles Energy            =      -0.0000000000000000 [Eh]
	 Same-Spin Energy          =      -0.3984287398045831 [Eh]
	 Opposite-Spin Energy      =      -1.1961504673782790 [Eh]
	 Correlation Energy        =      -1.5945792071828622 [Eh]
	 Total Energy              =    -406.1524459720895948 [Eh]

	 ================> DF-SCS-MP2 Energies <==================
	-----------------------------------------------------------
	 SCS Same-Spin Scale       =       0.3333333333333333 [-]
	 SCS Opposite-Spin Scale   =       1.2000000000000000 [-]
	 SCS Same-Spin Energy      =      -0.1328095799348610 [Eh]
	 SCS Opposite-Spin Energy  =      -1.4353805608539347 [Eh]
	 SCS Correlation Energy    =      -1.5681901407887957 [Eh]
	 SCS Total Energy          =    -406.1260569056955205 [Eh]
	-----------------------------------------------------------

  Dipole Moment: [D]
     X:     1.4847      Y:     1.2802      Z:    -0.0001     Total:     1.9605

*** Psi4 exiting successfully. Buy a developer a beer!
