                               Psi4 1.3.2 release

  ==> Input File <==

--------------------------------------------------------------------------
#psi4
#
memory 32 gb

molecule  {
0 1
  F       -2.7449650     0.0145570    -0.0001620
  O        2.7367866    -0.2413659     0.0001675
  C        1.3806500    -0.0137200     0.0000700
  C        0.6751730    -1.2211850     0.0000160
  C        0.6920200     1.2024970     0.0000780
  C       -0.7178840    -1.2139290    -0.0000690
  C       -0.7046260     1.2155960    -0.0000150
  C       -1.3854560     0.0061980    -0.0000700
  H        1.2313420    -2.1539510     0.0000130
  H        1.2396650     2.1436990     0.0001380
  H       -1.2874740    -2.1381980    -0.0001180
  H       -1.2612150     2.1476890    -0.0000120
  H        3.1178830     0.8039200     0.0000280
units angstrom
no_reorient  #important for SAPT in psi4, default
symmetry c1  #important for SAPT in psi4, default
}

set PROPERTIES_ORIGIN ["COM"]
properties('MP2/aug-cc-pvtz', properties = ['dipole'])
--------------------------------------------------------------------------

    Molecular point group: c1
  Charge       = 0
  Multiplicity = 1
  Basis Set: AUG-CC-PVTZ
    Blend: AUG-CC-PVTZ
  Basis Set: (AUG-CC-PVTZ AUX)
    Blend: AUG-CC-PVTZ-JKFIT

    Orbital Energies [Eh]
    ---------------------

    Doubly Occupied:

       1A    -26.304108     2A    -20.614035     3A    -11.323856
       4A    -11.311199     5A    -11.256822     6A    -11.255623
       7A    -11.252764     8A    -11.244168     9A     -1.616730
      10A     -1.391447    11A     -1.160326    12A     -1.038348
      13A     -1.008670    14A     -0.870808    15A     -0.832947
      16A     -0.742782    17A     -0.726544    18A     -0.693757
      19A     -0.687241    20A     -0.641267    21A     -0.624953
      22A     -0.608706    23A     -0.596791    24A     -0.570700
      25A     -0.563859    26A     -0.509194    27A     -0.491035
      28A     -0.358900    29A     -0.320862

  @DF-RHF Final Energy:  -404.53091551830471

   => Energetics <=

    Nuclear Repulsion Energy =            341.6896450132703080
    One-Electron Energy =               -1231.2042386231905766
    Two-Electron Energy =                 484.9836780916155021
    Total Energy =                       -404.5309155183047096
  Basis Set: (AUG-CC-PVTZ AUX)
    Blend: AUG-CC-PVTZ-RI
    Molecular point group: c1

    Geometry (in Angstrom), charge = 0, multiplicity = 1:

       Center              X                  Y                   Z               Mass
    ------------   -----------------  -----------------  -----------------  -----------------
         F           -2.691116588689     0.041952095403    -0.000159954078    18.998403162730
         O            2.790635011311    -0.213970804597     0.000169545922    15.994914619570
         C            1.434498411311     0.013675095403     0.000072045922    12.000000000000
         C            0.729021411311    -1.193789904597     0.000018045922    12.000000000000
         C            0.745868411311     1.229892095403     0.000080045922    12.000000000000
         C           -0.664035588689    -1.186533904597    -0.000066954078    12.000000000000
         C           -0.650777588689     1.242991095403    -0.000012954078    12.000000000000
         C           -1.331607588689     0.033593095403    -0.000067954078    12.000000000000
         H            1.285190411311    -2.126555904597     0.000015045922     1.007825032230
         H            1.293513411311     2.171094095403     0.000140045922     1.007825032230
         H           -1.233625588689    -2.110802904597    -0.000115954078     1.007825032230
         H           -1.207366588689     2.175084095403    -0.000009954078     1.007825032230
         H            3.171731411311     0.831315095403     0.000030045922     1.007825032230

  Basis Set: AUG-CC-PVTZ
    Blend: AUG-CC-PVTZ
  Basis Set: (AUG-CC-PVTZ AUX)
    Blend: AUG-CC-PVTZ-JKFIT
	 Reference Energy          =    -404.5309155183047096 [Eh]
	 Singles Energy            =      -0.0000000000000000 [Eh]
	 Same-Spin Energy          =      -0.4008626835633649 [Eh]
	 Opposite-Spin Energy      =      -1.2023713114472305 [Eh]
	 Correlation Energy        =      -1.6032339950105954 [Eh]
	 Total Energy              =    -406.1341495133153217 [Eh]

	 ================> DF-SCS-MP2 Energies <==================
	-----------------------------------------------------------
	 SCS Same-Spin Scale       =       0.3333333333333333 [-]
	 SCS Opposite-Spin Scale   =       1.2000000000000000 [-]
	 SCS Same-Spin Energy      =      -0.1336208945211216 [Eh]
	 SCS Opposite-Spin Energy  =      -1.4428455737366765 [Eh]
	 SCS Correlation Energy    =      -1.5764664682577982 [Eh]
	 SCS Total Energy          =    -406.1073819865625296 [Eh]
	-----------------------------------------------------------

  Dipole Moment: [D]
     X:     1.5722      Y:     1.3688      Z:    -0.0001     Total:     2.0846

*** Psi4 exiting successfully. Buy a developer a beer!
