                               Psi4 1.4a3.dev225

  ==> Input File <==

--------------------------------------------------------------------------
#psi4
#
memory 32 gb

molecule  {
0 1
  F       -2.7448780     0.0146810    -0.0001360
  O        2.7530530    -0.0983740     0.0001420
  C        1.3805510    -0.0140580     0.0000660
  C        0.6748340    -1.2214480     0.0000070
  C        0.6924230     1.2023800     0.0000660
  C       -0.7180740    -1.2138510    -0.0000640
  C       -0.7043650     1.2157020    -0.0000090
  C       -1.4054236     0.0066322    -0.0000680
  H        1.2310880    -2.1541510     0.0000080
  H        1.2399310     2.1436010     0.0001160
  H       -1.2882010    -2.1378200    -0.0001110
  H       -1.2607430     2.1479340    -0.0000130
  H        3.1177310     0.8038740     0.0001020
units angstrom
no_reorient  #important for SAPT in psi4, default
symmetry c1  #important for SAPT in psi4, default
}

set PROPERTIES_ORIGIN ["COM"]
properties('MP2/aug-cc-pvtz', properties = ['dipole'])
--------------------------------------------------------------------------

    Molecular point group: c1
  Charge       = 0
  Multiplicity = 1
  Basis Set: AUG-CC-PVTZ
    Blend: AUG-CC-PVTZ
  Basis Set: (AUG-CC-PVTZ AUX)
    Blend: AUG-CC-PVTZ-JKFIT

    Orbital Energies [Eh]
    ---------------------

    Doubly Occupied:

       1A    -26.310274     2A    -20.598781     3A    -11.325962
       4A    -11.311986     5A    -11.255775     6A    -11.254204
       7A    -11.252940     8A    -11.246895     9A     -1.629293
      10A     -1.407704    11A     -1.159146    12A     -1.036701
      13A     -1.012279    14A     -0.870657    15A     -0.842136
      16A     -0.747133    17A     -0.745970    18A     -0.707131
      19A     -0.695711    20A     -0.644889    21A     -0.626442
      22A     -0.606575    23A     -0.596311    24A     -0.583805
      25A     -0.559605    26A     -0.506774    27A     -0.489340
      28A     -0.358074    29A     -0.319510

  @DF-RHF Final Energy:  -404.55822434661468

   => Energetics <=

    Nuclear Repulsion Energy =            341.9566190654630873
    One-Electron Energy =               -1231.6256809666028857
    Two-Electron Energy =                 485.1108375545251192
    Total Energy =                       -404.5582243466146792
  Basis Set: (AUG-CC-PVTZ AUX)
    Blend: AUG-CC-PVTZ-RI
    Molecular point group: c1

    Geometry (in Angstrom), charge = 0, multiplicity = 1:

       Center              X                  Y                   Z               Mass
    ------------   -----------------  -----------------  -----------------  -----------------
         F           -2.691228238730     0.021648239357    -0.000133913936    18.998403162730
         O            2.806702761270    -0.091406760643     0.000144086064    15.994914619570
         C            1.434200761270    -0.007090760643     0.000068086064    12.000000000000
         C            0.728483761270    -1.214480760643     0.000009086064    12.000000000000
         C            0.746072761270     1.209347239357     0.000068086064    12.000000000000
         C           -0.664424238730    -1.206883760643    -0.000061913936    12.000000000000
         C           -0.650715238730     1.222669239357    -0.000006913936    12.000000000000
         C           -1.351773838730     0.013599439357    -0.000065913936    12.000000000000
         H            1.284737761270    -2.147183760643     0.000010086064     1.007825032230
         H            1.293580761270     2.150568239357     0.000118086064     1.007825032230
         H           -1.234551238730    -2.130852760643    -0.000108913936     1.007825032230
         H           -1.207093238730     2.154901239357    -0.000010913936     1.007825032230
         H            3.171380761270     0.810841239357     0.000104086064     1.007825032230

  Basis Set: AUG-CC-PVTZ
    Blend: AUG-CC-PVTZ
  Basis Set: (AUG-CC-PVTZ AUX)
    Blend: AUG-CC-PVTZ-JKFIT
	 Reference Energy          =    -404.5582243466146792 [Eh]
	 Singles Energy            =      -0.0000000000000000 [Eh]
	 Same-Spin Energy          =      -0.3984227653157634 [Eh]
	 Opposite-Spin Energy      =      -1.1959875411597993 [Eh]
	 Correlation Energy        =      -1.5944103064755626 [Eh]
	 Total Energy              =    -406.1526346530902174 [Eh]

	 ================> DF-SCS-MP2 Energies <==================
	-----------------------------------------------------------
	 SCS Same-Spin Scale       =       0.3333333333333333 [-]
	 SCS Opposite-Spin Scale   =       1.2000000000000000 [-]
	 SCS Same-Spin Energy      =      -0.1328075884385878 [Eh]
	 SCS Opposite-Spin Energy  =      -1.4351850493917591 [Eh]
	 SCS Correlation Energy    =      -1.5679926378303468 [Eh]
	 SCS Total Energy          =    -406.1262169844450227 [Eh]
	-----------------------------------------------------------

  Dipole Moment: [D]
     X:     1.3650      Y:     1.2731      Z:    -0.0000     Total:     1.8665

*** Psi4 exiting successfully. Buy a developer a beer!
