                               Psi4 1.3.2 release

  ==> Input File <==

--------------------------------------------------------------------------
#psi4
#
memory 32 gb

molecule  {
0 1
  F       -2.7449650     0.0145570    -0.0001620
  O        2.7531530    -0.0983640     0.0001690
  C        1.1810293    -0.0014091     0.0000556
  C        0.6751730    -1.2211850     0.0000160
  C        0.6920200     1.2024970     0.0000780
  C       -0.7178840    -1.2139290    -0.0000690
  C       -0.7046260     1.2155960    -0.0000150
  C       -1.3854560     0.0061980    -0.0000700
  H        1.2313420    -2.1539510     0.0000130
  H        1.2396650     2.1436990     0.0001380
  H       -1.2874740    -2.1381980    -0.0001180
  H       -1.2612150     2.1476890    -0.0000120
  H        3.1178830     0.8039200     0.0000280
units angstrom
no_reorient  #important for SAPT in psi4, default
symmetry c1  #important for SAPT in psi4, default
}

set PROPERTIES_ORIGIN ["COM"]
properties('MP2/aug-cc-pvtz', properties = ['dipole'])
--------------------------------------------------------------------------

    Molecular point group: c1
  Charge       = 0
  Multiplicity = 1
  Basis Set: AUG-CC-PVTZ
    Blend: AUG-CC-PVTZ
  Basis Set: (AUG-CC-PVTZ AUX)
    Blend: AUG-CC-PVTZ-JKFIT

    Orbital Energies [Eh]
    ---------------------

    Doubly Occupied:

       1A    -26.311607     2A    -20.562869     3A    -11.333311
       4A    -11.302509     5A    -11.262956     6A    -11.261879
       7A    -11.254677     8A    -11.251958     9A     -1.624018
      10A     -1.325949    11A     -1.192516    12A     -1.061583
      13A     -1.028597    14A     -0.885763    15A     -0.838809
      16A     -0.757357    17A     -0.723574    18A     -0.694739
      19A     -0.682362    20A     -0.648398    21A     -0.642054
      22A     -0.622297    23A     -0.575900    24A     -0.568613
      25A     -0.538740    26A     -0.503569    27A     -0.487993
      28A     -0.370017    29A     -0.347389

  @DF-RHF Final Energy:  -404.51407940477503

   => Energetics <=

    Nuclear Repulsion Energy =            343.5611126118132574
    One-Electron Energy =               -1234.8263699725628157
    Two-Electron Energy =                 486.7511779559744696
    Total Energy =                       -404.5140794047750319
  Basis Set: (AUG-CC-PVTZ AUX)
    Blend: AUG-CC-PVTZ-RI
    Molecular point group: c1

    Geometry (in Angstrom), charge = 0, multiplicity = 1:

       Center              X                  Y                   Z               Mass
    ------------   -----------------  -----------------  -----------------  -----------------
         F           -2.672071487348     0.020217016555    -0.000158625823    18.998403162730
         O            2.826046512652    -0.092703983445     0.000172374177    15.994914619570
         C            1.253922812652     0.004250916555     0.000058974177    12.000000000000
         C            0.748066512652    -1.215524983445     0.000019374177    12.000000000000
         C            0.764913512652     1.208157016555     0.000081374177    12.000000000000
         C           -0.644990487348    -1.208268983445    -0.000065625823    12.000000000000
         C           -0.631732487348     1.221256016555    -0.000011625823    12.000000000000
         C           -1.312562487348     0.011858016555    -0.000066625823    12.000000000000
         H            1.304235512652    -2.148290983445     0.000016374177     1.007825032230
         H            1.312558512652     2.149359016555     0.000141374177     1.007825032230
         H           -1.214580487348    -2.132537983445    -0.000114625823     1.007825032230
         H           -1.188321487348     2.153349016555    -0.000008625823     1.007825032230
         H            3.190776512652     0.809580016555     0.000031374177     1.007825032230

  Basis Set: AUG-CC-PVTZ
    Blend: AUG-CC-PVTZ
  Basis Set: (AUG-CC-PVTZ AUX)
    Blend: AUG-CC-PVTZ-JKFIT
	 Reference Energy          =    -404.5140794047750319 [Eh]
	 Singles Energy            =      -0.0000000000000000 [Eh]
	 Same-Spin Energy          =      -0.3998174443052765 [Eh]
	 Opposite-Spin Energy      =      -1.2004297367568300 [Eh]
	 Correlation Energy        =      -1.6002471810621066 [Eh]
	 Total Energy              =    -406.1143265858371478 [Eh]

	 ================> DF-SCS-MP2 Energies <==================
	-----------------------------------------------------------
	 SCS Same-Spin Scale       =       0.3333333333333333 [-]
	 SCS Opposite-Spin Scale   =       1.2000000000000000 [-]
	 SCS Same-Spin Energy      =      -0.1332724814350922 [Eh]
	 SCS Opposite-Spin Energy  =      -1.4405156841081959 [Eh]
	 SCS Correlation Energy    =      -1.5737881655432879 [Eh]
	 SCS Total Energy          =    -406.0878675703183376 [Eh]
	-----------------------------------------------------------

  Dipole Moment: [D]
     X:     0.2582      Y:     1.2537      Z:    -0.0002     Total:     1.2801

*** Psi4 exiting successfully. Buy a developer a beer!
