                               Psi4 1.3.2 release

  ==> Input File <==

--------------------------------------------------------------------------
#psi4
#
memory 32 gb

molecule  {
0 1
  F       -2.7449650     0.0145570    -0.0001620
  O        2.7531530    -0.0983640     0.0001690
  C        1.2808396    -0.0075646     0.0000628
  C        0.6751730    -1.2211850     0.0000160
  C        0.6920200     1.2024970     0.0000780
  C       -0.7178840    -1.2139290    -0.0000690
  C       -0.7046260     1.2155960    -0.0000150
  C       -1.3854560     0.0061980    -0.0000700
  H        1.2313420    -2.1539510     0.0000130
  H        1.2396650     2.1436990     0.0001380
  H       -1.2874740    -2.1381980    -0.0001180
  H       -1.2612150     2.1476890    -0.0000120
  H        3.1178830     0.8039200     0.0000280
units angstrom
no_reorient  #important for SAPT in psi4, default
symmetry c1  #important for SAPT in psi4, default
}

set PROPERTIES_ORIGIN ["COM"]
properties('MP2/aug-cc-pvtz', properties = ['dipole'])
--------------------------------------------------------------------------

    Molecular point group: c1
  Charge       = 0
  Multiplicity = 1
  Basis Set: AUG-CC-PVTZ
    Blend: AUG-CC-PVTZ
  Basis Set: (AUG-CC-PVTZ AUX)
    Blend: AUG-CC-PVTZ-JKFIT

    Orbital Energies [Eh]
    ---------------------

    Doubly Occupied:

       1A    -26.308295     2A    -20.581382     3A    -11.329322
       4A    -11.305490     5A    -11.259065     6A    -11.257768
       7A    -11.253964     8A    -11.249446     9A     -1.620800
      10A     -1.362402    11A     -1.176932    12A     -1.048992
      13A     -1.022019    14A     -0.878008    15A     -0.838437
      16A     -0.750588    17A     -0.727169    18A     -0.695678
      19A     -0.691315    20A     -0.642701    21A     -0.628847
      22A     -0.622252    23A     -0.580572    24A     -0.576243
      25A     -0.537459    26A     -0.525490    27A     -0.493692
      28A     -0.364155    29A     -0.335835

  @DF-RHF Final Energy:  -404.54626516161261

   => Energetics <=

    Nuclear Repulsion Energy =            342.7189602761955030
    One-Electron Energy =               -1233.2018085071667883
    Two-Electron Energy =                 485.9365830693586759
    Total Energy =                       -404.5462651616126095
  Basis Set: (AUG-CC-PVTZ AUX)
    Blend: AUG-CC-PVTZ-RI
    Molecular point group: c1

    Geometry (in Angstrom), charge = 0, multiplicity = 1:

       Center              X                  Y                   Z               Mass
    ------------   -----------------  -----------------  -----------------  -----------------
         F           -2.682762351249     0.020876343425    -0.000159397028    18.998403162730
         O            2.815355648751    -0.092044656575     0.000171602972    15.994914619570
         C            1.343042248751    -0.001245256575     0.000065402972    12.000000000000
         C            0.737375648751    -1.214865656575     0.000018602972    12.000000000000
         C            0.754222648751     1.208816343425     0.000080602972    12.000000000000
         C           -0.655681351249    -1.207609656575    -0.000066397028    12.000000000000
         C           -0.642423351249     1.221915343425    -0.000012397028    12.000000000000
         C           -1.323253351249     0.012517343425    -0.000067397028    12.000000000000
         H            1.293544648751    -2.147631656575     0.000015602972     1.007825032230
         H            1.301867648751     2.150018343425     0.000140602972     1.007825032230
         H           -1.225271351249    -2.131878656575    -0.000115397028     1.007825032230
         H           -1.199012351249     2.154008343425    -0.000009397028     1.007825032230
         H            3.180085648751     0.810239343425     0.000030602972     1.007825032230

  Basis Set: AUG-CC-PVTZ
    Blend: AUG-CC-PVTZ
  Basis Set: (AUG-CC-PVTZ AUX)
    Blend: AUG-CC-PVTZ-JKFIT
	 Reference Energy          =    -404.5462651616126095 [Eh]
	 Singles Energy            =      -0.0000000000000000 [Eh]
	 Same-Spin Energy          =      -0.3987475215710299 [Eh]
	 Opposite-Spin Energy      =      -1.1976462187780110 [Eh]
	 Correlation Energy        =      -1.5963937403490409 [Eh]
	 Total Energy              =    -406.1426589019616245 [Eh]

	 ================> DF-SCS-MP2 Energies <==================
	-----------------------------------------------------------
	 SCS Same-Spin Scale       =       0.3333333333333333 [-]
	 SCS Opposite-Spin Scale   =       1.2000000000000000 [-]
	 SCS Same-Spin Energy      =      -0.1329158405236766 [Eh]
	 SCS Opposite-Spin Energy  =      -1.4371754625336133 [Eh]
	 SCS Correlation Energy    =      -1.5700913030572898 [Eh]
	 SCS Total Energy          =    -406.1163564646698774 [Eh]
	-----------------------------------------------------------

  Dipole Moment: [D]
     X:     0.8507      Y:     1.2638      Z:    -0.0002     Total:     1.5235

*** Psi4 exiting successfully. Buy a developer a beer!
