                               Psi4 1.4a3.dev225

  ==> Input File <==

--------------------------------------------------------------------------
#psi4
#
memory 32 gb

molecule  {
0 1
  F       -2.7448780     0.0146810    -0.0001360
  O        2.7530530    -0.0983740     0.0001420
  C        1.3805510    -0.0140580     0.0000660
  C        0.6748340    -1.2214480     0.0000070
  C        0.6924230     1.2023800     0.0000660
  C       -0.7180740    -1.2138510    -0.0000640
  C       -0.7043650     1.2157020    -0.0000090
  C       -1.3854240     0.0065120    -0.0000670
  H        1.2310880    -2.1541510     0.0000080
  H        1.2399310     2.1436010     0.0001160
  H       -1.2882010    -2.1378200    -0.0001110
  H       -1.2607430     2.1479340    -0.0000130
  H        3.1102363     0.7853314     0.0001028
units angstrom
no_reorient  #important for SAPT in psi4, default
symmetry c1  #important for SAPT in psi4, default
}

set PROPERTIES_ORIGIN ["COM"]
properties('MP2/aug-cc-pvtz', properties = ['dipole'])
--------------------------------------------------------------------------

    Molecular point group: c1
  Charge       = 0
  Multiplicity = 1
  Basis Set: AUG-CC-PVTZ
    Blend: AUG-CC-PVTZ
  Basis Set: (AUG-CC-PVTZ AUX)
    Blend: AUG-CC-PVTZ-JKFIT

    Orbital Energies [Eh]
    ---------------------

    Doubly Occupied:

       1A    -26.304611     2A    -20.597743     3A    -11.324498
       4A    -11.313010     5A    -11.256099     6A    -11.254456
       7A    -11.253808     8A    -11.247750     9A     -1.617247
      10A     -1.412733    11A     -1.162774    12A     -1.038840
      13A     -1.014505    14A     -0.872397    15A     -0.841118
      16A     -0.749339    17A     -0.741351    18A     -0.704362
      19A     -0.687731    20A     -0.645030    21A     -0.626267
      22A     -0.609519    23A     -0.597682    24A     -0.583546
      25A     -0.560951    26A     -0.510498    27A     -0.492140
      28A     -0.359228    29A     -0.322212

  @DF-RHF Final Energy:  -404.55933590751914

   => Energetics <=

    Nuclear Repulsion Energy =            342.1600655922607643
    One-Electron Energy =               -1232.0359102282989170
    Two-Electron Energy =                 485.3165087285190680
    Total Energy =                       -404.5593359075191415
  Basis Set: (AUG-CC-PVTZ AUX)
    Blend: AUG-CC-PVTZ-RI
    Molecular point group: c1

    Geometry (in Angstrom), charge = 0, multiplicity = 1:

       Center              X                  Y                   Z               Mass
    ------------   -----------------  -----------------  -----------------  -----------------
         F           -2.693303011426     0.021827920313    -0.000134028245    18.998403162730
         O            2.804627988574    -0.091227079687     0.000143971755    15.994914619570
         C            1.432125988574    -0.006911079687     0.000067971755    12.000000000000
         C            0.726408988574    -1.214301079687     0.000008971755    12.000000000000
         C            0.743997988574     1.209526920313     0.000067971755    12.000000000000
         C           -0.666499011426    -1.206704079687    -0.000062028245    12.000000000000
         C           -0.652790011426     1.222848920313    -0.000007028245    12.000000000000
         C           -1.333849011426     0.013658920313    -0.000065028245    12.000000000000
         H            1.282662988574    -2.147004079687     0.000009971755     1.007825032230
         H            1.291505988574     2.150747920313     0.000117971755     1.007825032230
         H           -1.236626011426    -2.130673079687    -0.000109028245     1.007825032230
         H           -1.209168011426     2.155080920313    -0.000011028245     1.007825032230
         H            3.161811288574     0.792478320313     0.000104771755     1.007825032230

  Basis Set: AUG-CC-PVTZ
    Blend: AUG-CC-PVTZ
  Basis Set: (AUG-CC-PVTZ AUX)
    Blend: AUG-CC-PVTZ-JKFIT
	 Reference Energy          =    -404.5593359075191415 [Eh]
	 Singles Energy            =      -0.0000000000000000 [Eh]
	 Same-Spin Energy          =      -0.3982138077374467 [Eh]
	 Opposite-Spin Energy      =      -1.1956114004642378 [Eh]
	 Correlation Energy        =      -1.5938252082016846 [Eh]
	 Total Energy              =    -406.1531611157208204 [Eh]

	 ================> DF-SCS-MP2 Energies <==================
	-----------------------------------------------------------
	 SCS Same-Spin Scale       =       0.3333333333333333 [-]
	 SCS Opposite-Spin Scale   =       1.2000000000000000 [-]
	 SCS Same-Spin Energy      =      -0.1327379359124822 [Eh]
	 SCS Opposite-Spin Energy  =      -1.4347336805570852 [Eh]
	 SCS Correlation Energy    =      -1.5674716164695675 [Eh]
	 SCS Total Energy          =    -406.1268075239887025 [Eh]
	-----------------------------------------------------------

  Dipole Moment: [D]
     X:     1.4790      Y:     1.2573      Z:    -0.0000     Total:     1.9412

*** Psi4 exiting successfully. Buy a developer a beer!
