                               Psi4 1.3.2 release

  ==> Input File <==

--------------------------------------------------------------------------
#psi4
#
memory 32 gb

molecule  {
0 1
  F       -2.7449650     0.0145570    -0.0001620
  O        2.7514667    -0.1223046     0.0001688
  C        1.3806500    -0.0137200     0.0000700
  C        0.6751730    -1.2211850     0.0000160
  C        0.6920200     1.2024970     0.0000780
  C       -0.7178840    -1.2139290    -0.0000690
  C       -0.7046260     1.2155960    -0.0000150
  C       -1.3854560     0.0061980    -0.0000700
  H        1.2313420    -2.1539510     0.0000130
  H        1.2396650     2.1436990     0.0001380
  H       -1.2874740    -2.1381980    -0.0001180
  H       -1.2612150     2.1476890    -0.0000120
  H        3.1178830     0.8039200     0.0000280
units angstrom
no_reorient  #important for SAPT in psi4, default
symmetry c1  #important for SAPT in psi4, default
}

set PROPERTIES_ORIGIN ["COM"]
properties('MP2/aug-cc-pvtz', properties = ['dipole'])
--------------------------------------------------------------------------

    Molecular point group: c1
  Charge       = 0
  Multiplicity = 1
  Basis Set: AUG-CC-PVTZ
    Blend: AUG-CC-PVTZ
  Basis Set: (AUG-CC-PVTZ AUX)
    Blend: AUG-CC-PVTZ-JKFIT

    Orbital Energies [Eh]
    ---------------------

    Doubly Occupied:

       1A    -26.304396     2A    -20.602162     3A    -11.324226
       4A    -11.312416     5A    -11.256089     6A    -11.254092
       7A    -11.253991     8A    -11.246976     9A     -1.617018
      10A     -1.404907    11A     -1.161981    12A     -1.038613
      13A     -1.012620    14A     -0.871570    15A     -0.838388
      16A     -0.744827    17A     -0.738785    18A     -0.702426
      19A     -0.687522    20A     -0.643922    21A     -0.625873
      22A     -0.609269    23A     -0.596917    24A     -0.580917
      25A     -0.561350    26A     -0.510249    27A     -0.491703
      28A     -0.359064    29A     -0.321751

  @DF-RHF Final Energy:  -404.55609874054494

   => Energetics <=

    Nuclear Repulsion Energy =            341.9569984152404913
    One-Electron Energy =               -1231.6781519909941380
    Two-Electron Energy =                 485.1650548352087071
    Total Energy =                       -404.5560987405449396
  Basis Set: (AUG-CC-PVTZ AUX)
    Blend: AUG-CC-PVTZ-RI
    Molecular point group: c1

    Geometry (in Angstrom), charge = 0, multiplicity = 1:

       Center              X                  Y                   Z               Mass
    ------------   -----------------  -----------------  -----------------  -----------------
         F           -2.693212472167     0.024953668180    -0.000160139679    18.998403162730
         O            2.803219227833    -0.111907931820     0.000170660321    15.994914619570
         C            1.432402527833    -0.003323331820     0.000071860321    12.000000000000
         C            0.726925527833    -1.210788331820     0.000017860321    12.000000000000
         C            0.743772527833     1.212893668180     0.000079860321    12.000000000000
         C           -0.666131472167    -1.203532331820    -0.000067139679    12.000000000000
         C           -0.652873472167     1.225992668180    -0.000013139679    12.000000000000
         C           -1.333703472167     0.016594668180    -0.000068139679    12.000000000000
         H            1.283094527833    -2.143554331820     0.000014860321     1.007825032230
         H            1.291417527833     2.154095668180     0.000139860321     1.007825032230
         H           -1.235721472167    -2.127801331820    -0.000116139679     1.007825032230
         H           -1.209462472167     2.158085668180    -0.000010139679     1.007825032230
         H            3.169635527833     0.814316668180     0.000029860321     1.007825032230

  Basis Set: AUG-CC-PVTZ
    Blend: AUG-CC-PVTZ
  Basis Set: (AUG-CC-PVTZ AUX)
    Blend: AUG-CC-PVTZ-JKFIT
	 Reference Energy          =    -404.5560987405449396 [Eh]
	 Singles Energy            =      -0.0000000000000000 [Eh]
	 Same-Spin Energy          =      -0.3988350655729693 [Eh]
	 Opposite-Spin Energy      =      -1.1971494817356536 [Eh]
	 Correlation Energy        =      -1.5959845473086229 [Eh]
	 Total Energy              =    -406.1520832878535430 [Eh]

	 ================> DF-SCS-MP2 Energies <==================
	-----------------------------------------------------------
	 SCS Same-Spin Scale       =       0.3333333333333333 [-]
	 SCS Opposite-Spin Scale   =       1.2000000000000000 [-]
	 SCS Same-Spin Energy      =      -0.1329450218576564 [Eh]
	 SCS Opposite-Spin Energy  =      -1.4365793780827842 [Eh]
	 SCS Correlation Energy    =      -1.5695243999404407 [Eh]
	 SCS Total Energy          =    -406.1256231404854020 [Eh]
	-----------------------------------------------------------

  Dipole Moment: [D]
     X:     1.5119      Y:     1.2918      Z:    -0.0001     Total:     1.9886

*** Psi4 exiting successfully. Buy a developer a beer!
