                               Psi4 1.3.2 release

  ==> Input File <==

--------------------------------------------------------------------------
#psi4
#
memory 32 gb

molecule  {
0 1
  F       -2.7449650     0.0145570    -0.0001620
  O        2.7531530    -0.0983640     0.0001690
  C        1.3806500    -0.0137200     0.0000700
  C        0.6751730    -1.2211850     0.0000160
  C        0.6920200     1.2024970     0.0000780
  C       -0.7178840    -1.2139290    -0.0000690
  C       -0.7046260     1.2155960    -0.0000150
  C       -1.3854560     0.0061980    -0.0000700
  H        1.2313420    -2.1539510     0.0000130
  H        1.2396650     2.1436990     0.0001380
  H       -1.2874740    -2.1381980    -0.0001180
  H       -1.2612150     2.1476890    -0.0000120
  H        3.1928368     0.9893437    -0.0000010
units angstrom
no_reorient  #important for SAPT in psi4, default
symmetry c1  #important for SAPT in psi4, default
}

set PROPERTIES_ORIGIN ["COM"]
properties('MP2/aug-cc-pvtz', properties = ['dipole'])
--------------------------------------------------------------------------

    Molecular point group: c1
  Charge       = 0
  Multiplicity = 1
  Basis Set: AUG-CC-PVTZ
    Blend: AUG-CC-PVTZ
  Basis Set: (AUG-CC-PVTZ AUX)
    Blend: AUG-CC-PVTZ-JKFIT

    Orbital Energies [Eh]
    ---------------------

    Doubly Occupied:

       1A    -26.303482     2A    -20.612190     3A    -11.322966
       4A    -11.311360     5A    -11.254975     6A    -11.253707
       7A    -11.252176     8A    -11.246757     9A     -1.616131
      10A     -1.377470    11A     -1.159301    12A     -1.037515
      13A     -1.007185    14A     -0.867841    15A     -0.832250
      16A     -0.741862    17A     -0.720709    18A     -0.697207
      19A     -0.686690    20A     -0.633855    21A     -0.623865
      22A     -0.608233    23A     -0.592046    24A     -0.576472
      25A     -0.549620    26A     -0.507045    27A     -0.489580
      28A     -0.358278    29A     -0.319818

  @DF-RHF Final Energy:  -404.52234620345882

   => Energetics <=

    Nuclear Repulsion Energy =            341.0202224909406823
    One-Electron Energy =               -1229.9639664564867871
    Two-Electron Energy =                 484.4213977620872811
    Total Energy =                       -404.5223462034588238
  Basis Set: (AUG-CC-PVTZ AUX)
    Blend: AUG-CC-PVTZ-RI
    Molecular point group: c1

    Geometry (in Angstrom), charge = 0, multiplicity = 1:

       Center              X                  Y                   Z               Mass
    ------------   -----------------  -----------------  -----------------  -----------------
         F           -2.694127497651     0.019867619136    -0.000159907354    18.998403162730
         O            2.803990502349    -0.093053380864     0.000171092646    15.994914619570
         C            1.431487502349    -0.008409380864     0.000072092646    12.000000000000
         C            0.726010502349    -1.215874380864     0.000018092646    12.000000000000
         C            0.742857502349     1.207807619136     0.000080092646    12.000000000000
         C           -0.667046497651    -1.208618380864    -0.000066907354    12.000000000000
         C           -0.653788497651     1.220906619136    -0.000012907354    12.000000000000
         C           -1.334618497651     0.011508619136    -0.000067907354    12.000000000000
         H            1.282179502349    -2.148640380864     0.000015092646     1.007825032230
         H            1.290502502349     2.149009619136     0.000140092646     1.007825032230
         H           -1.236636497651    -2.132887380864    -0.000115907354     1.007825032230
         H           -1.210377497651     2.152999619136    -0.000009907354     1.007825032230
         H            3.243674302349     0.994654319136     0.000001092646     1.007825032230

  Basis Set: AUG-CC-PVTZ
    Blend: AUG-CC-PVTZ
  Basis Set: (AUG-CC-PVTZ AUX)
    Blend: AUG-CC-PVTZ-JKFIT
	 Reference Energy          =    -404.5223462034588238 [Eh]
	 Singles Energy            =      -0.0000000000000000 [Eh]
	 Same-Spin Energy          =      -0.4008811742160194 [Eh]
	 Opposite-Spin Energy      =      -1.2030991022067874 [Eh]
	 Correlation Energy        =      -1.6039802764228068 [Eh]
	 Total Energy              =    -406.1263264798816408 [Eh]

	 ================> DF-SCS-MP2 Energies <==================
	-----------------------------------------------------------
	 SCS Same-Spin Scale       =       0.3333333333333333 [-]
	 SCS Opposite-Spin Scale   =       1.2000000000000000 [-]
	 SCS Same-Spin Energy      =      -0.1336270580720064 [Eh]
	 SCS Opposite-Spin Energy  =      -1.4437189226481448 [Eh]
	 SCS Correlation Energy    =      -1.5773459807201513 [Eh]
	 SCS Total Energy          =    -406.0996921841789913 [Eh]
	-----------------------------------------------------------

  Dipole Moment: [D]
     X:     1.6326      Y:     1.4184      Z:    -0.0002     Total:     2.1627

*** Psi4 exiting successfully. Buy a developer a beer!
