                               Psi4 1.4a3.dev225

  ==> Input File <==

--------------------------------------------------------------------------
#psi4
#
memory 32 gb

molecule  {
0 1
  F       -2.7448780     0.0146810    -0.0001360
  O        2.7530530    -0.0983740     0.0001420
  C        1.3605886    -0.0128317     0.0000649
  C        0.6748340    -1.2214480     0.0000070
  C        0.6924230     1.2023800     0.0000660
  C       -0.7180740    -1.2138510    -0.0000640
  C       -0.7043650     1.2157020    -0.0000090
  C       -1.3854240     0.0065120    -0.0000670
  H        1.2310880    -2.1541510     0.0000080
  H        1.2399310     2.1436010     0.0001160
  H       -1.2882010    -2.1378200    -0.0001110
  H       -1.2607430     2.1479340    -0.0000130
  H        3.1177310     0.8038740     0.0001020
units angstrom
no_reorient  #important for SAPT in psi4, default
symmetry c1  #important for SAPT in psi4, default
}

set PROPERTIES_ORIGIN ["COM"]
properties('MP2/aug-cc-pvtz', properties = ['dipole'])
--------------------------------------------------------------------------

    Molecular point group: c1
  Charge       = 0
  Multiplicity = 1
  Basis Set: AUG-CC-PVTZ
    Blend: AUG-CC-PVTZ
  Basis Set: (AUG-CC-PVTZ AUX)
    Blend: AUG-CC-PVTZ-JKFIT

    Orbital Energies [Eh]
    ---------------------

    Doubly Occupied:

       1A    -26.305329     2A    -20.595709     3A    -11.325457
       4A    -11.311042     5A    -11.256554     6A    -11.255020
       7A    -11.253725     8A    -11.247987     9A     -1.617942
      10A     -1.398225    11A     -1.165200    12A     -1.040619
      13A     -1.015451    14A     -0.872788    15A     -0.839506
      16A     -0.746202    17A     -0.738536    18A     -0.702659
      19A     -0.688418    20A     -0.643172    21A     -0.626567
      22A     -0.612068    23A     -0.591892    24A     -0.582492
      25A     -0.556599    26A     -0.513820    27A     -0.492639
      28A     -0.360092    29A     -0.324916

  @DF-RHF Final Energy:  -404.55784410361002

   => Energetics <=

    Nuclear Repulsion Energy =            342.1614457298030061
    One-Electron Energy =               -1232.0773251971395439
    Two-Electron Energy =                 485.3580353637264579
    Total Energy =                       -404.5578441036100230
  Basis Set: (AUG-CC-PVTZ AUX)
    Blend: AUG-CC-PVTZ-RI
    Molecular point group: c1

    Geometry (in Angstrom), charge = 0, multiplicity = 1:

       Center              X                  Y                   Z               Mass
    ------------   -----------------  -----------------  -----------------  -----------------
         F           -2.691232223290     0.021529762961    -0.000133903225    18.998403162730
         O            2.806698776710    -0.091525237039     0.000144096775    15.994914619570
         C            1.414234376710    -0.005982937039     0.000066996775    12.000000000000
         C            0.728479776710    -1.214599237039     0.000009096775    12.000000000000
         C            0.746068776710     1.209228762961     0.000068096775    12.000000000000
         C           -0.664428223290    -1.207002237039    -0.000061903225    12.000000000000
         C           -0.650719223290     1.222550762961    -0.000006903225    12.000000000000
         C           -1.331778223290     0.013360762961    -0.000064903225    12.000000000000
         H            1.284733776710    -2.147302237039     0.000010096775     1.007825032230
         H            1.293576776710     2.150449762961     0.000118096775     1.007825032230
         H           -1.234555223290    -2.130971237039    -0.000108903225     1.007825032230
         H           -1.207097223290     2.154782762961    -0.000010903225     1.007825032230
         H            3.171376776710     0.810722762961     0.000104096775     1.007825032230

  Basis Set: AUG-CC-PVTZ
    Blend: AUG-CC-PVTZ
  Basis Set: (AUG-CC-PVTZ AUX)
    Blend: AUG-CC-PVTZ-JKFIT
	 Reference Energy          =    -404.5578441036100230 [Eh]
	 Singles Energy            =      -0.0000000000000000 [Eh]
	 Same-Spin Energy          =      -0.3984587358461706 [Eh]
	 Opposite-Spin Energy      =      -1.1964022779430237 [Eh]
	 Correlation Energy        =      -1.5948610137891943 [Eh]
	 Total Energy              =    -406.1527051173991936 [Eh]

	 ================> DF-SCS-MP2 Energies <==================
	-----------------------------------------------------------
	 SCS Same-Spin Scale       =       0.3333333333333333 [-]
	 SCS Opposite-Spin Scale   =       1.2000000000000000 [-]
	 SCS Same-Spin Energy      =      -0.1328195786153902 [Eh]
	 SCS Opposite-Spin Energy  =      -1.4356827335316285 [Eh]
	 SCS Correlation Energy    =      -1.5685023121470187 [Eh]
	 SCS Total Energy          =    -406.1263464157570411 [Eh]
	-----------------------------------------------------------

  Dipole Moment: [D]
     X:     1.3600      Y:     1.2711      Z:    -0.0000     Total:     1.8616

*** Psi4 exiting successfully. Buy a developer a beer!
