                               Psi4 1.4a3.dev225

  ==> Input File <==

--------------------------------------------------------------------------
#psi4
#
memory 32 gb

molecule  {
0 1
  F       -2.7448780     0.0146810    -0.0001360
  O        2.7530530    -0.0983740     0.0001420
  C        1.4005134    -0.0152843     0.0000671
  C        0.6748340    -1.2214480     0.0000070
  C        0.6924230     1.2023800     0.0000660
  C       -0.7180740    -1.2138510    -0.0000640
  C       -0.7043650     1.2157020    -0.0000090
  C       -1.3854240     0.0065120    -0.0000670
  H        1.2310880    -2.1541510     0.0000080
  H        1.2399310     2.1436010     0.0001160
  H       -1.2882010    -2.1378200    -0.0001110
  H       -1.2607430     2.1479340    -0.0000130
  H        3.1177310     0.8038740     0.0001020
units angstrom
no_reorient  #important for SAPT in psi4, default
symmetry c1  #important for SAPT in psi4, default
}

set PROPERTIES_ORIGIN ["COM"]
properties('MP2/aug-cc-pvtz', properties = ['dipole'])
--------------------------------------------------------------------------

    Molecular point group: c1
  Charge       = 0
  Multiplicity = 1
  Basis Set: AUG-CC-PVTZ
    Blend: AUG-CC-PVTZ
  Basis Set: (AUG-CC-PVTZ AUX)
    Blend: AUG-CC-PVTZ-JKFIT

    Orbital Energies [Eh]
    ---------------------

    Doubly Occupied:

       1A    -26.303607     2A    -20.603200     3A    -11.323132
       4A    -11.314779     5A    -11.255430     6A    -11.253732
       7A    -11.253496     8A    -11.247246     9A     -1.616275
      10A     -1.419014    11A     -1.159598    12A     -1.036828
      13A     -1.011733    14A     -0.871040    15A     -0.840674
      16A     -0.750055    17A     -0.740587    18A     -0.705068
      19A     -0.686790    20A     -0.645271    21A     -0.625474
      22A     -0.606869    23A     -0.602692    24A     -0.583527
      25A     -0.562924    26A     -0.506436    27A     -0.490931
      28A     -0.358172    29A     -0.318899

  @DF-RHF Final Energy:  -404.55796187363228

   => Energetics <=

    Nuclear Repulsion Energy =            341.9289922281886902
    One-Electron Energy =               -1231.5869478950141911
    Two-Electron Energy =                 485.0999937931932209
    Total Energy =                       -404.5579618736322800
  Basis Set: (AUG-CC-PVTZ AUX)
    Blend: AUG-CC-PVTZ-RI
    Molecular point group: c1

    Geometry (in Angstrom), charge = 0, multiplicity = 1:

       Center              X                  Y                   Z               Mass
    ------------   -----------------  -----------------  -----------------  -----------------
         F           -2.695508641686     0.021792465436    -0.000134138871    18.998403162730
         O            2.802422358314    -0.091262534564     0.000143861129    15.994914619570
         C            1.449882758314    -0.008172834564     0.000068961129    12.000000000000
         C            0.724203358314    -1.214336534564     0.000008861129    12.000000000000
         C            0.741792358314     1.209491465436     0.000067861129    12.000000000000
         C           -0.668704641686    -1.206739534564    -0.000062138871    12.000000000000
         C           -0.654995641686     1.222813465436    -0.000007138871    12.000000000000
         C           -1.336054641686     0.013623465436    -0.000065138871    12.000000000000
         H            1.280457358314    -2.147039534564     0.000009861129     1.007825032230
         H            1.289300358314     2.150712465436     0.000117861129     1.007825032230
         H           -1.238831641686    -2.130708534564    -0.000109138871     1.007825032230
         H           -1.211373641686     2.155045465436    -0.000011138871     1.007825032230
         H            3.167100358314     0.810985465436     0.000103861129     1.007825032230

  Basis Set: AUG-CC-PVTZ
    Blend: AUG-CC-PVTZ
  Basis Set: (AUG-CC-PVTZ AUX)
    Blend: AUG-CC-PVTZ-JKFIT
	 Reference Energy          =    -404.5579618736322800 [Eh]
	 Singles Energy            =      -0.0000000000000000 [Eh]
	 Same-Spin Energy          =      -0.3984996049790600 [Eh]
	 Opposite-Spin Energy      =      -1.1961244340226629 [Eh]
	 Correlation Energy        =      -1.5946240390017228 [Eh]
	 Total Energy              =    -406.1525859126339810 [Eh]

	 ================> DF-SCS-MP2 Energies <==================
	-----------------------------------------------------------
	 SCS Same-Spin Scale       =       0.3333333333333333 [-]
	 SCS Opposite-Spin Scale   =       1.2000000000000000 [-]
	 SCS Same-Spin Energy      =      -0.1328332016596867 [Eh]
	 SCS Opposite-Spin Energy  =      -1.4353493208271955 [Eh]
	 SCS Correlation Energy    =      -1.5681825224868822 [Eh]
	 SCS Total Energy          =    -406.1261443961191731 [Eh]
	-----------------------------------------------------------

  Dipole Moment: [D]
     X:     1.6353      Y:     1.2742      Z:    -0.0000     Total:     2.0731

*** Psi4 exiting successfully. Buy a developer a beer!
