                               Psi4 1.3.2 release

  ==> Input File <==

--------------------------------------------------------------------------
#psi4
#
memory 32 gb

molecule  {
0 1
  F       -2.7449650     0.0145570    -0.0001620
  O        2.7531530    -0.0983640     0.0001690
  C        1.3785321    -0.0616712     0.0000785
  C        0.6751730    -1.2211850     0.0000160
  C        0.6920200     1.2024970     0.0000780
  C       -0.7178840    -1.2139290    -0.0000690
  C       -0.7046260     1.2155960    -0.0000150
  C       -1.3854560     0.0061980    -0.0000700
  H        1.2313420    -2.1539510     0.0000130
  H        1.2396650     2.1436990     0.0001380
  H       -1.2874740    -2.1381980    -0.0001180
  H       -1.2612150     2.1476890    -0.0000120
  H        3.1178830     0.8039200     0.0000280
units angstrom
no_reorient  #important for SAPT in psi4, default
symmetry c1  #important for SAPT in psi4, default
}

set PROPERTIES_ORIGIN ["COM"]
properties('MP2/aug-cc-pvtz', properties = ['dipole'])
--------------------------------------------------------------------------

    Molecular point group: c1
  Charge       = 0
  Multiplicity = 1
  Basis Set: AUG-CC-PVTZ
    Blend: AUG-CC-PVTZ
  Basis Set: (AUG-CC-PVTZ AUX)
    Blend: AUG-CC-PVTZ-JKFIT

    Orbital Energies [Eh]
    ---------------------

    Doubly Occupied:

       1A    -26.304567     2A    -20.597555     3A    -11.324383
       4A    -11.312576     5A    -11.258808     6A    -11.256458
       7A    -11.254334     8A    -11.241921     9A     -1.617192
      10A     -1.406292    11A     -1.162954    12A     -1.040870
      13A     -1.012826    14A     -0.872818    15A     -0.838173
      16A     -0.747885    17A     -0.740244    18A     -0.705660
      19A     -0.687709    20A     -0.643861    21A     -0.625356
      22A     -0.610356    23A     -0.596298    24A     -0.587620
      25A     -0.555548    26A     -0.507686    27A     -0.491758
      28A     -0.359915    29A     -0.321931

  @DF-RHF Final Energy:  -404.55585972643627

   => Energetics <=

    Nuclear Repulsion Energy =            342.0734930000194822
    One-Electron Energy =               -1231.8915919094581568
    Two-Electron Energy =                 485.2622391830024640
    Total Energy =                       -404.5558597264362675
  Basis Set: (AUG-CC-PVTZ AUX)
    Blend: AUG-CC-PVTZ-RI
    Molecular point group: c1

    Geometry (in Angstrom), charge = 0, multiplicity = 1:

       Center              X                  Y                   Z               Mass
    ------------   -----------------  -----------------  -----------------  -----------------
         F           -2.693226373716     0.026671800375    -0.000161078684    18.998403162730
         O            2.804891626284    -0.086249199625     0.000169921316    15.994914619570
         C            1.430270726284    -0.049556399625     0.000079421316    12.000000000000
         C            0.726911626284    -1.209070199625     0.000016921316    12.000000000000
         C            0.743758626284     1.214611800375     0.000078921316    12.000000000000
         C           -0.666145373716    -1.201814199625    -0.000068078684    12.000000000000
         C           -0.652887373716     1.227710800375    -0.000014078684    12.000000000000
         C           -1.333717373716     0.018312800375    -0.000069078684    12.000000000000
         H            1.283080626284    -2.141836199625     0.000013921316     1.007825032230
         H            1.291403626284     2.155813800375     0.000138921316     1.007825032230
         H           -1.235735373716    -2.126083199625    -0.000117078684     1.007825032230
         H           -1.209476373716     2.159803800375    -0.000011078684     1.007825032230
         H            3.169621626284     0.816034800375     0.000028921316     1.007825032230

  Basis Set: AUG-CC-PVTZ
    Blend: AUG-CC-PVTZ
  Basis Set: (AUG-CC-PVTZ AUX)
    Blend: AUG-CC-PVTZ-JKFIT
	 Reference Energy          =    -404.5558597264362675 [Eh]
	 Singles Energy            =      -0.0000000000000000 [Eh]
	 Same-Spin Energy          =      -0.3983423339959434 [Eh]
	 Opposite-Spin Energy      =      -1.1961144072081349 [Eh]
	 Correlation Energy        =      -1.5944567412040782 [Eh]
	 Total Energy              =    -406.1503164676403230 [Eh]

	 ================> DF-SCS-MP2 Energies <==================
	-----------------------------------------------------------
	 SCS Same-Spin Scale       =       0.3333333333333333 [-]
	 SCS Opposite-Spin Scale   =       1.2000000000000000 [-]
	 SCS Same-Spin Energy      =      -0.1327807779986478 [Eh]
	 SCS Opposite-Spin Energy  =      -1.4353372886497617 [Eh]
	 SCS Correlation Energy    =      -1.5681180666484096 [Eh]
	 SCS Total Energy          =    -406.1239777930846913 [Eh]
	-----------------------------------------------------------

  Dipole Moment: [D]
     X:     1.4729      Y:     1.2873      Z:    -0.0001     Total:     1.9562

*** Psi4 exiting successfully. Buy a developer a beer!
