                               Psi4 1.3.2 release

  ==> Input File <==

--------------------------------------------------------------------------
#psi4
#
memory 32 gb

molecule  {
0 1
  F       -2.7449650     0.0145570    -0.0001620
  O        2.7531530    -0.0983640     0.0001690
  C        1.3806500    -0.0137200     0.0000700
  C        0.6751730    -1.2211850     0.0000160
  C        0.6920200     1.2024970     0.0000780
  C       -0.7178840    -1.2139290    -0.0000690
  C       -0.7046260     1.2155960    -0.0000150
  C       -1.3854560     0.0061980    -0.0000700
  H        1.2313420    -2.1539510     0.0000130
  H        1.2396650     2.1436990     0.0001380
  H       -1.2874740    -2.1381980    -0.0001180
  H       -1.2612150     2.1476890    -0.0000120
  H        3.1553599     0.8966318     0.0000135
units angstrom
no_reorient  #important for SAPT in psi4, default
symmetry c1  #important for SAPT in psi4, default
}

set PROPERTIES_ORIGIN ["COM"]
properties('MP2/aug-cc-pvtz', properties = ['dipole'])
--------------------------------------------------------------------------

    Molecular point group: c1
  Charge       = 0
  Multiplicity = 1
  Basis Set: AUG-CC-PVTZ
    Blend: AUG-CC-PVTZ
  Basis Set: (AUG-CC-PVTZ AUX)
    Blend: AUG-CC-PVTZ-JKFIT

    Orbital Energies [Eh]
    ---------------------

    Doubly Occupied:

       1A    -26.303938     2A    -20.606632     3A    -11.323594
       4A    -11.312027     5A    -11.255440     6A    -11.253994
       7A    -11.252839     8A    -11.247093     9A     -1.616573
      10A     -1.390335    11A     -1.160653    12A     -1.038045
      13A     -1.009927    14A     -0.869464    15A     -0.835482
      16A     -0.742621    17A     -0.730657    18A     -0.701013
      19A     -0.687106    20A     -0.638990    21A     -0.625057
      22A     -0.608790    23A     -0.594257    24A     -0.579740
      25A     -0.555561    26A     -0.508847    27A     -0.490603
      28A     -0.358659    29A     -0.320788

  @DF-RHF Final Energy:  -404.54482947226745

   => Energetics <=

    Nuclear Repulsion Energy =            341.4931734976744906
    One-Electron Energy =               -1230.8385547294963089
    Two-Electron Energy =                 484.8005517595544234
    Total Energy =                       -404.5448294722674518
  Basis Set: (AUG-CC-PVTZ AUX)
    Blend: AUG-CC-PVTZ-RI
    Molecular point group: c1

    Geometry (in Angstrom), charge = 0, multiplicity = 1:

       Center              X                  Y                   Z               Mass
    ------------   -----------------  -----------------  -----------------  -----------------
         F           -2.693790361756     0.020701639810    -0.000160037794    18.998403162730
         O            2.804327638244    -0.092219360190     0.000170962206    15.994914619570
         C            1.431824638244    -0.007575360190     0.000071962206    12.000000000000
         C            0.726347638244    -1.215040360190     0.000017962206    12.000000000000
         C            0.743194638244     1.208641639810     0.000079962206    12.000000000000
         C           -0.666709361756    -1.207784360190    -0.000067037794    12.000000000000
         C           -0.653451361756     1.221740639810    -0.000013037794    12.000000000000
         C           -1.334281361756     0.012342639810    -0.000068037794    12.000000000000
         H            1.282516638244    -2.147806360190     0.000014962206     1.007825032230
         H            1.290839638244     2.149843639810     0.000139962206     1.007825032230
         H           -1.236299361756    -2.132053360190    -0.000116037794     1.007825032230
         H           -1.210040361756     2.153833639810    -0.000010037794     1.007825032230
         H            3.206534538244     0.902776439810     0.000015462206     1.007825032230

  Basis Set: AUG-CC-PVTZ
    Blend: AUG-CC-PVTZ
  Basis Set: (AUG-CC-PVTZ AUX)
    Blend: AUG-CC-PVTZ-JKFIT
	 Reference Energy          =    -404.5448294722674518 [Eh]
	 Singles Energy            =      -0.0000000000000000 [Eh]
	 Same-Spin Energy          =      -0.3996999988174680 [Eh]
	 Opposite-Spin Energy      =      -1.1995350357185517 [Eh]
	 Correlation Energy        =      -1.5992350345360196 [Eh]
	 Total Energy              =    -406.1440645068034883 [Eh]

	 ================> DF-SCS-MP2 Energies <==================
	-----------------------------------------------------------
	 SCS Same-Spin Scale       =       0.3333333333333333 [-]
	 SCS Opposite-Spin Scale   =       1.2000000000000000 [-]
	 SCS Same-Spin Energy      =      -0.1332333329391560 [Eh]
	 SCS Opposite-Spin Energy  =      -1.4394420428622621 [Eh]
	 SCS Correlation Energy    =      -1.5726753758014180 [Eh]
	 SCS Total Energy          =    -406.1175048480688474 [Eh]
	-----------------------------------------------------------

  Dipole Moment: [D]
     X:     1.5720      Y:     1.3481      Z:    -0.0002     Total:     2.0709

*** Psi4 exiting successfully. Buy a developer a beer!
