                               Psi4 1.3.2 release

  ==> Input File <==

--------------------------------------------------------------------------
#psi4
#
memory 32 gb

molecule  {
0 1
  F       -2.7449650     0.0145570    -0.0001620
  O        2.7544820     0.0455653     0.0001695
  C        1.3806500    -0.0137200     0.0000700
  C        0.6751730    -1.2211850     0.0000160
  C        0.6920200     1.2024970     0.0000780
  C       -0.7178840    -1.2139290    -0.0000690
  C       -0.7046260     1.2155960    -0.0000150
  C       -1.3854560     0.0061980    -0.0000700
  H        1.2313420    -2.1539510     0.0000130
  H        1.2396650     2.1436990     0.0001380
  H       -1.2874740    -2.1381980    -0.0001180
  H       -1.2612150     2.1476890    -0.0000120
  H        3.1178830     0.8039200     0.0000280
units angstrom
no_reorient  #important for SAPT in psi4, default
symmetry c1  #important for SAPT in psi4, default
}

set PROPERTIES_ORIGIN ["COM"]
properties('MP2/aug-cc-pvtz', properties = ['dipole'])
--------------------------------------------------------------------------

    Molecular point group: c1
  Charge       = 0
  Multiplicity = 1
  Basis Set: AUG-CC-PVTZ
    Blend: AUG-CC-PVTZ
  Basis Set: (AUG-CC-PVTZ AUX)
    Blend: AUG-CC-PVTZ-JKFIT

    Orbital Energies [Eh]
    ---------------------

    Doubly Occupied:

       1A    -26.305193     2A    -20.580746     3A    -11.325343
       4A    -11.316741     5A    -11.256089     6A    -11.255351
       7A    -11.251916     8A    -11.251731     9A     -1.617794
      10A     -1.434583    11A     -1.165437    12A     -1.039332
      13A     -1.022001    14A     -0.874581    15A     -0.854768
      16A     -0.769827    17A     -0.743032    18A     -0.709831
      19A     -0.688249    20A     -0.642846    21A     -0.627449
      22A     -0.610112    23A     -0.598508    24A     -0.592181
      25A     -0.551975    26A     -0.508755    27A     -0.493030
      28A     -0.359631    29A     -0.323464

  @DF-RHF Final Energy:  -404.54222620967840

   => Energetics <=

    Nuclear Repulsion Energy =            342.7155600804933329
    One-Electron Energy =               -1232.9745840189211776
    Two-Electron Energy =                 485.7167977287494409
    Total Energy =                       -404.5422262096784038
  Basis Set: (AUG-CC-PVTZ AUX)
    Blend: AUG-CC-PVTZ-RI
    Molecular point group: c1

    Geometry (in Angstrom), charge = 0, multiplicity = 1:

       Center              X                  Y                   Z               Mass
    ------------   -----------------  -----------------  -----------------  -----------------
         F           -2.693642967698     0.000986818514    -0.000160239618    18.998403162730
         O            2.805804032302     0.031995118514     0.000171260382    15.994914619570
         C            1.431972032302    -0.027290181486     0.000071760382    12.000000000000
         C            0.726495032302    -1.234755181486     0.000017760382    12.000000000000
         C            0.743342032302     1.188926818514     0.000079760382    12.000000000000
         C           -0.666561967698    -1.227499181486    -0.000067239618    12.000000000000
         C           -0.653303967698     1.202025818514    -0.000013239618    12.000000000000
         C           -1.334133967698    -0.007372181486    -0.000068239618    12.000000000000
         H            1.282664032302    -2.167521181486     0.000014760382     1.007825032230
         H            1.290987032302     2.130128818514     0.000139760382     1.007825032230
         H           -1.236151967698    -2.151768181486    -0.000116239618     1.007825032230
         H           -1.209892967698     2.134118818514    -0.000010239618     1.007825032230
         H            3.169205032302     0.790349818514     0.000029760382     1.007825032230

  Basis Set: AUG-CC-PVTZ
    Blend: AUG-CC-PVTZ
  Basis Set: (AUG-CC-PVTZ AUX)
    Blend: AUG-CC-PVTZ-JKFIT
	 Reference Energy          =    -404.5422262096784038 [Eh]
	 Singles Energy            =      -0.0000000000000000 [Eh]
	 Same-Spin Energy          =      -0.3966308233781348 [Eh]
	 Opposite-Spin Energy      =      -1.1918747601096431 [Eh]
	 Correlation Energy        =      -1.5885055834877779 [Eh]
	 Total Energy              =    -406.1307317931662055 [Eh]

	 ================> DF-SCS-MP2 Energies <==================
	-----------------------------------------------------------
	 SCS Same-Spin Scale       =       0.3333333333333333 [-]
	 SCS Opposite-Spin Scale   =       1.2000000000000000 [-]
	 SCS Same-Spin Energy      =      -0.1322102744593783 [Eh]
	 SCS Opposite-Spin Energy  =      -1.4302497121315716 [Eh]
	 SCS Correlation Energy    =      -1.5624599865909499 [Eh]
	 SCS Total Energy          =    -406.1046861962693697 [Eh]
	-----------------------------------------------------------

  Dipole Moment: [D]
     X:     1.3837      Y:     1.1299      Z:    -0.0002     Total:     1.7864

*** Psi4 exiting successfully. Buy a developer a beer!
