                               Psi4 1.3.2 release

  ==> Input File <==

--------------------------------------------------------------------------
#psi4
#
memory 32 gb

molecule  {
0 1
  F       -2.7383912    -0.1275962    -0.0001667
  O        2.7531530    -0.0983640     0.0001690
  C        1.3806500    -0.0137200     0.0000700
  C        0.6751730    -1.2211850     0.0000160
  C        0.6920200     1.2024970     0.0000780
  C       -0.7178840    -1.2139290    -0.0000690
  C       -0.7046260     1.2155960    -0.0000150
  C       -1.3854560     0.0061980    -0.0000700
  H        1.2313420    -2.1539510     0.0000130
  H        1.2396650     2.1436990     0.0001380
  H       -1.2874740    -2.1381980    -0.0001180
  H       -1.2612150     2.1476890    -0.0000120
  H        3.1178830     0.8039200     0.0000280
units angstrom
no_reorient  #important for SAPT in psi4, default
symmetry c1  #important for SAPT in psi4, default
}

set PROPERTIES_ORIGIN ["COM"]
properties('MP2/aug-cc-pvtz', properties = ['dipole'])
--------------------------------------------------------------------------

    Molecular point group: c1
  Charge       = 0
  Multiplicity = 1
  Basis Set: AUG-CC-PVTZ
    Blend: AUG-CC-PVTZ
  Basis Set: (AUG-CC-PVTZ AUX)
    Blend: AUG-CC-PVTZ-JKFIT

    Orbital Energies [Eh]
    ---------------------

    Doubly Occupied:

       1A    -26.304313     2A    -20.599450     3A    -11.324366
       4A    -11.312829     5A    -11.258848     6A    -11.254410
       7A    -11.251253     8A    -11.246430     9A     -1.617410
      10A     -1.408340    11A     -1.162267    12A     -1.038578
      13A     -1.013555    14A     -0.871590    15A     -0.840687
      16A     -0.748341    17A     -0.738614    18A     -0.702640
      19A     -0.687787    20A     -0.647337    21A     -0.626199
      22A     -0.609059    23A     -0.597008    24A     -0.576636
      25A     -0.563525    26A     -0.509650    27A     -0.491786
      28A     -0.358819    29A     -0.322019

  @DF-RHF Final Energy:  -404.55585202061314

   => Energetics <=

    Nuclear Repulsion Energy =            342.1461716011250473
    One-Electron Energy =               -1232.0365562170447902
    Two-Electron Energy =                 485.3345325953065981
    Total Energy =                       -404.5558520206131448
  Basis Set: (AUG-CC-PVTZ AUX)
    Blend: AUG-CC-PVTZ-RI
    Molecular point group: c1

    Geometry (in Angstrom), charge = 0, multiplicity = 1:

       Center              X                  Y                   Z               Mass
    ------------   -----------------  -----------------  -----------------  -----------------
         F           -2.687994207432    -0.096511275002    -0.000164071210    18.998403162730
         O            2.803549992568    -0.067279075002     0.000171628790    15.994914619570
         C            1.431046992568     0.017364924998     0.000072628790    12.000000000000
         C            0.725569992568    -1.190100075002     0.000018628790    12.000000000000
         C            0.742416992568     1.233581924998     0.000080628790    12.000000000000
         C           -0.667487007432    -1.182844075002    -0.000066371210    12.000000000000
         C           -0.654229007432     1.246680924998    -0.000012371210    12.000000000000
         C           -1.335059007432     0.037282924998    -0.000067371210    12.000000000000
         H            1.281738992568    -2.122866075002     0.000015628790     1.007825032230
         H            1.290061992568     2.174783924998     0.000140628790     1.007825032230
         H           -1.237077007432    -2.107113075002    -0.000115371210     1.007825032230
         H           -1.210818007432     2.178773924998    -0.000009371210     1.007825032230
         H            3.168279992568     0.835004924998     0.000030628790     1.007825032230

  Basis Set: AUG-CC-PVTZ
    Blend: AUG-CC-PVTZ
  Basis Set: (AUG-CC-PVTZ AUX)
    Blend: AUG-CC-PVTZ-JKFIT
	 Reference Energy          =    -404.5558520206131448 [Eh]
	 Singles Energy            =      -0.0000000000000000 [Eh]
	 Same-Spin Energy          =      -0.3985301043387128 [Eh]
	 Opposite-Spin Energy      =      -1.1964349442530073 [Eh]
	 Correlation Energy        =      -1.5949650485917202 [Eh]
	 Total Energy              =    -406.1508170692048907 [Eh]

	 ================> DF-SCS-MP2 Energies <==================
	-----------------------------------------------------------
	 SCS Same-Spin Scale       =       0.3333333333333333 [-]
	 SCS Opposite-Spin Scale   =       1.2000000000000000 [-]
	 SCS Same-Spin Energy      =      -0.1328433681129043 [Eh]
	 SCS Opposite-Spin Energy  =      -1.4357219331036088 [Eh]
	 SCS Correlation Energy    =      -1.5685653012165131 [Eh]
	 SCS Total Energy          =    -406.1244173218296396 [Eh]
	-----------------------------------------------------------

  Dipole Moment: [D]
     X:     1.4832      Y:     1.3980      Z:    -0.0001     Total:     2.0382

*** Psi4 exiting successfully. Buy a developer a beer!
