                               Psi4 1.4a3.dev225

  ==> Input File <==

--------------------------------------------------------------------------
#psi4
#
memory 32 gb

molecule  {
0 1
  F       -2.7448780     0.0146810    -0.0001360
  O        2.7530530    -0.0983740     0.0001420
  C        1.3805510    -0.0140580     0.0000660
  C        0.6748340    -1.2214480     0.0000070
  C        0.6924230     1.2023800     0.0000660
  C       -0.7180740    -1.2138510    -0.0000640
  C       -0.7043650     1.2157020    -0.0000090
  C       -1.4354231     0.0068124    -0.0000695
  H        1.2310880    -2.1541510     0.0000080
  H        1.2399310     2.1436010     0.0001160
  H       -1.2882010    -2.1378200    -0.0001110
  H       -1.2607430     2.1479340    -0.0000130
  H        3.1177310     0.8038740     0.0001020
units angstrom
no_reorient  #important for SAPT in psi4, default
symmetry c1  #important for SAPT in psi4, default
}

set PROPERTIES_ORIGIN ["COM"]
properties('MP2/aug-cc-pvtz', properties = ['dipole'])
--------------------------------------------------------------------------

    Molecular point group: c1
  Charge       = 0
  Multiplicity = 1
  Basis Set: AUG-CC-PVTZ
    Blend: AUG-CC-PVTZ
  Basis Set: (AUG-CC-PVTZ AUX)
    Blend: AUG-CC-PVTZ-JKFIT

    Orbital Energies [Eh]
    ---------------------

    Doubly Occupied:

       1A    -26.319078     2A    -20.597778     3A    -11.328783
       4A    -11.310620     5A    -11.255459     6A    -11.253939
       7A    -11.251918     8A    -11.245835     9A     -1.648589
      10A     -1.406675    11A     -1.154431    12A     -1.033841
      13A     -1.010236    14A     -0.869248    15A     -0.846319
      16A     -0.755415    17A     -0.746353    18A     -0.712136
      19A     -0.708447    20A     -0.645969    21A     -0.626464
      22A     -0.602666    23A     -0.595160    24A     -0.584615
      25A     -0.558475    26A     -0.501106    27A     -0.485614
      28A     -0.356529    29A     -0.315664

  @DF-RHF Final Energy:  -404.55594704770397

   => Energetics <=

    Nuclear Repulsion Energy =            341.8496888106348024
    One-Electron Energy =               -1231.3565476352064252
    Two-Electron Energy =                 484.9509117768676560
    Total Energy =                       -404.5559470477039667
  Basis Set: (AUG-CC-PVTZ AUX)
    Blend: AUG-CC-PVTZ-RI
    Molecular point group: c1

    Geometry (in Angstrom), charge = 0, multiplicity = 1:

       Center              X                  Y                   Z               Mass
    ------------   -----------------  -----------------  -----------------  -----------------
         F           -2.688014937381     0.021628937805    -0.000133753269    18.998403162730
         O            2.809916062619    -0.091426062195     0.000144246731    15.994914619570
         C            1.437414062619    -0.007110062195     0.000068246731    12.000000000000
         C            0.731697062619    -1.214500062195     0.000009246731    12.000000000000
         C            0.749286062619     1.209327937805     0.000068246731    12.000000000000
         C           -0.661210937381    -1.206903062195    -0.000061753269    12.000000000000
         C           -0.647501937381     1.222649937805    -0.000006753269    12.000000000000
         C           -1.378560037381     0.013760337805    -0.000067253269    12.000000000000
         H            1.287951062619    -2.147203062195     0.000010246731     1.007825032230
         H            1.296794062619     2.150548937805     0.000118246731     1.007825032230
         H           -1.231337937381    -2.130872062195    -0.000108753269     1.007825032230
         H           -1.203879937381     2.154881937805    -0.000010753269     1.007825032230
         H            3.174594062619     0.810821937805     0.000104246731     1.007825032230

  Basis Set: AUG-CC-PVTZ
    Blend: AUG-CC-PVTZ
  Basis Set: (AUG-CC-PVTZ AUX)
    Blend: AUG-CC-PVTZ-JKFIT
	 Reference Energy          =    -404.5559470477039667 [Eh]
	 Singles Energy            =      -0.0000000000000000 [Eh]
	 Same-Spin Energy          =      -0.3984159932741318 [Eh]
	 Opposite-Spin Energy      =      -1.1957123767087121 [Eh]
	 Correlation Energy        =      -1.5941283699828439 [Eh]
	 Total Energy              =    -406.1500754176868213 [Eh]

	 ================> DF-SCS-MP2 Energies <==================
	-----------------------------------------------------------
	 SCS Same-Spin Scale       =       0.3333333333333333 [-]
	 SCS Opposite-Spin Scale   =       1.2000000000000000 [-]
	 SCS Same-Spin Energy      =      -0.1328053310913773 [Eh]
	 SCS Opposite-Spin Energy  =      -1.4348548520504545 [Eh]
	 SCS Correlation Energy    =      -1.5676601831418318 [Eh]
	 SCS Total Energy          =    -406.1236072308457778 [Eh]
	-----------------------------------------------------------

  Dipole Moment: [D]
     X:     1.1626      Y:     1.2736      Z:    -0.0000     Total:     1.7245

*** Psi4 exiting successfully. Buy a developer a beer!
