                               Psi4 1.3.2 release

  ==> Input File <==

--------------------------------------------------------------------------
#psi4
#
memory 32 gb

molecule  {
0 1
  F       -2.7449650     0.0145570    -0.0001620
  O        2.7531530    -0.0983640     0.0001690
  C        1.3806500    -0.0137200     0.0000700
  C        0.6751730    -1.2211850     0.0000160
  C        0.6920200     1.2024970     0.0000780
  C       -0.7178840    -1.2139290    -0.0000690
  C       -0.7046260     1.2155960    -0.0000150
  C       -1.5854522     0.0074277    -0.0000835
  H        1.2313420    -2.1539510     0.0000130
  H        1.2396650     2.1436990     0.0001380
  H       -1.2874740    -2.1381980    -0.0001180
  H       -1.2612150     2.1476890    -0.0000120
  H        3.1178830     0.8039200     0.0000280
units angstrom
no_reorient  #important for SAPT in psi4, default
symmetry c1  #important for SAPT in psi4, default
}

set PROPERTIES_ORIGIN ["COM"]
properties('MP2/aug-cc-pvtz', properties = ['dipole'])
--------------------------------------------------------------------------

    Molecular point group: c1
  Charge       = 0
  Multiplicity = 1
  Basis Set: AUG-CC-PVTZ
    Blend: AUG-CC-PVTZ
  Basis Set: (AUG-CC-PVTZ AUX)
    Blend: AUG-CC-PVTZ-JKFIT

    Orbital Energies [Eh]
    ---------------------

    Doubly Occupied:

       1A    -26.369134     2A    -20.591135     3A    -11.350395
       4A    -11.301244     5A    -11.252544     6A    -11.251377
       7A    -11.246890     8A    -11.240778     9A     -1.769176
      10A     -1.399977    11A     -1.132981    12A     -1.021222
      13A     -1.003394    14A     -0.894065    15A     -0.869895
      16A     -0.786950    17A     -0.785522    18A     -0.767980
      19A     -0.721474    20A     -0.645790    21A     -0.621894
      22A     -0.590089    23A     -0.588268    24A     -0.580121
      25A     -0.548866    26A     -0.468035    27A     -0.464243
      28A     -0.348948    29A     -0.293054

  @DF-RHF Final Energy:  -404.49949482241527

   => Energetics <=

    Nuclear Repulsion Energy =            341.7327625152221913
    One-Electron Energy =               -1230.6536310958131253
    Two-Electron Energy =                 484.4213737581756050
    Total Energy =                       -404.4994948224152722
  Basis Set: (AUG-CC-PVTZ AUX)
    Blend: AUG-CC-PVTZ-RI
    Molecular point group: c1

    Geometry (in Angstrom), charge = 0, multiplicity = 1:

       Center              X                  Y                   Z               Mass
    ------------   -----------------  -----------------  -----------------  -----------------
         F           -2.672031266856     0.021403944167    -0.000158722223    18.998403162730
         O            2.826086733144    -0.091517055833     0.000172277777    15.994914619570
         C            1.453583733144    -0.006873055833     0.000073277777    12.000000000000
         C            0.748106733144    -1.214338055833     0.000019277777    12.000000000000
         C            0.764953733144     1.209343944167     0.000081277777    12.000000000000
         C           -0.644950266856    -1.207082055833    -0.000065722223    12.000000000000
         C           -0.631692266856     1.222442944167    -0.000011722223    12.000000000000
         C           -1.512518466856     0.014274644167    -0.000080222223    12.000000000000
         H            1.304275733144    -2.147104055833     0.000016277777     1.007825032230
         H            1.312598733144     2.150545944167     0.000141277777     1.007825032230
         H           -1.214540266856    -2.131351055833    -0.000114722223     1.007825032230
         H           -1.188281266856     2.154535944167    -0.000008722223     1.007825032230
         H            3.190816733144     0.810766944167     0.000031277777     1.007825032230

  Basis Set: AUG-CC-PVTZ
    Blend: AUG-CC-PVTZ
  Basis Set: (AUG-CC-PVTZ AUX)
    Blend: AUG-CC-PVTZ-JKFIT
	 Reference Energy          =    -404.4994948224152722 [Eh]
	 Singles Energy            =      -0.0000000000000000 [Eh]
	 Same-Spin Energy          =      -0.3993036226688702 [Eh]
	 Opposite-Spin Energy      =      -1.1961167817938754 [Eh]
	 Correlation Energy        =      -1.5954204044627456 [Eh]
	 Total Energy              =    -406.0949152268780153 [Eh]

	 ================> DF-SCS-MP2 Energies <==================
	-----------------------------------------------------------
	 SCS Same-Spin Scale       =       0.3333333333333333 [-]
	 SCS Opposite-Spin Scale   =       1.2000000000000000 [-]
	 SCS Same-Spin Energy      =      -0.1331012075562901 [Eh]
	 SCS Opposite-Spin Energy  =      -1.4353401381526505 [Eh]
	 SCS Correlation Energy    =      -1.5684413457089406 [Eh]
	 SCS Total Energy          =    -406.0679361681242199 [Eh]
	-----------------------------------------------------------

  Dipole Moment: [D]
     X:    -0.0098      Y:     1.2752      Z:    -0.0002     Total:     1.2752

*** Psi4 exiting successfully. Buy a developer a beer!
