                               Psi4 1.3.2 release

  ==> Input File <==

--------------------------------------------------------------------------
#psi4
#
memory 32 gb

molecule  {
0 1
  F       -2.7446121     0.0382824    -0.0001611
  O        2.7531530    -0.0983640     0.0001690
  C        1.3806500    -0.0137200     0.0000700
  C        0.6751730    -1.2211850     0.0000160
  C        0.6920200     1.2024970     0.0000780
  C       -0.7178840    -1.2139290    -0.0000690
  C       -0.7046260     1.2155960    -0.0000150
  C       -1.3854560     0.0061980    -0.0000700
  H        1.2313420    -2.1539510     0.0000130
  H        1.2396650     2.1436990     0.0001380
  H       -1.2874740    -2.1381980    -0.0001180
  H       -1.2612150     2.1476890    -0.0000120
  H        3.1178830     0.8039200     0.0000280
units angstrom
no_reorient  #important for SAPT in psi4, default
symmetry c1  #important for SAPT in psi4, default
}

set PROPERTIES_ORIGIN ["COM"]
properties('MP2/aug-cc-pvtz', properties = ['dipole'])
--------------------------------------------------------------------------

    Molecular point group: c1
  Charge       = 0
  Multiplicity = 1
  Basis Set: AUG-CC-PVTZ
    Blend: AUG-CC-PVTZ
  Basis Set: (AUG-CC-PVTZ AUX)
    Blend: AUG-CC-PVTZ-JKFIT

    Orbital Energies [Eh]
    ---------------------

    Doubly Occupied:

       1A    -26.304469     2A    -20.599429     3A    -11.324334
       4A    -11.312815     5A    -11.255510     6A    -11.254874
       7A    -11.253466     8A    -11.247767     9A     -1.617107
      10A     -1.408342    11A     -1.162379    12A     -1.038689
      13A     -1.013635    14A     -0.871873    15A     -0.839892
      16A     -0.746704    17A     -0.740928    18A     -0.704069
      19A     -0.687608    20A     -0.643489    21A     -0.625981
      22A     -0.609439    23A     -0.597048    24A     -0.583833
      25A     -0.559559    26A     -0.510286    27A     -0.491858
      28A     -0.359145    29A     -0.321932

  @DF-RHF Final Energy:  -404.55832653271580

   => Energetics <=

    Nuclear Repulsion Energy =            342.0403467015071328
    One-Electron Energy =               -1231.8244254058686238
    Two-Electron Energy =                 485.2257521716456949
    Total Energy =                       -404.5583265327157960
  Basis Set: (AUG-CC-PVTZ AUX)
    Blend: AUG-CC-PVTZ-RI
    Molecular point group: c1

    Geometry (in Angstrom), charge = 0, multiplicity = 1:

       Center              X                  Y                   Z               Mass
    ------------   -----------------  -----------------  -----------------  -----------------
         F           -2.693160170459     0.041237718644    -0.000159420855    18.998403162730
         O            2.804604929541    -0.095408681356     0.000170679145    15.994914619570
         C            1.432101929541    -0.010764681356     0.000071679145    12.000000000000
         C            0.726624929541    -1.218229681356     0.000017679145    12.000000000000
         C            0.743471929541     1.205452318644     0.000079679145    12.000000000000
         C           -0.666432070459    -1.210973681356    -0.000067320855    12.000000000000
         C           -0.653174070459     1.218551318644    -0.000013320855    12.000000000000
         C           -1.334004070459     0.009153318644    -0.000068320855    12.000000000000
         H            1.282793929541    -2.150995681356     0.000014679145     1.007825032230
         H            1.291116929541     2.146654318644     0.000139679145     1.007825032230
         H           -1.236022070459    -2.135242681356    -0.000116320855     1.007825032230
         H           -1.209763070459     2.150644318644    -0.000010320855     1.007825032230
         H            3.169334929541     0.806875318644     0.000029679145     1.007825032230

  Basis Set: AUG-CC-PVTZ
    Blend: AUG-CC-PVTZ
  Basis Set: (AUG-CC-PVTZ AUX)
    Blend: AUG-CC-PVTZ-JKFIT
	 Reference Energy          =    -404.5583265327157960 [Eh]
	 Singles Energy            =      -0.0000000000000000 [Eh]
	 Same-Spin Energy          =      -0.3984725610252171 [Eh]
	 Opposite-Spin Energy      =      -1.1962484103381850 [Eh]
	 Correlation Energy        =      -1.5947209713634021 [Eh]
	 Total Energy              =    -406.1530475040792112 [Eh]

	 ================> DF-SCS-MP2 Energies <==================
	-----------------------------------------------------------
	 SCS Same-Spin Scale       =       0.3333333333333333 [-]
	 SCS Opposite-Spin Scale   =       1.2000000000000000 [-]
	 SCS Same-Spin Energy      =      -0.1328241870084057 [Eh]
	 SCS Opposite-Spin Energy  =      -1.4354980924058218 [Eh]
	 SCS Correlation Energy    =      -1.5683222794142275 [Eh]
	 SCS Total Energy          =    -406.1266488121300426 [Eh]
	-----------------------------------------------------------

  Dipole Moment: [D]
     X:     1.4958      Y:     1.2518      Z:    -0.0001     Total:     1.9505

*** Psi4 exiting successfully. Buy a developer a beer!
