                               Psi4 1.3.2 release

  ==> Input File <==

--------------------------------------------------------------------------
#psi4
#
memory 32 gb

molecule  {
0 1
  F       -2.7449650     0.0145570    -0.0001620
  O        2.7531530    -0.0983640     0.0001690
  C        1.3806500    -0.0137200     0.0000700
  C        0.6751730    -1.2211850     0.0000160
  C        0.6920200     1.2024970     0.0000780
  C       -0.7178840    -1.2139290    -0.0000690
  C       -0.7046260     1.2155960    -0.0000150
  C       -1.4854541     0.0068128    -0.0000768
  H        1.2313420    -2.1539510     0.0000130
  H        1.2396650     2.1436990     0.0001380
  H       -1.2874740    -2.1381980    -0.0001180
  H       -1.2612150     2.1476890    -0.0000120
  H        3.1178830     0.8039200     0.0000280
units angstrom
no_reorient  #important for SAPT in psi4, default
symmetry c1  #important for SAPT in psi4, default
}

set PROPERTIES_ORIGIN ["COM"]
properties('MP2/aug-cc-pvtz', properties = ['dipole'])
--------------------------------------------------------------------------

    Molecular point group: c1
  Charge       = 0
  Multiplicity = 1
  Basis Set: AUG-CC-PVTZ
    Blend: AUG-CC-PVTZ
  Basis Set: (AUG-CC-PVTZ AUX)
    Blend: AUG-CC-PVTZ-JKFIT

    Orbital Energies [Eh]
    ---------------------

    Doubly Occupied:

       1A    -26.334351     2A    -20.595937     3A    -11.334545
       4A    -11.308023     5A    -11.254814     6A    -11.253384
       7A    -11.250265     8A    -11.244124     9A     -1.683911
      10A     -1.404774    11A     -1.146918    12A     -1.029364
      13A     -1.006946    14A     -0.868504    15A     -0.856221
      16A     -0.768104    17A     -0.749310    18A     -0.731527
      19A     -0.719259    20A     -0.646995    21A     -0.625558
      22A     -0.597160    23A     -0.593112    24A     -0.584637
      25A     -0.555946    26A     -0.490380    27A     -0.479570
      28A     -0.354001    29A     -0.308766

  @DF-RHF Final Energy:  -404.54625155625877

   => Energetics <=

    Nuclear Repulsion Energy =            341.7245471085410600
    One-Electron Energy =               -1230.9887862199673236
    Two-Electron Energy =                 484.7179875551674968
    Total Energy =                       -404.5462515562587669
  Basis Set: (AUG-CC-PVTZ AUX)
    Blend: AUG-CC-PVTZ-RI
    Molecular point group: c1

    Geometry (in Angstrom), charge = 0, multiplicity = 1:

       Center              X                  Y                   Z               Mass
    ------------   -----------------  -----------------  -----------------  -----------------
         F           -2.682742246358     0.021469807231    -0.000159439873    18.998403162730
         O            2.815375753642    -0.091451192769     0.000171560127    15.994914619570
         C            1.442872753642    -0.006807192769     0.000072560127    12.000000000000
         C            0.737395753642    -1.214272192769     0.000018560127    12.000000000000
         C            0.754242753642     1.209409807231     0.000080560127    12.000000000000
         C           -0.655661246358    -1.207016192769    -0.000066439873    12.000000000000
         C           -0.642403246358     1.222508807231    -0.000012439873    12.000000000000
         C           -1.423231346358     0.013725607231    -0.000074239873    12.000000000000
         H            1.293564753642    -2.147038192769     0.000015560127     1.007825032230
         H            1.301887753642     2.150611807231     0.000140560127     1.007825032230
         H           -1.225251246358    -2.131285192769    -0.000115439873     1.007825032230
         H           -1.198992246358     2.154601807231    -0.000009439873     1.007825032230
         H            3.180105753642     0.810832807231     0.000030560127     1.007825032230

  Basis Set: AUG-CC-PVTZ
    Blend: AUG-CC-PVTZ
  Basis Set: (AUG-CC-PVTZ AUX)
    Blend: AUG-CC-PVTZ-JKFIT
	 Reference Energy          =    -404.5462515562587669 [Eh]
	 Singles Energy            =      -0.0000000000000000 [Eh]
	 Same-Spin Energy          =      -0.3985539314146562 [Eh]
	 Opposite-Spin Energy      =      -1.1955250729228593 [Eh]
	 Correlation Energy        =      -1.5940790043375155 [Eh]
	 Total Energy              =    -406.1403305605962828 [Eh]

	 ================> DF-SCS-MP2 Energies <==================
	-----------------------------------------------------------
	 SCS Same-Spin Scale       =       0.3333333333333333 [-]
	 SCS Opposite-Spin Scale   =       1.2000000000000000 [-]
	 SCS Same-Spin Energy      =      -0.1328513104715521 [Eh]
	 SCS Opposite-Spin Energy  =      -1.4346300875074312 [Eh]
	 SCS Correlation Energy    =      -1.5674813979789832 [Eh]
	 SCS Total Energy          =    -406.1137329542377756 [Eh]
	-----------------------------------------------------------

  Dipole Moment: [D]
     X:     0.8054      Y:     1.2744      Z:    -0.0002     Total:     1.5075

*** Psi4 exiting successfully. Buy a developer a beer!
