                               Psi4 1.3.2 release

  ==> Input File <==

--------------------------------------------------------------------------
#psi4
#
memory 32 gb

molecule  {
0 1
  F       -2.7449650     0.0145570    -0.0001620
  O        2.7493629    -0.1462121     0.0001686
  C        1.3806500    -0.0137200     0.0000700
  C        0.6751730    -1.2211850     0.0000160
  C        0.6920200     1.2024970     0.0000780
  C       -0.7178840    -1.2139290    -0.0000690
  C       -0.7046260     1.2155960    -0.0000150
  C       -1.3854560     0.0061980    -0.0000700
  H        1.2313420    -2.1539510     0.0000130
  H        1.2396650     2.1436990     0.0001380
  H       -1.2874740    -2.1381980    -0.0001180
  H       -1.2612150     2.1476890    -0.0000120
  H        3.1178830     0.8039200     0.0000280
units angstrom
no_reorient  #important for SAPT in psi4, default
symmetry c1  #important for SAPT in psi4, default
}

set PROPERTIES_ORIGIN ["COM"]
properties('MP2/aug-cc-pvtz', properties = ['dipole'])
--------------------------------------------------------------------------

    Molecular point group: c1
  Charge       = 0
  Multiplicity = 1
  Basis Set: AUG-CC-PVTZ
    Blend: AUG-CC-PVTZ
  Basis Set: (AUG-CC-PVTZ AUX)
    Blend: AUG-CC-PVTZ-JKFIT

    Orbital Energies [Eh]
    ---------------------

    Doubly Occupied:

       1A    -26.304320     2A    -20.604763     3A    -11.324124
       4A    -11.312063     5A    -11.256201     6A    -11.254339
       7A    -11.253820     8A    -11.246364     9A     -1.616942
      10A     -1.401721    11A     -1.161603    12A     -1.038544
      13A     -1.011688    14A     -0.871374    15A     -0.836963
      16A     -0.743819    17A     -0.736157    18A     -0.700844
      19A     -0.687450    20A     -0.643651    21A     -0.625687
      22A     -0.609149    23A     -0.596813    24A     -0.578807
      25A     -0.562404    26A     -0.510188    27A     -0.491547
      28A     -0.359015    29A     -0.321550

  @DF-RHF Final Energy:  -404.55273774158638

   => Energetics <=

    Nuclear Repulsion Energy =            341.8858065931970032
    One-Electron Energy =               -1231.5532703259050322
    Two-Electron Energy =                 485.1147259911216452
    Total Energy =                       -404.5527377415863839
  Basis Set: (AUG-CC-PVTZ AUX)
    Blend: AUG-CC-PVTZ-RI
    Molecular point group: c1

    Geometry (in Angstrom), charge = 0, multiplicity = 1:

       Center              X                  Y                   Z               Mass
    ------------   -----------------  -----------------  -----------------  -----------------
         F           -2.692912111838     0.028366951076    -0.000160111125    18.998403162730
         O            2.801415788162    -0.132402148924     0.000170488875    15.994914619570
         C            1.432702888162     0.000089951076     0.000071888875    12.000000000000
         C            0.727225888162    -1.207375048924     0.000017888875    12.000000000000
         C            0.744072888162     1.216306951076     0.000079888875    12.000000000000
         C           -0.665831111838    -1.200119048924    -0.000067111125    12.000000000000
         C           -0.652573111838     1.229405951076    -0.000013111125    12.000000000000
         C           -1.333403111838     0.020007951076    -0.000068111125    12.000000000000
         H            1.283394888162    -2.140141048924     0.000014888875     1.007825032230
         H            1.291717888162     2.157508951076     0.000139888875     1.007825032230
         H           -1.235421111838    -2.124388048924    -0.000116111125     1.007825032230
         H           -1.209162111838     2.161498951076    -0.000010111125     1.007825032230
         H            3.169935888162     0.817729951076     0.000029888875     1.007825032230

  Basis Set: AUG-CC-PVTZ
    Blend: AUG-CC-PVTZ
  Basis Set: (AUG-CC-PVTZ AUX)
    Blend: AUG-CC-PVTZ-JKFIT
	 Reference Energy          =    -404.5527377415863839 [Eh]
	 Singles Energy            =      -0.0000000000000000 [Eh]
	 Same-Spin Energy          =      -0.3992166421313366 [Eh]
	 Opposite-Spin Energy      =      -1.1981040074791054 [Eh]
	 Correlation Energy        =      -1.5973206496104420 [Eh]
	 Total Energy              =    -406.1500583911968079 [Eh]

	 ================> DF-SCS-MP2 Energies <==================
	-----------------------------------------------------------
	 SCS Same-Spin Scale       =       0.3333333333333333 [-]
	 SCS Opposite-Spin Scale   =       1.2000000000000000 [-]
	 SCS Same-Spin Energy      =      -0.1330722140437788 [Eh]
	 SCS Opposite-Spin Energy  =      -1.4377248089749264 [Eh]
	 SCS Correlation Energy    =      -1.5707970230187052 [Eh]
	 SCS Total Energy          =    -406.1235347646050968 [Eh]
	-----------------------------------------------------------

  Dipole Moment: [D]
     X:     1.5262      Y:     1.3097      Z:    -0.0001     Total:     2.0111

*** Psi4 exiting successfully. Buy a developer a beer!
