                               Psi4 1.4a3.dev225

  ==> Input File <==

--------------------------------------------------------------------------
#psi4
#
memory 32 gb

molecule  {
0 1
  F       -2.7448780     0.0146810    -0.0001360
  O        2.7530530    -0.0983740     0.0001420
  C        1.4304569    -0.0171238     0.0000688
  C        0.6748340    -1.2214480     0.0000070
  C        0.6924230     1.2023800     0.0000660
  C       -0.7180740    -1.2138510    -0.0000640
  C       -0.7043650     1.2157020    -0.0000090
  C       -1.3854240     0.0065120    -0.0000670
  H        1.2310880    -2.1541510     0.0000080
  H        1.2399310     2.1436010     0.0001160
  H       -1.2882010    -2.1378200    -0.0001110
  H       -1.2607430     2.1479340    -0.0000130
  H        3.1177310     0.8038740     0.0001020
units angstrom
no_reorient  #important for SAPT in psi4, default
symmetry c1  #important for SAPT in psi4, default
}

set PROPERTIES_ORIGIN ["COM"]
properties('MP2/aug-cc-pvtz', properties = ['dipole'])
--------------------------------------------------------------------------

    Molecular point group: c1
  Charge       = 0
  Multiplicity = 1
  Basis Set: AUG-CC-PVTZ
    Blend: AUG-CC-PVTZ
  Basis Set: (AUG-CC-PVTZ AUX)
    Blend: AUG-CC-PVTZ-JKFIT

    Orbital Energies [Eh]
    ---------------------

    Doubly Occupied:

       1A    -26.302178     2A    -20.609100     3A    -11.321162
       4A    -11.317970     5A    -11.254646     6A    -11.253188
       7A    -11.252781     8A    -11.246631     9A     -1.614893
      10A     -1.436071    11A     -1.155499    12A     -1.034112
      13A     -1.008782    14A     -0.870505    15A     -0.841818
      16A     -0.756353    17A     -0.738930    18A     -0.707017
      19A     -0.685463    20A     -0.647516    21A     -0.624427
      22A     -0.612058    23A     -0.603410    24A     -0.584665
      25A     -0.565558    26A     -0.500285    27A     -0.489313
      28A     -0.356754    29A     -0.314152

  @DF-RHF Final Energy:  -404.55523452841720

   => Energetics <=

    Nuclear Repulsion Energy =            341.7789921097474348
    One-Electron Energy =               -1231.2579752930666928
    Two-Electron Energy =                 484.9237486549021128
    Total Energy =                       -404.5552345284172020
  Basis Set: (AUG-CC-PVTZ AUX)
    Blend: AUG-CC-PVTZ-RI
    Molecular point group: c1

    Geometry (in Angstrom), charge = 0, multiplicity = 1:

       Center              X                  Y                   Z               Mass
    ------------   -----------------  -----------------  -----------------  -----------------
         F           -2.698715944772     0.021989497648    -0.000134320961    18.998403162730
         O            2.799215055228    -0.091065502352     0.000143679039    15.994914619570
         C            1.476618955228    -0.009815302352     0.000070479039    12.000000000000
         C            0.720996055228    -1.214139502352     0.000008679039    12.000000000000
         C            0.738585055228     1.209688497648     0.000067679039    12.000000000000
         C           -0.671911944772    -1.206542502352    -0.000062320961    12.000000000000
         C           -0.658202944772     1.223010497648    -0.000007320961    12.000000000000
         C           -1.339261944772     0.013820497648    -0.000065320961    12.000000000000
         H            1.277250055228    -2.146842502352     0.000009679039     1.007825032230
         H            1.286093055228     2.150909497648     0.000117679039     1.007825032230
         H           -1.242038944772    -2.130511502352    -0.000109320961     1.007825032230
         H           -1.214580944772     2.155242497648    -0.000011320961     1.007825032230
         H            3.163893055228     0.811182497648     0.000103679039     1.007825032230

  Basis Set: AUG-CC-PVTZ
    Blend: AUG-CC-PVTZ
  Basis Set: (AUG-CC-PVTZ AUX)
    Blend: AUG-CC-PVTZ-JKFIT
	 Reference Energy          =    -404.5552345284172020 [Eh]
	 Singles Energy            =      -0.0000000000000000 [Eh]
	 Same-Spin Energy          =      -0.3986018711324643 [Eh]
	 Opposite-Spin Energy      =      -1.1960541694097007 [Eh]
	 Correlation Energy        =      -1.5946560405421650 [Eh]
	 Total Energy              =    -406.1498905689593926 [Eh]

	 ================> DF-SCS-MP2 Energies <==================
	-----------------------------------------------------------
	 SCS Same-Spin Scale       =       0.3333333333333333 [-]
	 SCS Opposite-Spin Scale   =       1.2000000000000000 [-]
	 SCS Same-Spin Energy      =      -0.1328672903774881 [Eh]
	 SCS Opposite-Spin Energy  =      -1.4352650032916408 [Eh]
	 SCS Correlation Energy    =      -1.5681322936691289 [Eh]
	 SCS Total Energy          =    -406.1233668220863251 [Eh]
	-----------------------------------------------------------

  Dipole Moment: [D]
     X:     1.8526      Y:     1.2762      Z:     0.0000     Total:     2.2496

*** Psi4 exiting successfully. Buy a developer a beer!
