                               Psi4 1.3.2 release

  ==> Input File <==

--------------------------------------------------------------------------
#psi4
#
memory 32 gb

molecule  {
0 1
  F       -2.7449650     0.0145570    -0.0001620
  O        2.7531530    -0.0983640     0.0001690
  C        1.3898978     0.0818148     0.0000533
  C        0.6751730    -1.2211850     0.0000160
  C        0.6920200     1.2024970     0.0000780
  C       -0.7178840    -1.2139290    -0.0000690
  C       -0.7046260     1.2155960    -0.0000150
  C       -1.3854560     0.0061980    -0.0000700
  H        1.2313420    -2.1539510     0.0000130
  H        1.2396650     2.1436990     0.0001380
  H       -1.2874740    -2.1381980    -0.0001180
  H       -1.2612150     2.1476890    -0.0000120
  H        3.1178830     0.8039200     0.0000280
units angstrom
no_reorient  #important for SAPT in psi4, default
symmetry c1  #important for SAPT in psi4, default
}

set PROPERTIES_ORIGIN ["COM"]
properties('MP2/aug-cc-pvtz', properties = ['dipole'])
--------------------------------------------------------------------------

    Molecular point group: c1
  Charge       = 0
  Multiplicity = 1
  Basis Set: AUG-CC-PVTZ
    Blend: AUG-CC-PVTZ
  Basis Set: (AUG-CC-PVTZ AUX)
    Blend: AUG-CC-PVTZ-JKFIT

    Orbital Energies [Eh]
    ---------------------

    Doubly Occupied:

       1A    -26.304881     2A    -20.603383     3A    -11.325226
       4A    -11.311704     5A    -11.257549     6A    -11.253801
       7A    -11.253625     8A    -11.243379     9A     -1.617413
      10A     -1.412457    11A     -1.162711    12A     -1.043089
      13A     -1.010027    14A     -0.870987    15A     -0.840225
      16A     -0.745533    17A     -0.742202    18A     -0.700721
      19A     -0.687724    20A     -0.644570    21A     -0.628618
      22A     -0.606899    23A     -0.599701    24A     -0.572416
      25A     -0.571299    26A     -0.505058    27A     -0.492261
      28A     -0.363361    29A     -0.319993

  @DF-RHF Final Energy:  -404.54611303641684

   => Energetics <=

    Nuclear Repulsion Energy =            341.9814608136786092
    One-Electron Energy =               -1231.6735221475146318
    Two-Electron Energy =                 485.1459482974191815
    Total Energy =                       -404.5461130364168412
  Basis Set: (AUG-CC-PVTZ AUX)
    Blend: AUG-CC-PVTZ-RI
    Molecular point group: c1

    Geometry (in Angstrom), charge = 0, multiplicity = 1:

       Center              X                  Y                   Z               Mass
    ------------   -----------------  -----------------  -----------------  -----------------
         F           -2.694443774644     0.011302752314    -0.000158379466    18.998403162730
         O            2.803674225356    -0.101618247686     0.000172620534    15.994914619570
         C            1.440419025356     0.078560552314     0.000056920534    12.000000000000
         C            0.725694225356    -1.224439247686     0.000019620534    12.000000000000
         C            0.742541225356     1.199242752314     0.000081620534    12.000000000000
         C           -0.667362774644    -1.217183247686    -0.000065379466    12.000000000000
         C           -0.654104774644     1.212341752314    -0.000011379466    12.000000000000
         C           -1.334934774644     0.002943752314    -0.000066379466    12.000000000000
         H            1.281863225356    -2.157205247686     0.000016620534     1.007825032230
         H            1.290186225356     2.140444752314     0.000141620534     1.007825032230
         H           -1.236952774644    -2.141452247686    -0.000114379466     1.007825032230
         H           -1.210693774644     2.144434752314    -0.000008379466     1.007825032230
         H            3.168404225356     0.800665752314     0.000031620534     1.007825032230

  Basis Set: AUG-CC-PVTZ
    Blend: AUG-CC-PVTZ
  Basis Set: (AUG-CC-PVTZ AUX)
    Blend: AUG-CC-PVTZ-JKFIT
	 Reference Energy          =    -404.5461130364168412 [Eh]
	 Singles Energy            =      -0.0000000000000000 [Eh]
	 Same-Spin Energy          =      -0.3981973123514597 [Eh]
	 Opposite-Spin Energy      =      -1.1971586371325871 [Eh]
	 Correlation Energy        =      -1.5953559494840468 [Eh]
	 Total Energy              =    -406.1414689859008718 [Eh]

	 ================> DF-SCS-MP2 Energies <==================
	-----------------------------------------------------------
	 SCS Same-Spin Scale       =       0.3333333333333333 [-]
	 SCS Opposite-Spin Scale   =       1.2000000000000000 [-]
	 SCS Same-Spin Energy      =      -0.1327324374504866 [Eh]
	 SCS Opposite-Spin Energy  =      -1.4365903645591045 [Eh]
	 SCS Correlation Energy    =      -1.5693228020095911 [Eh]
	 SCS Total Energy          =    -406.1154358384264356 [Eh]
	-----------------------------------------------------------

  Dipole Moment: [D]
     X:     1.5423      Y:     1.2455      Z:    -0.0001     Total:     1.9824

*** Psi4 exiting successfully. Buy a developer a beer!
