                               Psi4 1.3.2 release

  ==> Input File <==

--------------------------------------------------------------------------
#psi4
#
memory 32 gb

molecule  {
0 1
  F       -2.7449650     0.0145570    -0.0001620
  O        2.7531530    -0.0983640     0.0001690
  C        1.3806500    -0.0137200     0.0000700
  C        0.6751730    -1.2211850     0.0000160
  C        0.6920200     1.2024970     0.0000780
  C       -0.7178840    -1.2139290    -0.0000690
  C       -0.7046260     1.2155960    -0.0000150
  C       -1.3854560     0.0061980    -0.0000700
  H        1.2313420    -2.1539510     0.0000130
  H        1.2396650     2.1436990     0.0001380
  H       -1.2874740    -2.1381980    -0.0001180
  H       -1.2612150     2.1476890    -0.0000120
  H        3.0804061     0.7112082     0.0000425
units angstrom
no_reorient  #important for SAPT in psi4, default
symmetry c1  #important for SAPT in psi4, default
}

set PROPERTIES_ORIGIN ["COM"]
properties('MP2/aug-cc-pvtz', properties = ['dipole'])
--------------------------------------------------------------------------

    Molecular point group: c1
  Charge       = 0
  Multiplicity = 1
  Basis Set: AUG-CC-PVTZ
    Blend: AUG-CC-PVTZ
  Basis Set: (AUG-CC-PVTZ AUX)
    Blend: AUG-CC-PVTZ-JKFIT

    Orbital Energies [Eh]
    ---------------------

    Doubly Occupied:

       1A    -26.305105     2A    -20.590288     3A    -11.325200
       4A    -11.313755     5A    -11.256602     6A    -11.254819
       7A    -11.254586     8A    -11.248308     9A     -1.617708
      10A     -1.433398    11A     -1.164531    12A     -1.039465
      13A     -1.018540    14A     -0.875427    15A     -0.845961
      16A     -0.760573    17A     -0.742530    18A     -0.706086
      19A     -0.688172    20A     -0.648591    21A     -0.627052
      22A     -0.610037    23A     -0.600449    24A     -0.585699
      25A     -0.564026    26A     -0.511456    27A     -0.493359
      28A     -0.359656    29A     -0.323329

  @DF-RHF Final Energy:  -404.55356563333339

   => Energetics <=

    Nuclear Repulsion Energy =            342.6760628095719881
    One-Electron Energy =               -1232.9298376708247815
    Two-Electron Energy =                 485.7002092279194585
    Total Energy =                       -404.5535656333333918
  Basis Set: (AUG-CC-PVTZ AUX)
    Blend: AUG-CC-PVTZ-RI
    Molecular point group: c1

    Geometry (in Angstrom), charge = 0, multiplicity = 1:

       Center              X                  Y                   Z               Mass
    ------------   -----------------  -----------------  -----------------  -----------------
         F           -2.693116089966     0.022369679359    -0.000160298673    18.998403162730
         O            2.805001910034    -0.090551320641     0.000170701327    15.994914619570
         C            1.432498910034    -0.005907320641     0.000071701327    12.000000000000
         C            0.727021910034    -1.213372320641     0.000017701327    12.000000000000
         C            0.743868910034     1.210309679359     0.000079701327    12.000000000000
         C           -0.666035089966    -1.206116320641    -0.000067298673    12.000000000000
         C           -0.652777089966     1.223408679359    -0.000013298673    12.000000000000
         C           -1.333607089966     0.014010679359    -0.000068298673    12.000000000000
         H            1.283190910034    -2.146138320641     0.000014701327     1.007825032230
         H            1.291513910034     2.151511679359     0.000139701327     1.007825032230
         H           -1.235625089966    -2.130385320641    -0.000116298673     1.007825032230
         H           -1.209366089966     2.155501679359    -0.000010298673     1.007825032230
         H            3.132255010034     0.719020879359     0.000044201327     1.007825032230

  Basis Set: AUG-CC-PVTZ
    Blend: AUG-CC-PVTZ
  Basis Set: (AUG-CC-PVTZ AUX)
    Blend: AUG-CC-PVTZ-JKFIT
	 Reference Energy          =    -404.5535656333333918 [Eh]
	 Singles Energy            =      -0.0000000000000000 [Eh]
	 Same-Spin Energy          =      -0.3972161020315126 [Eh]
	 Opposite-Spin Energy      =      -1.1932415246315862 [Eh]
	 Correlation Energy        =      -1.5904576266630988 [Eh]
	 Total Energy              =    -406.1440232599965157 [Eh]

	 ================> DF-SCS-MP2 Energies <==================
	-----------------------------------------------------------
	 SCS Same-Spin Scale       =       0.3333333333333333 [-]
	 SCS Opposite-Spin Scale   =       1.2000000000000000 [-]
	 SCS Same-Spin Energy      =      -0.1324053673438375 [Eh]
	 SCS Opposite-Spin Energy  =      -1.4318898295579034 [Eh]
	 SCS Correlation Energy    =      -1.5642951969017409 [Eh]
	 SCS Total Energy          =    -406.1178608302351449 [Eh]
	-----------------------------------------------------------

  Dipole Moment: [D]
     X:     1.4078      Y:     1.1956      Z:    -0.0001     Total:     1.8470

*** Psi4 exiting successfully. Buy a developer a beer!
