                               Psi4 1.3.2 release

  ==> Input File <==

--------------------------------------------------------------------------
#psi4
#
memory 32 gb

molecule  {
0 1
  F       -2.7449650     0.0145570    -0.0001620
  O        2.7552709    -0.0504128     0.0001693
  C        1.3806500    -0.0137200     0.0000700
  C        0.6751730    -1.2211850     0.0000160
  C        0.6920200     1.2024970     0.0000780
  C       -0.7178840    -1.2139290    -0.0000690
  C       -0.7046260     1.2155960    -0.0000150
  C       -1.3854560     0.0061980    -0.0000700
  H        1.2313420    -2.1539510     0.0000130
  H        1.2396650     2.1436990     0.0001380
  H       -1.2874740    -2.1381980    -0.0001180
  H       -1.2612150     2.1476890    -0.0000120
  H        3.1178830     0.8039200     0.0000280
units angstrom
no_reorient  #important for SAPT in psi4, default
symmetry c1  #important for SAPT in psi4, default
}

set PROPERTIES_ORIGIN ["COM"]
properties('MP2/aug-cc-pvtz', properties = ['dipole'])
--------------------------------------------------------------------------

    Molecular point group: c1
  Charge       = 0
  Multiplicity = 1
  Basis Set: AUG-CC-PVTZ
    Blend: AUG-CC-PVTZ
  Basis Set: (AUG-CC-PVTZ AUX)
    Blend: AUG-CC-PVTZ-JKFIT

    Orbital Energies [Eh]
    ---------------------

    Doubly Occupied:

       1A    -26.304683     2A    -20.593653     3A    -11.324621
       4A    -11.313849     5A    -11.255778     6A    -11.254926
       7A    -11.252976     8A    -11.248959     9A     -1.617299
      10A     -1.416041    11A     -1.163278    12A     -1.038871
      13A     -1.015961    14A     -0.872370    15A     -0.844000
      16A     -0.754022    17A     -0.742064    18A     -0.706310
      19A     -0.687788    20A     -0.644017    21A     -0.626482
      22A     -0.609634    23A     -0.597436    24A     -0.586452
      25A     -0.557683    26A     -0.510038    27A     -0.492230
      28A     -0.359260    29A     -0.322425

  @DF-RHF Final Energy:  -404.55933425270183

   => Energetics <=

    Nuclear Repulsion Energy =            342.2255589553566324
    One-Electron Energy =               -1232.1435745906283046
    Two-Electron Energy =                 485.3586813825698414
    Total Energy =                       -404.5593342527018308
  Basis Set: (AUG-CC-PVTZ AUX)
    Blend: AUG-CC-PVTZ-RI
    Molecular point group: c1

    Geometry (in Angstrom), charge = 0, multiplicity = 1:

       Center              X                  Y                   Z               Mass
    ------------   -----------------  -----------------  -----------------  -----------------
         F           -2.693755599252     0.014689648467    -0.000160211064    18.998403162730
         O            2.806480300748    -0.050280151533     0.000171088936    15.994914619570
         C            1.431859400748    -0.013587351533     0.000071788936    12.000000000000
         C            0.726382400748    -1.221052351533     0.000017788936    12.000000000000
         C            0.743229400748     1.202629648467     0.000079788936    12.000000000000
         C           -0.666674599252    -1.213796351533    -0.000067211064    12.000000000000
         C           -0.653416599252     1.215728648467    -0.000013211064    12.000000000000
         C           -1.334246599252     0.006330648467    -0.000068211064    12.000000000000
         H            1.282551400748    -2.153818351533     0.000014788936     1.007825032230
         H            1.290874400748     2.143831648467     0.000139788936     1.007825032230
         H           -1.236264599252    -2.138065351533    -0.000116211064     1.007825032230
         H           -1.210005599252     2.147821648467    -0.000010211064     1.007825032230
         H            3.169092400748     0.804052648467     0.000029788936     1.007825032230

  Basis Set: AUG-CC-PVTZ
    Blend: AUG-CC-PVTZ
  Basis Set: (AUG-CC-PVTZ AUX)
    Blend: AUG-CC-PVTZ-JKFIT
	 Reference Energy          =    -404.5593342527018308 [Eh]
	 Singles Energy            =      -0.0000000000000000 [Eh]
	 Same-Spin Energy          =      -0.3977783024794279 [Eh]
	 Opposite-Spin Energy      =      -1.1945755638945854 [Eh]
	 Correlation Energy        =      -1.5923538663740133 [Eh]
	 Total Energy              =    -406.1516881190758568 [Eh]

	 ================> DF-SCS-MP2 Energies <==================
	-----------------------------------------------------------
	 SCS Same-Spin Scale       =       0.3333333333333333 [-]
	 SCS Opposite-Spin Scale   =       1.2000000000000000 [-]
	 SCS Same-Spin Energy      =      -0.1325927674931426 [Eh]
	 SCS Opposite-Spin Energy  =      -1.4334906766735025 [Eh]
	 SCS Correlation Energy    =      -1.5660834441666451 [Eh]
	 SCS Total Energy          =    -406.1254176968684533 [Eh]
	-----------------------------------------------------------

  Dipole Moment: [D]
     X:     1.4625      Y:     1.2306      Z:    -0.0002     Total:     1.9114

*** Psi4 exiting successfully. Buy a developer a beer!
