                               Psi4 1.3.2 release

  ==> Input File <==

--------------------------------------------------------------------------
#psi4
#
memory 32 gb

molecule  {
0 1
  F       -2.7449650     0.0145570    -0.0001620
  O        2.7531530    -0.0983640     0.0001690
  C        1.3970164     0.1292819     0.0000451
  C        0.6751730    -1.2211850     0.0000160
  C        0.6920200     1.2024970     0.0000780
  C       -0.7178840    -1.2139290    -0.0000690
  C       -0.7046260     1.2155960    -0.0000150
  C       -1.3854560     0.0061980    -0.0000700
  H        1.2313420    -2.1539510     0.0000130
  H        1.2396650     2.1436990     0.0001380
  H       -1.2874740    -2.1381980    -0.0001180
  H       -1.2612150     2.1476890    -0.0000120
  H        3.1178830     0.8039200     0.0000280
units angstrom
no_reorient  #important for SAPT in psi4, default
symmetry c1  #important for SAPT in psi4, default
}

set PROPERTIES_ORIGIN ["COM"]
properties('MP2/aug-cc-pvtz', properties = ['dipole'])
--------------------------------------------------------------------------

    Molecular point group: c1
  Charge       = 0
  Multiplicity = 1
  Basis Set: AUG-CC-PVTZ
    Blend: AUG-CC-PVTZ
  Basis Set: (AUG-CC-PVTZ AUX)
    Blend: AUG-CC-PVTZ-JKFIT

    Orbital Energies [Eh]
    ---------------------

    Doubly Occupied:

       1A    -26.305321     2A    -20.605532     3A    -11.326082
       4A    -11.310617     5A    -11.261234     6A    -11.253041
       7A    -11.252631     8A    -11.238264     9A     -1.617775
      10A     -1.414602    11A     -1.163607    12A     -1.048034
      13A     -1.007090    14A     -0.871272    15A     -0.838484
      16A     -0.745548    17A     -0.742549    18A     -0.699676
      19A     -0.687923    20A     -0.645122    21A     -0.630151
      22A     -0.605733    23A     -0.601613    24A     -0.577264
      25A     -0.567203    26A     -0.497387    27A     -0.492606
      28A     -0.367629    29A     -0.318461

  @DF-RHF Final Energy:  -404.53144647263838

   => Energetics <=

    Nuclear Repulsion Energy =            341.9581515251931023
    One-Electron Energy =               -1231.5942959426440666
    Two-Electron Energy =                 485.1046979448125853
    Total Energy =                       -404.5314464726383790
  Basis Set: (AUG-CC-PVTZ AUX)
    Blend: AUG-CC-PVTZ-RI
    Molecular point group: c1

    Geometry (in Angstrom), charge = 0, multiplicity = 1:

       Center              X                  Y                   Z               Mass
    ------------   -----------------  -----------------  -----------------  -----------------
         F           -2.695206260918     0.006218464361    -0.000157501149    18.998403162730
         O            2.802911739082    -0.106702535639     0.000173498851    15.994914619570
         C            1.446775139082     0.120943364361     0.000049598851    12.000000000000
         C            0.724931739082    -1.229523535639     0.000020498851    12.000000000000
         C            0.741778739082     1.194158464361     0.000082498851    12.000000000000
         C           -0.668125260918    -1.222267535639    -0.000064501149    12.000000000000
         C           -0.654867260918     1.207257464361    -0.000010501149    12.000000000000
         C           -1.335697260918    -0.002140535639    -0.000065501149    12.000000000000
         H            1.281100739082    -2.162289535639     0.000017498851     1.007825032230
         H            1.289423739082     2.135360464361     0.000142498851     1.007825032230
         H           -1.237715260918    -2.146536535639    -0.000113501149     1.007825032230
         H           -1.211456260918     2.139350464361    -0.000007501149     1.007825032230
         H            3.167641739082     0.795581464361     0.000032498851     1.007825032230

  Basis Set: AUG-CC-PVTZ
    Blend: AUG-CC-PVTZ
  Basis Set: (AUG-CC-PVTZ AUX)
    Blend: AUG-CC-PVTZ-JKFIT
	 Reference Energy          =    -404.5314464726383790 [Eh]
	 Singles Energy            =      -0.0000000000000000 [Eh]
	 Same-Spin Energy          =      -0.3979201542219769 [Eh]
	 Opposite-Spin Energy      =      -1.1979265850345326 [Eh]
	 Correlation Energy        =      -1.5958467392565097 [Eh]
	 Total Energy              =    -406.1272932118948802 [Eh]

	 ================> DF-SCS-MP2 Energies <==================
	-----------------------------------------------------------
	 SCS Same-Spin Scale       =       0.3333333333333333 [-]
	 SCS Opposite-Spin Scale   =       1.2000000000000000 [-]
	 SCS Same-Spin Energy      =      -0.1326400514073256 [Eh]
	 SCS Opposite-Spin Energy  =      -1.4375119020414391 [Eh]
	 SCS Correlation Energy    =      -1.5701519534487647 [Eh]
	 SCS Total Energy          =    -406.1015984260871505 [Eh]
	-----------------------------------------------------------

  Dipole Moment: [D]
     X:     1.5660      Y:     1.2376      Z:    -0.0001     Total:     1.9960

*** Psi4 exiting successfully. Buy a developer a beer!
