                               Psi4 1.3.2 release

  ==> Input File <==

--------------------------------------------------------------------------
#psi4
#
memory 32 gb

molecule  {
0 1
  F       -2.7449650     0.0145570    -0.0001620
  O        2.7439052    -0.1938988     0.0001681
  C        1.3806500    -0.0137200     0.0000700
  C        0.6751730    -1.2211850     0.0000160
  C        0.6920200     1.2024970     0.0000780
  C       -0.7178840    -1.2139290    -0.0000690
  C       -0.7046260     1.2155960    -0.0000150
  C       -1.3854560     0.0061980    -0.0000700
  H        1.2313420    -2.1539510     0.0000130
  H        1.2396650     2.1436990     0.0001380
  H       -1.2874740    -2.1381980    -0.0001180
  H       -1.2612150     2.1476890    -0.0000120
  H        3.1178830     0.8039200     0.0000280
units angstrom
no_reorient  #important for SAPT in psi4, default
symmetry c1  #important for SAPT in psi4, default
}

set PROPERTIES_ORIGIN ["COM"]
properties('MP2/aug-cc-pvtz', properties = ['dipole'])
--------------------------------------------------------------------------

    Molecular point group: c1
  Charge       = 0
  Multiplicity = 1
  Basis Set: AUG-CC-PVTZ
    Blend: AUG-CC-PVTZ
  Basis Set: (AUG-CC-PVTZ AUX)
    Blend: AUG-CC-PVTZ-JKFIT

    Orbital Energies [Eh]
    ---------------------

    Doubly Occupied:

       1A    -26.304196     2A    -20.609618     3A    -11.323962
       4A    -11.311528     5A    -11.256458     6A    -11.255020
       7A    -11.253286     8A    -11.245215     9A     -1.616819
      10A     -1.396105    11A     -1.160921    12A     -1.038431
      13A     -1.010050    14A     -0.871053    15A     -0.834660
      16A     -0.743068    17A     -0.730791    18A     -0.697352
      19A     -0.687330    20A     -0.642710    21A     -0.625326
      22A     -0.608919    23A     -0.596719    24A     -0.574326
      25A     -0.564053    26A     -0.509854    27A     -0.491268
      28A     -0.358941    29A     -0.321183

  @DF-RHF Final Energy:  -404.54330636388022

   => Energetics <=

    Nuclear Repulsion Energy =            341.7702326855276169
    One-Electron Energy =               -1231.3487578168198979
    Two-Electron Energy =                 485.0352187674120614
    Total Energy =                       -404.5433063638802196
  Basis Set: (AUG-CC-PVTZ AUX)
    Blend: AUG-CC-PVTZ-RI
    Molecular point group: c1

    Geometry (in Angstrom), charge = 0, multiplicity = 1:

       Center              X                  Y                   Z               Mass
    ------------   -----------------  -----------------  -----------------  -----------------
         F           -2.692132913927     0.035175199427    -0.000160039740    18.998403162730
         O            2.796737286073    -0.173280600573     0.000170060260    15.994914619570
         C            1.433482086073     0.006898199427     0.000071960260    12.000000000000
         C            0.728005086073    -1.200566800573     0.000017960260    12.000000000000
         C            0.744852086073     1.223115199427     0.000079960260    12.000000000000
         C           -0.665051913927    -1.193310800573    -0.000067039740    12.000000000000
         C           -0.651793913927     1.236214199427    -0.000013039740    12.000000000000
         C           -1.332623913927     0.026816199427    -0.000068039740    12.000000000000
         H            1.284174086073    -2.133332800573     0.000014960260     1.007825032230
         H            1.292497086073     2.164317199427     0.000139960260     1.007825032230
         H           -1.234641913927    -2.117579800573    -0.000116039740     1.007825032230
         H           -1.208382913927     2.168307199427    -0.000010039740     1.007825032230
         H            3.170715086073     0.824538199427     0.000029960260     1.007825032230

  Basis Set: AUG-CC-PVTZ
    Blend: AUG-CC-PVTZ
  Basis Set: (AUG-CC-PVTZ AUX)
    Blend: AUG-CC-PVTZ-JKFIT
	 Reference Energy          =    -404.5433063638802196 [Eh]
	 Singles Energy            =      -0.0000000000000000 [Eh]
	 Same-Spin Energy          =      -0.4000171512020908 [Eh]
	 Opposite-Spin Energy      =      -1.2001502073249271 [Eh]
	 Correlation Energy        =      -1.6001673585270177 [Eh]
	 Total Energy              =    -406.1434737224072364 [Eh]

	 ================> DF-SCS-MP2 Energies <==================
	-----------------------------------------------------------
	 SCS Same-Spin Scale       =       0.3333333333333333 [-]
	 SCS Opposite-Spin Scale   =       1.2000000000000000 [-]
	 SCS Same-Spin Energy      =      -0.1333390504006969 [Eh]
	 SCS Opposite-Spin Energy  =      -1.4401802487899125 [Eh]
	 SCS Correlation Energy    =      -1.5735192991906093 [Eh]
	 SCS Total Energy          =    -406.1168256630708129 [Eh]
	-----------------------------------------------------------

  Dipole Moment: [D]
     X:     1.5514      Y:     1.3416      Z:    -0.0001     Total:     2.0511

*** Psi4 exiting successfully. Buy a developer a beer!
