                               Psi4 1.4a3.dev225

  ==> Input File <==

--------------------------------------------------------------------------
#psi4
#
memory 32 gb

molecule  {
0 1
  F       -2.7448780     0.0146810    -0.0001360
  O        2.7530530    -0.0983740     0.0001420
  C        1.3805510    -0.0140580     0.0000660
  C        0.6748340    -1.2214480     0.0000070
  C        0.6924230     1.2023800     0.0000660
  C       -0.7180740    -1.2138510    -0.0000640
  C       -0.7043650     1.2157020    -0.0000090
  C       -1.3654244     0.0063918    -0.0000660
  H        1.2310880    -2.1541510     0.0000080
  H        1.2399310     2.1436010     0.0001160
  H       -1.2882010    -2.1378200    -0.0001110
  H       -1.2607430     2.1479340    -0.0000130
  H        3.1177310     0.8038740     0.0001020
units angstrom
no_reorient  #important for SAPT in psi4, default
symmetry c1  #important for SAPT in psi4, default
}

set PROPERTIES_ORIGIN ["COM"]
properties('MP2/aug-cc-pvtz', properties = ['dipole'])
--------------------------------------------------------------------------

    Molecular point group: c1
  Charge       = 0
  Multiplicity = 1
  Basis Set: AUG-CC-PVTZ
    Blend: AUG-CC-PVTZ
  Basis Set: (AUG-CC-PVTZ AUX)
    Blend: AUG-CC-PVTZ-JKFIT

    Orbital Energies [Eh]
    ---------------------

    Doubly Occupied:

       1A    -26.298745     2A    -20.600014     3A    -11.322904
       4A    -11.313640     5A    -11.256206     6A    -11.254543
       7A    -11.254323     8A    -11.248379     9A     -1.605479
      10A     -1.408980    11A     -1.165684    12A     -1.040771
      13A     -1.014947    14A     -0.873067    15A     -0.838388
      16A     -0.747582    17A     -0.734795    18A     -0.700782
      19A     -0.679822    20A     -0.643288    21A     -0.625325
      22A     -0.612347    23A     -0.597769    24A     -0.581856
      25A     -0.560457    26A     -0.513482    27A     -0.494402
      28A     -0.360200    29A     -0.324304

  @DF-RHF Final Energy:  -404.55762029161411

   => Energetics <=

    Nuclear Repulsion Energy =            342.1346070698328390
    One-Electron Energy =               -1232.0394932384115236
    Two-Electron Energy =                 485.3472658769646273
    Total Energy =                       -404.5576202916141142
  Basis Set: (AUG-CC-PVTZ AUX)
    Blend: AUG-CC-PVTZ-RI
    Molecular point group: c1

    Geometry (in Angstrom), charge = 0, multiplicity = 1:

       Center              X                  Y                   Z               Mass
    ------------   -----------------  -----------------  -----------------  -----------------
         F           -2.695512626246     0.021673989041    -0.000134128160    18.998403162730
         O            2.802418373754    -0.091381010959     0.000143871840    15.994914619570
         C            1.429916373754    -0.007065010959     0.000067871840    12.000000000000
         C            0.724199373754    -1.214455010959     0.000008871840    12.000000000000
         C            0.741788373754     1.209372989041     0.000067871840    12.000000000000
         C           -0.668708626246    -1.206858010959    -0.000062128160    12.000000000000
         C           -0.654999626246     1.222694989041    -0.000007128160    12.000000000000
         C           -1.316059026246     0.013384789041    -0.000064128160    12.000000000000
         H            1.280453373754    -2.147158010959     0.000009871840     1.007825032230
         H            1.289296373754     2.150593989041     0.000117871840     1.007825032230
         H           -1.238835626246    -2.130827010959    -0.000109128160     1.007825032230
         H           -1.211377626246     2.154926989041    -0.000011128160     1.007825032230
         H            3.167096373754     0.810866989041     0.000103871840     1.007825032230

  Basis Set: AUG-CC-PVTZ
    Blend: AUG-CC-PVTZ
  Basis Set: (AUG-CC-PVTZ AUX)
    Blend: AUG-CC-PVTZ-JKFIT
	 Reference Energy          =    -404.5576202916141142 [Eh]
	 Singles Energy            =      -0.0000000000000000 [Eh]
	 Same-Spin Energy          =      -0.3985364796382200 [Eh]
	 Opposite-Spin Energy      =      -1.1965347950569010 [Eh]
	 Correlation Energy        =      -1.5950712746951210 [Eh]
	 Total Energy              =    -406.1526915663092154 [Eh]

	 ================> DF-SCS-MP2 Energies <==================
	-----------------------------------------------------------
	 SCS Same-Spin Scale       =       0.3333333333333333 [-]
	 SCS Opposite-Spin Scale   =       1.2000000000000000 [-]
	 SCS Same-Spin Energy      =      -0.1328454932127400 [Eh]
	 SCS Opposite-Spin Energy  =      -1.4358417540682811 [Eh]
	 SCS Correlation Energy    =      -1.5686872472810212 [Eh]
	 SCS Total Energy          =    -406.1263075388951620 [Eh]
	-----------------------------------------------------------

  Dipole Moment: [D]
     X:     1.6236      Y:     1.2722      Z:    -0.0000     Total:     2.0627

*** Psi4 exiting successfully. Buy a developer a beer!
