                               Psi4 1.3.2 release

  ==> Input File <==

--------------------------------------------------------------------------
#psi4
#
memory 32 gb

molecule  {
0 1
  F       -2.7449650     0.0145570    -0.0001620
  O        2.7531530    -0.0983640     0.0001690
  C        1.3806500    -0.0137200     0.0000700
  C        0.6751730    -1.2211850     0.0000160
  C        0.6920200     1.2024970     0.0000780
  C       -0.7178840    -1.2139290    -0.0000690
  C       -0.7046260     1.2155960    -0.0000150
  C       -1.3854560     0.0061980    -0.0000700
  H        1.2313420    -2.1539510     0.0000130
  H        1.2396650     2.1436990     0.0001380
  H       -1.2874740    -2.1381980    -0.0001180
  H       -1.2612150     2.1476890    -0.0000120
  H        3.0429292     0.6184963     0.0000570
units angstrom
no_reorient  #important for SAPT in psi4, default
symmetry c1  #important for SAPT in psi4, default
}

set PROPERTIES_ORIGIN ["COM"]
properties('MP2/aug-cc-pvtz', properties = ['dipole'])
--------------------------------------------------------------------------

    Molecular point group: c1
  Charge       = 0
  Multiplicity = 1
  Basis Set: AUG-CC-PVTZ
    Blend: AUG-CC-PVTZ
  Basis Set: (AUG-CC-PVTZ AUX)
    Blend: AUG-CC-PVTZ-JKFIT

    Orbital Energies [Eh]
    ---------------------

    Doubly Occupied:

       1A    -26.305795     2A    -20.579150     3A    -11.326145
       4A    -11.314797     5A    -11.257298     6A    -11.255628
       7A    -11.255346     8A    -11.249162     9A     -1.618377
      10A     -1.467669    11A     -1.167094    12A     -1.040428
      13A     -1.024755    14A     -0.881410    15A     -0.852497
      16A     -0.773866    17A     -0.743362    18A     -0.707967
      19A     -0.688803    20A     -0.652506    21A     -0.628070
      22A     -0.610735    23A     -0.604415    24A     -0.588128
      25A     -0.567419    26A     -0.512591    27A     -0.495042
      28A     -0.360257    29A     -0.324856

  @DF-RHF Final Energy:  -404.51249067073502

   => Energetics <=

    Nuclear Repulsion Energy =            343.4452439418965355
    One-Electron Energy =               -1234.2083352998565715
    Two-Electron Energy =                 486.2506006872250737
    Total Energy =                       -404.5124906707350192
  Basis Set: (AUG-CC-PVTZ AUX)
    Blend: AUG-CC-PVTZ-RI
    Molecular point group: c1

    Geometry (in Angstrom), charge = 0, multiplicity = 1:

       Center              X                  Y                   Z               Mass
    ------------   -----------------  -----------------  -----------------  -----------------
         F           -2.692778954070     0.023203700034    -0.000160429112    18.998403162730
         O            2.805339045930    -0.089717299966     0.000170570888    15.994914619570
         C            1.432836045930    -0.005073299966     0.000071570888    12.000000000000
         C            0.727359045930    -1.212538299966     0.000017570888    12.000000000000
         C            0.744206045930     1.211143700034     0.000079570888    12.000000000000
         C           -0.665697954070    -1.205282299966    -0.000067429112    12.000000000000
         C           -0.652439954070     1.224242700034    -0.000013429112    12.000000000000
         C           -1.333269954070     0.014844700034    -0.000068429112    12.000000000000
         H            1.283528045930    -2.145304299966     0.000014570888     1.007825032230
         H            1.291851045930     2.152345700034     0.000139570888     1.007825032230
         H           -1.235287954070    -2.129551299966    -0.000116429112     1.007825032230
         H           -1.209028954070     2.156335700034    -0.000010429112     1.007825032230
         H            3.095115245930     0.627143000034     0.000058570888     1.007825032230

  Basis Set: AUG-CC-PVTZ
    Blend: AUG-CC-PVTZ
  Basis Set: (AUG-CC-PVTZ AUX)
    Blend: AUG-CC-PVTZ-JKFIT
	 Reference Energy          =    -404.5124906707350192 [Eh]
	 Singles Energy            =      -0.0000000000000000 [Eh]
	 Same-Spin Energy          =      -0.3960368854507163 [Eh]
	 Opposite-Spin Energy      =      -1.1905995736201938 [Eh]
	 Correlation Energy        =      -1.5866364590709101 [Eh]
	 Total Energy              =    -406.0991271298059360 [Eh]

	 ================> DF-SCS-MP2 Energies <==================
	-----------------------------------------------------------
	 SCS Same-Spin Scale       =       0.3333333333333333 [-]
	 SCS Opposite-Spin Scale   =       1.2000000000000000 [-]
	 SCS Same-Spin Energy      =      -0.1320122951502388 [Eh]
	 SCS Opposite-Spin Energy  =      -1.4287194883442325 [Eh]
	 SCS Correlation Energy    =      -1.5607317834944712 [Eh]
	 SCS Total Energy          =    -406.0732224542294944 [Eh]
	-----------------------------------------------------------

  Dipole Moment: [D]
     X:     1.3080      Y:     1.1199      Z:    -0.0001     Total:     1.7220

*** Psi4 exiting successfully. Buy a developer a beer!
