                               Psi4 1.3.2 release

  ==> Input File <==

--------------------------------------------------------------------------
#psi4
#
memory 32 gb

molecule  {
0 1
  F       -2.7449650     0.0145570    -0.0001620
  O        2.7531530    -0.0983640     0.0001690
  C        1.3844401     0.0341281     0.0000616
  C        0.6751730    -1.2211850     0.0000160
  C        0.6920200     1.2024970     0.0000780
  C       -0.7178840    -1.2139290    -0.0000690
  C       -0.7046260     1.2155960    -0.0000150
  C       -1.3854560     0.0061980    -0.0000700
  H        1.2313420    -2.1539510     0.0000130
  H        1.2396650     2.1436990     0.0001380
  H       -1.2874740    -2.1381980    -0.0001180
  H       -1.2612150     2.1476890    -0.0000120
  H        3.1178830     0.8039200     0.0000280
units angstrom
no_reorient  #important for SAPT in psi4, default
symmetry c1  #important for SAPT in psi4, default
}

set PROPERTIES_ORIGIN ["COM"]
properties('MP2/aug-cc-pvtz', properties = ['dipole'])
--------------------------------------------------------------------------

    Molecular point group: c1
  Charge       = 0
  Multiplicity = 1
  Basis Set: AUG-CC-PVTZ
    Blend: AUG-CC-PVTZ
  Basis Set: (AUG-CC-PVTZ AUX)
    Blend: AUG-CC-PVTZ-JKFIT

    Orbital Energies [Eh]
    ---------------------

    Doubly Occupied:

       1A    -26.304592     2A    -20.601375     3A    -11.324633
       4A    -11.312508     5A    -11.254905     6A    -11.254381
       7A    -11.252638     8A    -11.248607     9A     -1.617181
      10A     -1.410397    11A     -1.162305    12A     -1.039617
      13A     -1.012525    14A     -0.871148    15A     -0.840760
      16A     -0.746123    17A     -0.741382    18A     -0.702154
      19A     -0.687611    20A     -0.644271    21A     -0.627189
      22A     -0.608175    23A     -0.598191    24A     -0.577623
      25A     -0.565672    26A     -0.509357    27A     -0.492029
      28A     -0.360366    29A     -0.321254

  @DF-RHF Final Energy:  -404.55512741919301

   => Energetics <=

    Nuclear Repulsion Energy =            342.0070495310093861
    One-Electron Energy =               -1231.7464113051114509
    Two-Electron Energy =                 485.1842343549089946
    Total Energy =                       -404.5551274191930133
  Basis Set: (AUG-CC-PVTZ AUX)
    Blend: AUG-CC-PVTZ-RI
    Molecular point group: c1

    Geometry (in Angstrom), charge = 0, multiplicity = 1:

       Center              X                  Y                   Z               Mass
    ------------   -----------------  -----------------  -----------------  -----------------
         F           -2.693859190408     0.016410562024    -0.000159268494    18.998403162730
         O            2.804258809592    -0.096510437976     0.000171731506    15.994914619570
         C            1.435545909592     0.035981662024     0.000064331506    12.000000000000
         C            0.726278809592    -1.219331437976     0.000018731506    12.000000000000
         C            0.743125809592     1.204350562024     0.000080731506    12.000000000000
         C           -0.666778190408    -1.212075437976    -0.000066268494    12.000000000000
         C           -0.653520190408     1.217449562024    -0.000012268494    12.000000000000
         C           -1.334350190408     0.008051562024    -0.000067268494    12.000000000000
         H            1.282447809592    -2.152097437976     0.000015731506     1.007825032230
         H            1.290770809592     2.145552562024     0.000140731506     1.007825032230
         H           -1.236368190408    -2.136344437976    -0.000115268494     1.007825032230
         H           -1.210109190408     2.149542562024    -0.000009268494     1.007825032230
         H            3.168988809592     0.805773562024     0.000030731506     1.007825032230

  Basis Set: AUG-CC-PVTZ
    Blend: AUG-CC-PVTZ
  Basis Set: (AUG-CC-PVTZ AUX)
    Blend: AUG-CC-PVTZ-JKFIT
	 Reference Energy          =    -404.5551274191930133 [Eh]
	 Singles Energy            =      -0.0000000000000000 [Eh]
	 Same-Spin Energy          =      -0.3984053683747248 [Eh]
	 Opposite-Spin Energy      =      -1.1965929060997094 [Eh]
	 Correlation Energy        =      -1.5949982744744342 [Eh]
	 Total Energy              =    -406.1501256936674622 [Eh]

	 ================> DF-SCS-MP2 Energies <==================
	-----------------------------------------------------------
	 SCS Same-Spin Scale       =       0.3333333333333333 [-]
	 SCS Opposite-Spin Scale   =       1.2000000000000000 [-]
	 SCS Same-Spin Energy      =      -0.1328017894582416 [Eh]
	 SCS Opposite-Spin Energy  =      -1.4359114873196512 [Eh]
	 SCS Correlation Energy    =      -1.5687132767778929 [Eh]
	 SCS Total Energy          =    -406.1238406959708982 [Eh]
	-----------------------------------------------------------

  Dipole Moment: [D]
     X:     1.5195      Y:     1.2580      Z:    -0.0001     Total:     1.9726

*** Psi4 exiting successfully. Buy a developer a beer!
