                               Psi4 1.3.2 release

  ==> Input File <==

--------------------------------------------------------------------------
#psi4
#
memory 32 gb

molecule  {
0 1
  F       -2.7449650     0.0145570    -0.0001620
  O        2.7531530    -0.0983640     0.0001690
  C        1.3806500    -0.0137200     0.0000700
  C        0.6751730    -1.2211850     0.0000160
  C        0.6920200     1.2024970     0.0000780
  C       -0.7178840    -1.2139290    -0.0000690
  C       -0.7046260     1.2155960    -0.0000150
  C       -1.1854598     0.0049683    -0.0000565
  H        1.2313420    -2.1539510     0.0000130
  H        1.2396650     2.1436990     0.0001380
  H       -1.2874740    -2.1381980    -0.0001180
  H       -1.2612150     2.1476890    -0.0000120
  H        3.1178830     0.8039200     0.0000280
units angstrom
no_reorient  #important for SAPT in psi4, default
symmetry c1  #important for SAPT in psi4, default
}

set PROPERTIES_ORIGIN ["COM"]
properties('MP2/aug-cc-pvtz', properties = ['dipole'])
--------------------------------------------------------------------------

    Molecular point group: c1
  Charge       = 0
  Multiplicity = 1
  Basis Set: AUG-CC-PVTZ
    Blend: AUG-CC-PVTZ
  Basis Set: (AUG-CC-PVTZ AUX)
    Blend: AUG-CC-PVTZ-JKFIT

    Orbital Energies [Eh]
    ---------------------

    Doubly Occupied:

       1A    -26.244627     2A    -20.605121     3A    -11.320095
       4A    -11.318301     5A    -11.262983     6A    -11.258758
       7A    -11.257816     8A    -11.256519     9A     -1.516639
      10A     -1.414361    11A     -1.198743    12A     -1.064116
      13A     -1.025075    14A     -0.887099    15A     -0.834900
      16A     -0.757322    17A     -0.708565    18A     -0.675782
      19A     -0.649375    20A     -0.634267    21A     -0.623073
      22A     -0.603884    23A     -0.600198    24A     -0.562771
      25A     -0.545311    26A     -0.534075    27A     -0.516801
      28A     -0.371408    29A     -0.342017

  @DF-RHF Final Energy:  -404.51461088123801

   => Energetics <=

    Nuclear Repulsion Energy =            343.3185743503057097
    One-Electron Energy =               -1234.4863694996395225
    Two-Electron Energy =                 486.6531842680958562
    Total Energy =                       -404.5146108812380135
  Basis Set: (AUG-CC-PVTZ AUX)
    Blend: AUG-CC-PVTZ-RI
    Molecular point group: c1

    Geometry (in Angstrom), charge = 0, multiplicity = 1:

       Center              X                  Y                   Z               Mass
    ------------   -----------------  -----------------  -----------------  -----------------
         F           -2.714875184866     0.021667375002    -0.000161614243    18.998403162730
         O            2.783242815134    -0.091253624998     0.000169385757    15.994914619570
         C            1.410739815134    -0.006609624998     0.000070385757    12.000000000000
         C            0.705262815134    -1.214074624998     0.000016385757    12.000000000000
         C            0.722109815134     1.209607375002     0.000078385757    12.000000000000
         C           -0.687794184866    -1.206818624998    -0.000068614243    12.000000000000
         C           -0.674536184866     1.222706375002    -0.000014614243    12.000000000000
         C           -1.155369984866     0.012078675002    -0.000056114243    12.000000000000
         H            1.261431815134    -2.146840624998     0.000013385757     1.007825032230
         H            1.269754815134     2.150809375002     0.000138385757     1.007825032230
         H           -1.257384184866    -2.131087624998    -0.000117614243     1.007825032230
         H           -1.231125184866     2.154799375002    -0.000011614243     1.007825032230
         H            3.147972815134     0.811030375002     0.000028385757     1.007825032230

  Basis Set: AUG-CC-PVTZ
    Blend: AUG-CC-PVTZ
  Basis Set: (AUG-CC-PVTZ AUX)
    Blend: AUG-CC-PVTZ-JKFIT
	 Reference Energy          =    -404.5146108812380135 [Eh]
	 Singles Energy            =      -0.0000000000000000 [Eh]
	 Same-Spin Energy          =      -0.4003723830388379 [Eh]
	 Opposite-Spin Energy      =      -1.2010313520857296 [Eh]
	 Correlation Energy        =      -1.6014037351245676 [Eh]
	 Total Energy              =    -406.1160146163625768 [Eh]

	 ================> DF-SCS-MP2 Energies <==================
	-----------------------------------------------------------
	 SCS Same-Spin Scale       =       0.3333333333333333 [-]
	 SCS Opposite-Spin Scale   =       1.2000000000000000 [-]
	 SCS Same-Spin Energy      =      -0.1334574610129460 [Eh]
	 SCS Opposite-Spin Energy  =      -1.4412376225028756 [Eh]
	 SCS Correlation Energy    =      -1.5746950835158215 [Eh]
	 SCS Total Energy          =    -406.0893059647538621 [Eh]
	-----------------------------------------------------------

  Dipole Moment: [D]
     X:     2.7261      Y:     1.2658      Z:    -0.0001     Total:     3.0057

*** Psi4 exiting successfully. Buy a developer a beer!
