                               Psi4 1.3.2 release

  ==> Input File <==

--------------------------------------------------------------------------
#psi4
#
memory 32 gb

molecule  {
0 1
  F       -2.7449650     0.0145570    -0.0001620
  O        2.7557141    -0.0024168     0.0001694
  C        1.3806500    -0.0137200     0.0000700
  C        0.6751730    -1.2211850     0.0000160
  C        0.6920200     1.2024970     0.0000780
  C       -0.7178840    -1.2139290    -0.0000690
  C       -0.7046260     1.2155960    -0.0000150
  C       -1.3854560     0.0061980    -0.0000700
  H        1.2313420    -2.1539510     0.0000130
  H        1.2396650     2.1436990     0.0001380
  H       -1.2874740    -2.1381980    -0.0001180
  H       -1.2612150     2.1476890    -0.0000120
  H        3.1178830     0.8039200     0.0000280
units angstrom
no_reorient  #important for SAPT in psi4, default
symmetry c1  #important for SAPT in psi4, default
}

set PROPERTIES_ORIGIN ["COM"]
properties('MP2/aug-cc-pvtz', properties = ['dipole'])
--------------------------------------------------------------------------

    Molecular point group: c1
  Charge       = 0
  Multiplicity = 1
  Basis Set: AUG-CC-PVTZ
    Blend: AUG-CC-PVTZ
  Basis Set: (AUG-CC-PVTZ AUX)
    Blend: AUG-CC-PVTZ-JKFIT

    Orbital Energies [Eh]
    ---------------------

    Doubly Occupied:

       1A    -26.304921     2A    -20.587408     3A    -11.324955
       4A    -11.315145     5A    -11.255574     6A    -11.255498
       7A    -11.252336     8A    -11.250396     9A     -1.617530
      10A     -1.424796    11A     -1.164293    12A     -1.039085
      13A     -1.018726    14A     -0.873208    15A     -0.848979
      16A     -0.762136    17A     -0.742627    18A     -0.708258
      19A     -0.688004    20A     -0.643581    21A     -0.626943
      22A     -0.609877    23A     -0.597928    24A     -0.589522
      25A     -0.554923    26A     -0.509555    27A     -0.492620
      28A     -0.359431    29A     -0.322927

  @DF-RHF Final Energy:  -404.55437592952046

   => Energetics <=

    Nuclear Repulsion Energy =            342.4514608566724974
    One-Electron Energy =               -1232.5293089661024624
    Two-Electron Energy =                 485.5234721799095041
    Total Energy =                       -404.5543759295204609
  Basis Set: (AUG-CC-PVTZ AUX)
    Blend: AUG-CC-PVTZ-RI
    Molecular point group: c1

    Geometry (in Angstrom), charge = 0, multiplicity = 1:

       Center              X                  Y                   Z               Mass
    ------------   -----------------  -----------------  -----------------  -----------------
         F           -2.693818875085     0.007837241237    -0.000160225341    18.998403162730
         O            2.806860224915    -0.009136558763     0.000171174659    15.994914619570
         C            1.431796124915    -0.020439758763     0.000071774659    12.000000000000
         C            0.726319124915    -1.227904758763     0.000017774659    12.000000000000
         C            0.743166124915     1.195777241237     0.000079774659    12.000000000000
         C           -0.666737875085    -1.220648758763    -0.000067225341    12.000000000000
         C           -0.653479875085     1.208876241237    -0.000013225341    12.000000000000
         C           -1.334309875085    -0.000521758763    -0.000068225341    12.000000000000
         H            1.282488124915    -2.160670758763     0.000014774659     1.007825032230
         H            1.290811124915     2.136979241237     0.000139774659     1.007825032230
         H           -1.236327875085    -2.144917758763    -0.000116225341     1.007825032230
         H           -1.210068875085     2.140969241237    -0.000010225341     1.007825032230
         H            3.169029124915     0.797200241237     0.000029774659     1.007825032230

  Basis Set: AUG-CC-PVTZ
    Blend: AUG-CC-PVTZ
  Basis Set: (AUG-CC-PVTZ AUX)
    Blend: AUG-CC-PVTZ-JKFIT
	 Reference Energy          =    -404.5543759295204609 [Eh]
	 Singles Energy            =      -0.0000000000000000 [Eh]
	 Same-Spin Energy          =      -0.3971617745954345 [Eh]
	 Opposite-Spin Energy      =      -1.1931153307332816 [Eh]
	 Correlation Energy        =      -1.5902771053287161 [Eh]
	 Total Energy              =    -406.1446530348491706 [Eh]

	 ================> DF-SCS-MP2 Energies <==================
	-----------------------------------------------------------
	 SCS Same-Spin Scale       =       0.3333333333333333 [-]
	 SCS Opposite-Spin Scale   =       1.2000000000000000 [-]
	 SCS Same-Spin Energy      =      -0.1323872581984782 [Eh]
	 SCS Opposite-Spin Energy  =      -1.4317383968799378 [Eh]
	 SCS Correlation Energy    =      -1.5641256550784159 [Eh]
	 SCS Total Energy          =    -406.1185015845989028 [Eh]
	-----------------------------------------------------------

  Dipole Moment: [D]
     X:     1.4247      Y:     1.1831      Z:    -0.0002     Total:     1.8519

*** Psi4 exiting successfully. Buy a developer a beer!
