                               Psi4 1.3.2 release

  ==> Input File <==

--------------------------------------------------------------------------
#psi4
#
memory 32 gb

molecule  {
0 1
  F       -2.7449650     0.0145570    -0.0001620
  O        2.7531530    -0.0983640     0.0001690
  C        1.5802707    -0.0260309     0.0000844
  C        0.6751730    -1.2211850     0.0000160
  C        0.6920200     1.2024970     0.0000780
  C       -0.7178840    -1.2139290    -0.0000690
  C       -0.7046260     1.2155960    -0.0000150
  C       -1.3854560     0.0061980    -0.0000700
  H        1.2313420    -2.1539510     0.0000130
  H        1.2396650     2.1436990     0.0001380
  H       -1.2874740    -2.1381980    -0.0001180
  H       -1.2612150     2.1476890    -0.0000120
  H        3.1178830     0.8039200     0.0000280
units angstrom
no_reorient  #important for SAPT in psi4, default
symmetry c1  #important for SAPT in psi4, default
}

set PROPERTIES_ORIGIN ["COM"]
properties('MP2/aug-cc-pvtz', properties = ['dipole'])
--------------------------------------------------------------------------

    Molecular point group: c1
  Charge       = 0
  Multiplicity = 1
  Basis Set: AUG-CC-PVTZ
    Blend: AUG-CC-PVTZ
  Basis Set: (AUG-CC-PVTZ AUX)
    Blend: AUG-CC-PVTZ-JKFIT

    Orbital Energies [Eh]
    ---------------------

    Doubly Occupied:

       1A    -26.292729     2A    -20.644765     3A    -11.338029
       4A    -11.307677     5A    -11.250835     6A    -11.249369
       7A    -11.247838     8A    -11.241925     9A     -1.605748
      10A     -1.543264    11A     -1.135924    12A     -1.021592
      13A     -0.993993    14A     -0.892043    15A     -0.845245
      16A     -0.779904    17A     -0.731047    18A     -0.725921
      19A     -0.679061    20A     -0.674189    21A     -0.657902
      22A     -0.618623    23A     -0.591456    24A     -0.587032
      25A     -0.559702    26A     -0.478765    27A     -0.462070
      28A     -0.349588    29A     -0.288049

  @DF-RHF Final Energy:  -404.49643106799783

   => Energetics <=

    Nuclear Repulsion Energy =            341.4083211462891541
    One-Electron Energy =               -1230.2209316285009209
    Two-Electron Energy =                 484.3161794142139343
    Total Energy =                       -404.4964310679978325
  Basis Set: (AUG-CC-PVTZ AUX)
    Blend: AUG-CC-PVTZ-RI
    Molecular point group: c1

    Geometry (in Angstrom), charge = 0, multiplicity = 1:

       Center              X                  Y                   Z               Mass
    ------------   -----------------  -----------------  -----------------  -----------------
         F           -2.714834964374     0.022854302614    -0.000161710644    18.998403162730
         O            2.783283035626    -0.090066697386     0.000169289356    15.994914619570
         C            1.610400735626    -0.017733597386     0.000084689356    12.000000000000
         C            0.705303035626    -1.212887697386     0.000016289356    12.000000000000
         C            0.722150035626     1.210794302614     0.000078289356    12.000000000000
         C           -0.687753964374    -1.205631697386    -0.000068710644    12.000000000000
         C           -0.674495964374     1.223893302614    -0.000014710644    12.000000000000
         C           -1.355325964374     0.014495302614    -0.000069710644    12.000000000000
         H            1.261472035626    -2.145653697386     0.000013289356     1.007825032230
         H            1.269795035626     2.151996302614     0.000138289356     1.007825032230
         H           -1.257343964374    -2.129900697386    -0.000117710644     1.007825032230
         H           -1.231084964374     2.155986302614    -0.000011710644     1.007825032230
         H            3.148013035626     0.812217302614     0.000028289356     1.007825032230

  Basis Set: AUG-CC-PVTZ
    Blend: AUG-CC-PVTZ
  Basis Set: (AUG-CC-PVTZ AUX)
    Blend: AUG-CC-PVTZ-JKFIT
	 Reference Energy          =    -404.4964310679978325 [Eh]
	 Singles Energy            =      -0.0000000000000000 [Eh]
	 Same-Spin Energy          =      -0.3996657194442260 [Eh]
	 Opposite-Spin Energy      =      -1.1969652041522272 [Eh]
	 Correlation Energy        =      -1.5966309235964531 [Eh]
	 Total Energy              =    -406.0930619915943112 [Eh]

	 ================> DF-SCS-MP2 Energies <==================
	-----------------------------------------------------------
	 SCS Same-Spin Scale       =       0.3333333333333333 [-]
	 SCS Opposite-Spin Scale   =       1.2000000000000000 [-]
	 SCS Same-Spin Energy      =      -0.1332219064814086 [Eh]
	 SCS Opposite-Spin Energy  =      -1.4363582449826726 [Eh]
	 SCS Correlation Energy    =      -1.5695801514640813 [Eh]
	 SCS Total Energy          =    -406.0660112194619273 [Eh]
	-----------------------------------------------------------

  Dipole Moment: [D]
     X:     3.1039      Y:     1.2784      Z:    -0.0001     Total:     3.3568

*** Psi4 exiting successfully. Buy a developer a beer!
