                               Psi4 1.3.2 release

  ==> Input File <==

--------------------------------------------------------------------------
#psi4
#
memory 32 gb

molecule  {
0 1
  F       -2.7449650     0.0145570    -0.0001620
  O        2.7531530    -0.0983640     0.0001690
  C        1.4804604    -0.0198754     0.0000772
  C        0.6751730    -1.2211850     0.0000160
  C        0.6920200     1.2024970     0.0000780
  C       -0.7178840    -1.2139290    -0.0000690
  C       -0.7046260     1.2155960    -0.0000150
  C       -1.3854560     0.0061980    -0.0000700
  H        1.2313420    -2.1539510     0.0000130
  H        1.2396650     2.1436990     0.0001380
  H       -1.2874740    -2.1381980    -0.0001180
  H       -1.2612150     2.1476890    -0.0000120
  H        3.1178830     0.8039200     0.0000280
units angstrom
no_reorient  #important for SAPT in psi4, default
symmetry c1  #important for SAPT in psi4, default
}

set PROPERTIES_ORIGIN ["COM"]
properties('MP2/aug-cc-pvtz', properties = ['dipole'])
--------------------------------------------------------------------------

    Molecular point group: c1
  Charge       = 0
  Multiplicity = 1
  Basis Set: AUG-CC-PVTZ
    Blend: AUG-CC-PVTZ
  Basis Set: (AUG-CC-PVTZ AUX)
    Blend: AUG-CC-PVTZ-JKFIT

    Orbital Energies [Eh]
    ---------------------

    Doubly Occupied:

       1A    -26.299474     2A    -20.619718     3A    -11.323965
       4A    -11.317388     5A    -11.253494     6A    -11.252298
       7A    -11.251186     8A    -11.245395     9A     -1.612259
      10A     -1.467576    11A     -1.148837    12A     -1.029760
      13A     -1.003668    14A     -0.872303    15A     -0.843792
      16A     -0.766763    17A     -0.735275    18A     -0.711558
      19A     -0.682994    20A     -0.651866    21A     -0.630131
      22A     -0.622470    23A     -0.598553    24A     -0.586804
      25A     -0.566205    26A     -0.488870    27A     -0.486171
      28A     -0.354396    29A     -0.305841

  @DF-RHF Final Energy:  -404.54467810995629

   => Energetics <=

    Nuclear Repulsion Energy =            341.5771756752653232
    One-Electron Energy =               -1230.7856838060074551
    Two-Electron Energy =                 484.6638300207857810
    Total Energy =                       -404.5446781099562941
  Basis Set: (AUG-CC-PVTZ AUX)
    Blend: AUG-CC-PVTZ-RI
    Molecular point group: c1

    Geometry (in Angstrom), charge = 0, multiplicity = 1:

       Center              X                  Y                   Z               Mass
    ------------   -----------------  -----------------  -----------------  -----------------
         F           -2.704144100473     0.022194975744    -0.000160939438    18.998403162730
         O            2.793973899527    -0.090726024256     0.000170060562    15.994914619570
         C            1.521281299527    -0.012237424256     0.000078260562    12.000000000000
         C            0.715993899527    -1.213547024256     0.000017060562    12.000000000000
         C            0.732840899527     1.210134975744     0.000079060562    12.000000000000
         C           -0.677063100473    -1.206291024256    -0.000067939438    12.000000000000
         C           -0.663805100473     1.223233975744    -0.000013939438    12.000000000000
         C           -1.344635100473     0.013835975744    -0.000068939438    12.000000000000
         H            1.272162899527    -2.146313024256     0.000014060562     1.007825032230
         H            1.280485899527     2.151336975744     0.000139060562     1.007825032230
         H           -1.246653100473    -2.130560024256    -0.000116939438     1.007825032230
         H           -1.220394100473     2.155326975744    -0.000010939438     1.007825032230
         H            3.158703899527     0.811557975744     0.000029060562     1.007825032230

  Basis Set: AUG-CC-PVTZ
    Blend: AUG-CC-PVTZ
  Basis Set: (AUG-CC-PVTZ AUX)
    Blend: AUG-CC-PVTZ-JKFIT
	 Reference Energy          =    -404.5446781099562941 [Eh]
	 Singles Energy            =      -0.0000000000000000 [Eh]
	 Same-Spin Energy          =      -0.3988871312674879 [Eh]
	 Opposite-Spin Energy      =      -1.1961726167767539 [Eh]
	 Correlation Energy        =      -1.5950597480442417 [Eh]
	 Total Energy              =    -406.1397378580005579 [Eh]

	 ================> DF-SCS-MP2 Energies <==================
	-----------------------------------------------------------
	 SCS Same-Spin Scale       =       0.3333333333333333 [-]
	 SCS Opposite-Spin Scale   =       1.2000000000000000 [-]
	 SCS Same-Spin Energy      =      -0.1329623770891626 [Eh]
	 SCS Opposite-Spin Energy  =      -1.4354071401321047 [Eh]
	 SCS Correlation Energy    =      -1.5683695172212673 [Eh]
	 SCS Total Energy          =    -406.1130476271775365 [Eh]
	-----------------------------------------------------------

  Dipole Moment: [D]
     X:     2.2386      Y:     1.2787      Z:    -0.0001     Total:     2.5780

*** Psi4 exiting successfully. Buy a developer a beer!
