                               Psi4 1.3.2 release

  ==> Input File <==

--------------------------------------------------------------------------
#psi4
#
memory 32 gb

molecule  {
0 1
  F       -2.7366437     0.1566186    -0.0001563
  O        2.7531530    -0.0983640     0.0001690
  C        1.3806500    -0.0137200     0.0000700
  C        0.6751730    -1.2211850     0.0000160
  C        0.6920200     1.2024970     0.0000780
  C       -0.7178840    -1.2139290    -0.0000690
  C       -0.7046260     1.2155960    -0.0000150
  C       -1.3854560     0.0061980    -0.0000700
  H        1.2313420    -2.1539510     0.0000130
  H        1.2396650     2.1436990     0.0001380
  H       -1.2874740    -2.1381980    -0.0001180
  H       -1.2612150     2.1476890    -0.0000120
  H        3.1178830     0.8039200     0.0000280
units angstrom
no_reorient  #important for SAPT in psi4, default
symmetry c1  #important for SAPT in psi4, default
}

set PROPERTIES_ORIGIN ["COM"]
properties('MP2/aug-cc-pvtz', properties = ['dipole'])
--------------------------------------------------------------------------

    Molecular point group: c1
  Charge       = 0
  Multiplicity = 1
  Basis Set: AUG-CC-PVTZ
    Blend: AUG-CC-PVTZ
  Basis Set: (AUG-CC-PVTZ AUX)
    Blend: AUG-CC-PVTZ-JKFIT

    Orbital Energies [Eh]
    ---------------------

    Doubly Occupied:

       1A    -26.304223     2A    -20.599306     3A    -11.324265
       4A    -11.312686     5A    -11.257364     6A    -11.253344
       7A    -11.252140     8A    -11.248363     9A     -1.617369
      10A     -1.408227    11A     -1.162236    12A     -1.038591
      13A     -1.013559    14A     -0.872428    15A     -0.839186
      16A     -0.745674    17A     -0.742094    18A     -0.705143
      19A     -0.687786    20A     -0.640434    21A     -0.625273
      22A     -0.609699    23A     -0.596928    24A     -0.588068
      25A     -0.555929    26A     -0.510249    27A     -0.491688
      28A     -0.359153    29A     -0.321671

  @DF-RHF Final Energy:  -404.55576775341643

   => Energetics <=

    Nuclear Repulsion Energy =            342.1466902900749005
    One-Electron Energy =               -1232.0387625395637770
    Two-Electron Energy =                 485.3363044960723869
    Total Energy =                       -404.5557677534164327
  Basis Set: (AUG-CC-PVTZ AUX)
    Blend: AUG-CC-PVTZ-RI
    Molecular point group: c1

    Geometry (in Angstrom), charge = 0, multiplicity = 1:

       Center              X                  Y                   Z               Mass
    ------------   -----------------  -----------------  -----------------  -----------------
         F           -2.686543047569     0.139506527652    -0.000155434836    18.998403162730
         O            2.803253652431    -0.115476072348     0.000169865164    15.994914619570
         C            1.430750652431    -0.030832072348     0.000070865164    12.000000000000
         C            0.725273652431    -1.238297072348     0.000016865164    12.000000000000
         C            0.742120652431     1.185384927652     0.000078865164    12.000000000000
         C           -0.667783347569    -1.231041072348    -0.000068134836    12.000000000000
         C           -0.654525347569     1.198483927652    -0.000014134836    12.000000000000
         C           -1.335355347569    -0.010914072348    -0.000069134836    12.000000000000
         H            1.281442652431    -2.171063072348     0.000013865164     1.007825032230
         H            1.289765652431     2.126586927652     0.000138865164     1.007825032230
         H           -1.237373347569    -2.155310072348    -0.000117134836     1.007825032230
         H           -1.211114347569     2.130576927652    -0.000011134836     1.007825032230
         H            3.167983652431     0.786807927652     0.000028865164     1.007825032230

  Basis Set: AUG-CC-PVTZ
    Blend: AUG-CC-PVTZ
  Basis Set: (AUG-CC-PVTZ AUX)
    Blend: AUG-CC-PVTZ-JKFIT
	 Reference Energy          =    -404.5557677534164327 [Eh]
	 Singles Energy            =      -0.0000000000000000 [Eh]
	 Same-Spin Energy          =      -0.3985666366561713 [Eh]
	 Opposite-Spin Energy      =      -1.1964420790798780 [Eh]
	 Correlation Energy        =      -1.5950087157360493 [Eh]
	 Total Energy              =    -406.1507764691525040 [Eh]

	 ================> DF-SCS-MP2 Energies <==================
	-----------------------------------------------------------
	 SCS Same-Spin Scale       =       0.3333333333333333 [-]
	 SCS Opposite-Spin Scale   =       1.2000000000000000 [-]
	 SCS Same-Spin Energy      =      -0.1328555455520571 [Eh]
	 SCS Opposite-Spin Energy  =      -1.4357304948958536 [Eh]
	 SCS Correlation Energy    =      -1.5685860404479106 [Eh]
	 SCS Total Energy          =    -406.1243537938643158 [Eh]
	-----------------------------------------------------------

  Dipole Moment: [D]
     X:     1.4799      Y:     1.1476      Z:    -0.0002     Total:     1.8727

*** Psi4 exiting successfully. Buy a developer a beer!
