                               Psi4 1.4a3.dev225

  ==> Input File <==

--------------------------------------------------------------------------
#psi4
#
memory 32 gb

molecule  {
0 1
  F       -2.7448780     0.0146810    -0.0001360
  O        2.7530530    -0.0983740     0.0001420
  C        1.3306451    -0.0109922     0.0000632
  C        0.6748340    -1.2214480     0.0000070
  C        0.6924230     1.2023800     0.0000660
  C       -0.7180740    -1.2138510    -0.0000640
  C       -0.7043650     1.2157020    -0.0000090
  C       -1.3854240     0.0065120    -0.0000670
  H        1.2310880    -2.1541510     0.0000080
  H        1.2399310     2.1436010     0.0001160
  H       -1.2882010    -2.1378200    -0.0001110
  H       -1.2607430     2.1479340    -0.0000130
  H        3.1177310     0.8038740     0.0001020
units angstrom
no_reorient  #important for SAPT in psi4, default
symmetry c1  #important for SAPT in psi4, default
}

set PROPERTIES_ORIGIN ["COM"]
properties('MP2/aug-cc-pvtz', properties = ['dipole'])
--------------------------------------------------------------------------

    Molecular point group: c1
  Charge       = 0
  Multiplicity = 1
  Basis Set: AUG-CC-PVTZ
    Blend: AUG-CC-PVTZ
  Basis Set: (AUG-CC-PVTZ AUX)
    Blend: AUG-CC-PVTZ-JKFIT

    Orbital Energies [Eh]
    ---------------------

    Doubly Occupied:

       1A    -26.306505     2A    -20.590274     3A    -11.327010
       4A    -11.308651     5A    -11.257451     6A    -11.256016
       7A    -11.253823     8A    -11.248520     9A     -1.619083
      10A     -1.383962    11A     -1.169513    12A     -1.043620
      13A     -1.018052    14A     -0.874562    15A     -0.838926
      16A     -0.747472    17A     -0.733657    18A     -0.700552
      19A     -0.689554    20A     -0.642418    21A     -0.627145
      22A     -0.616245    23A     -0.585071    24A     -0.581874
      25A     -0.550133    26A     -0.518743    27A     -0.493471
      28A     -0.361573    29A     -0.329184

  @DF-RHF Final Energy:  -404.55517215012543

   => Energetics <=

    Nuclear Repulsion Energy =            342.3578688261914067
    One-Electron Energy =               -1232.4799599829834733
    Two-Electron Energy =                 485.5669190066666374
    Total Energy =                       -404.5551721501254292
  Basis Set: (AUG-CC-PVTZ AUX)
    Blend: AUG-CC-PVTZ-RI
    Molecular point group: c1

    Geometry (in Angstrom), charge = 0, multiplicity = 1:

       Center              X                  Y                   Z               Mass
    ------------   -----------------  -----------------  -----------------  -----------------
         F           -2.688024920204     0.021332730750    -0.000133721135    18.998403162730
         O            2.809906079796    -0.091722269250     0.000144278865    15.994914619570
         C            1.387498179796    -0.004340469250     0.000065478865    12.000000000000
         C            0.731687079796    -1.214796269250     0.000009278865    12.000000000000
         C            0.749276079796     1.209031730750     0.000068278865    12.000000000000
         C           -0.661220920204    -1.207199269250    -0.000061721135    12.000000000000
         C           -0.647511920204     1.222353730750    -0.000006721135    12.000000000000
         C           -1.328570920204     0.013163730750    -0.000064721135    12.000000000000
         H            1.287941079796    -2.147499269250     0.000010278865     1.007825032230
         H            1.296784079796     2.150252730750     0.000118278865     1.007825032230
         H           -1.231347920204    -2.131168269250    -0.000108721135     1.007825032230
         H           -1.203889920204     2.154585730750    -0.000010721135     1.007825032230
         H            3.174584079796     0.810525730750     0.000104278865     1.007825032230

  Basis Set: AUG-CC-PVTZ
    Blend: AUG-CC-PVTZ
  Basis Set: (AUG-CC-PVTZ AUX)
    Blend: AUG-CC-PVTZ-JKFIT
	 Reference Energy          =    -404.5551721501254292 [Eh]
	 Singles Energy            =      -0.0000000000000000 [Eh]
	 Same-Spin Energy          =      -0.3985068047501889 [Eh]
	 Opposite-Spin Energy      =      -1.1967583429845623 [Eh]
	 Correlation Energy        =      -1.5952651477347513 [Eh]
	 Total Energy              =    -406.1504372978602078 [Eh]

	 ================> DF-SCS-MP2 Energies <==================
	-----------------------------------------------------------
	 SCS Same-Spin Scale       =       0.3333333333333333 [-]
	 SCS Opposite-Spin Scale   =       1.2000000000000000 [-]
	 SCS Same-Spin Energy      =      -0.1328356015833963 [Eh]
	 SCS Opposite-Spin Energy  =      -1.4361100115814747 [Eh]
	 SCS Correlation Energy    =      -1.5689456131648709 [Eh]
	 SCS Total Energy          =    -406.1241177632903145 [Eh]
	-----------------------------------------------------------

  Dipole Moment: [D]
     X:     1.1632      Y:     1.2685      Z:    -0.0000     Total:     1.7211

*** Psi4 exiting successfully. Buy a developer a beer!
