                               Psi4 1.4a3.dev225

  ==> Input File <==

--------------------------------------------------------------------------
#psi4
#
memory 32 gb

molecule  {
0 1
  F       -2.7448780     0.0146810    -0.0001360
  O        2.7530530    -0.0983740     0.0001420
  C        1.3805510    -0.0140580     0.0000660
  C        0.6748340    -1.2214480     0.0000070
  C        0.6924230     1.2023800     0.0000660
  C       -0.7180740    -1.2138510    -0.0000640
  C       -0.7043650     1.2157020    -0.0000090
  C       -1.3354249     0.0062116    -0.0000645
  H        1.2310880    -2.1541510     0.0000080
  H        1.2399310     2.1436010     0.0001160
  H       -1.2882010    -2.1378200    -0.0001110
  H       -1.2607430     2.1479340    -0.0000130
  H        3.1177310     0.8038740     0.0001020
units angstrom
no_reorient  #important for SAPT in psi4, default
symmetry c1  #important for SAPT in psi4, default
}

set PROPERTIES_ORIGIN ["COM"]
properties('MP2/aug-cc-pvtz', properties = ['dipole'])
--------------------------------------------------------------------------

    Molecular point group: c1
  Charge       = 0
  Multiplicity = 1
  Basis Set: AUG-CC-PVTZ
    Blend: AUG-CC-PVTZ
  Basis Set: (AUG-CC-PVTZ AUX)
    Blend: AUG-CC-PVTZ-JKFIT

    Orbital Energies [Eh]
    ---------------------

    Doubly Occupied:

       1A    -26.290128     2A    -20.600884     3A    -11.321119
       4A    -11.314786     5A    -11.256649     6A    -11.255324
       7A    -11.254824     8A    -11.249561     9A     -1.588854
      10A     -1.409888    11A     -1.170780    12A     -1.044048
      13A     -1.016864    14A     -0.875138    15A     -0.836616
      16A     -0.748825    17A     -0.726561    18A     -0.696416
      19A     -0.668615    20A     -0.642379    21A     -0.623368
      22A     -0.616942    23A     -0.598805    24A     -0.579752
      25A     -0.560463    26A     -0.517930    27A     -0.498251
      28A     -0.361859    29A     -0.327665

  @DF-RHF Final Energy:  -404.55470034609914

   => Energetics <=

    Nuclear Repulsion Energy =            342.2921093685360461
    One-Electron Energy =               -1232.3870299400098247
    Two-Electron Energy =                 485.5402202253745827
    Total Energy =                       -404.5547003460991391
  Basis Set: (AUG-CC-PVTZ AUX)
    Blend: AUG-CC-PVTZ-RI
    Molecular point group: c1

    Geometry (in Angstrom), charge = 0, multiplicity = 1:

       Center              X                  Y                   Z               Mass
    ------------   -----------------  -----------------  -----------------  -----------------
         F           -2.698725927595     0.021693290593    -0.000134288828    18.998403162730
         O            2.799205072405    -0.091361709407     0.000143711172    15.994914619570
         C            1.426703072405    -0.007045709407     0.000067711172    12.000000000000
         C            0.720986072405    -1.214435709407     0.000008711172    12.000000000000
         C            0.738575072405     1.209392290593     0.000067711172    12.000000000000
         C           -0.671921927595    -1.206838709407    -0.000062288828    12.000000000000
         C           -0.658212927595     1.222714290593    -0.000007288828    12.000000000000
         C           -1.289272827595     0.013223890593    -0.000062788828    12.000000000000
         H            1.277240072405    -2.147138709407     0.000009711172     1.007825032230
         H            1.286083072405     2.150613290593     0.000117711172     1.007825032230
         H           -1.242048927595    -2.130807709407    -0.000109288828     1.007825032230
         H           -1.214590927595     2.154946290593    -0.000011288828     1.007825032230
         H            3.163883072405     0.810886290593     0.000103711172     1.007825032230

  Basis Set: AUG-CC-PVTZ
    Blend: AUG-CC-PVTZ
  Basis Set: (AUG-CC-PVTZ AUX)
    Blend: AUG-CC-PVTZ-JKFIT
	 Reference Energy          =    -404.5547003460991391 [Eh]
	 Singles Energy            =      -0.0000000000000000 [Eh]
	 Same-Spin Energy          =      -0.3986987672650597 [Eh]
	 Opposite-Spin Energy      =      -1.1970736154574346 [Eh]
	 Correlation Energy        =      -1.5957723827224943 [Eh]
	 Total Energy              =    -406.1504727288216259 [Eh]

	 ================> DF-SCS-MP2 Energies <==================
	-----------------------------------------------------------
	 SCS Same-Spin Scale       =       0.3333333333333333 [-]
	 SCS Opposite-Spin Scale   =       1.2000000000000000 [-]
	 SCS Same-Spin Energy      =      -0.1328995890883532 [Eh]
	 SCS Opposite-Spin Energy  =      -1.4364883385489216 [Eh]
	 SCS Correlation Energy    =      -1.5693879276372749 [Eh]
	 SCS Total Energy          =    -406.1240882737363904 [Eh]
	-----------------------------------------------------------

  Dipole Moment: [D]
     X:     1.8112      Y:     1.2715      Z:     0.0000     Total:     2.2130

*** Psi4 exiting successfully. Buy a developer a beer!
