                               Psi4 1.3.2 release

  ==> Input File <==

--------------------------------------------------------------------------
#psi4
#
memory 32 gb

molecule  {
0 1
  F       -2.7444285    -0.0328943    -0.0001637
  O        2.7531530    -0.0983640     0.0001690
  C        1.3806500    -0.0137200     0.0000700
  C        0.6751730    -1.2211850     0.0000160
  C        0.6920200     1.2024970     0.0000780
  C       -0.7178840    -1.2139290    -0.0000690
  C       -0.7046260     1.2155960    -0.0000150
  C       -1.3854560     0.0061980    -0.0000700
  H        1.2313420    -2.1539510     0.0000130
  H        1.2396650     2.1436990     0.0001380
  H       -1.2874740    -2.1381980    -0.0001180
  H       -1.2612150     2.1476890    -0.0000120
  H        3.1178830     0.8039200     0.0000280
units angstrom
no_reorient  #important for SAPT in psi4, default
symmetry c1  #important for SAPT in psi4, default
}

set PROPERTIES_ORIGIN ["COM"]
properties('MP2/aug-cc-pvtz', properties = ['dipole'])
--------------------------------------------------------------------------

    Molecular point group: c1
  Charge       = 0
  Multiplicity = 1
  Basis Set: AUG-CC-PVTZ
    Blend: AUG-CC-PVTZ
  Basis Set: (AUG-CC-PVTZ AUX)
    Blend: AUG-CC-PVTZ-JKFIT

    Orbital Energies [Eh]
    ---------------------

    Doubly Occupied:

       1A    -26.304473     2A    -20.599459     3A    -11.324357
       4A    -11.312845     5A    -11.256939     6A    -11.253959
       7A    -11.253340     8A    -11.247268     9A     -1.617141
      10A     -1.408364    11A     -1.162375    12A     -1.038677
      13A     -1.013628    14A     -0.871677    15A     -0.840266
      16A     -0.747404    17A     -0.739994    18A     -0.703461
      19A     -0.687623    20A     -0.645195    21A     -0.626181
      22A     -0.609290    23A     -0.597061    24A     -0.580930
      25A     -0.561411    26A     -0.510112    27A     -0.491871
      28A     -0.359051    29A     -0.322009

  @DF-RHF Final Energy:  -404.55813236569691

   => Energetics <=

    Nuclear Repulsion Energy =            342.0493017158237308
    One-Electron Energy =               -1231.8421439621677109
    Two-Electron Energy =                 485.2347098806470740
    Total Energy =                       -404.5581323656969062
  Basis Set: (AUG-CC-PVTZ AUX)
    Blend: AUG-CC-PVTZ-RI
    Molecular point group: c1

    Geometry (in Angstrom), charge = 0, multiplicity = 1:

       Center              X                  Y                   Z               Mass
    ------------   -----------------  -----------------  -----------------  -----------------
         F           -2.693007705251    -0.017868873744    -0.000161579948    18.998403162730
         O            2.804573794749    -0.083338573744     0.000171120052    15.994914619570
         C            1.432070794749     0.001305426256     0.000072120052    12.000000000000
         C            0.726593794749    -1.206159573744     0.000018120052    12.000000000000
         C            0.743440794749     1.217522426256     0.000080120052    12.000000000000
         C           -0.666463205251    -1.198903573744    -0.000066879948    12.000000000000
         C           -0.653205205251     1.230621426256    -0.000012879948    12.000000000000
         C           -1.334035205251     0.021223426256    -0.000067879948    12.000000000000
         H            1.282762794749    -2.138925573744     0.000015120052     1.007825032230
         H            1.291085794749     2.158724426256     0.000140120052     1.007825032230
         H           -1.236053205251    -2.123172573744    -0.000115879948     1.007825032230
         H           -1.209794205251     2.162714426256    -0.000009879948     1.007825032230
         H            3.169303794749     0.818945426256     0.000030120052     1.007825032230

  Basis Set: AUG-CC-PVTZ
    Blend: AUG-CC-PVTZ
  Basis Set: (AUG-CC-PVTZ AUX)
    Blend: AUG-CC-PVTZ-JKFIT
	 Reference Energy          =    -404.5581323656969062 [Eh]
	 Singles Energy            =      -0.0000000000000000 [Eh]
	 Same-Spin Energy          =      -0.3984701449143123 [Eh]
	 Opposite-Spin Energy      =      -1.1962632761591889 [Eh]
	 Correlation Energy        =      -1.5947334210735011 [Eh]
	 Total Energy              =    -406.1528657867704055 [Eh]

	 ================> DF-SCS-MP2 Energies <==================
	-----------------------------------------------------------
	 SCS Same-Spin Scale       =       0.3333333333333333 [-]
	 SCS Opposite-Spin Scale   =       1.2000000000000000 [-]
	 SCS Same-Spin Energy      =      -0.1328233816381041 [Eh]
	 SCS Opposite-Spin Energy  =      -1.4355159313910266 [Eh]
	 SCS Correlation Energy    =      -1.5683393130291308 [Eh]
	 SCS Total Energy          =    -406.1264716787260340 [Eh]
	-----------------------------------------------------------

  Dipole Moment: [D]
     X:     1.4954      Y:     1.3147      Z:    -0.0001     Total:     1.9911

*** Psi4 exiting successfully. Buy a developer a beer!
