                               Psi4 1.3.2 release

  ==> Input File <==

--------------------------------------------------------------------------
#psi4
#
memory 32 gb

molecule  {
0 1
  F       -2.7449650     0.0145570    -0.0001620
  O        2.7531530    -0.0983640     0.0001690
  C        1.3793210    -0.1576493     0.0000960
  C        0.6751730    -1.2211850     0.0000160
  C        0.6920200     1.2024970     0.0000780
  C       -0.7178840    -1.2139290    -0.0000690
  C       -0.7046260     1.2155960    -0.0000150
  C       -1.3854560     0.0061980    -0.0000700
  H        1.2313420    -2.1539510     0.0000130
  H        1.2396650     2.1436990     0.0001380
  H       -1.2874740    -2.1381980    -0.0001180
  H       -1.2612150     2.1476890    -0.0000120
  H        3.1178830     0.8039200     0.0000280
units angstrom
no_reorient  #important for SAPT in psi4, default
symmetry c1  #important for SAPT in psi4, default
}

set PROPERTIES_ORIGIN ["COM"]
properties('MP2/aug-cc-pvtz', properties = ['dipole'])
--------------------------------------------------------------------------

    Molecular point group: c1
  Charge       = 0
  Multiplicity = 1
  Basis Set: AUG-CC-PVTZ
    Blend: AUG-CC-PVTZ
  Basis Set: (AUG-CC-PVTZ AUX)
    Blend: AUG-CC-PVTZ-JKFIT

    Orbital Energies [Eh]
    ---------------------

    Doubly Occupied:

       1A    -26.305294     2A    -20.594011     3A    -11.325435
       4A    -11.310622     5A    -11.266615     6A    -11.257454
       7A    -11.253785     8A    -11.229921     9A     -1.617845
      10A     -1.402198    11A     -1.165628    12A     -1.051324
      13A     -1.008242    14A     -0.875251    15A     -0.832396
      16A     -0.750616    17A     -0.741071    18A     -0.708498
      19A     -0.688235    20A     -0.643231    21A     -0.624890
      22A     -0.611244    23A     -0.596064    24A     -0.594696
      25A     -0.549601    26A     -0.492810    27A     -0.491695
      28A     -0.366987    29A     -0.320064

  @DF-RHF Final Energy:  -404.53281609835057

   => Energetics <=

    Nuclear Repulsion Energy =            342.1640733434469439
    One-Electron Energy =               -1232.0423286603456745
    Two-Electron Energy =                 485.3454392185481652
    Total Energy =                       -404.5328160983505654
  Basis Set: (AUG-CC-PVTZ AUX)
    Blend: AUG-CC-PVTZ-RI
    Molecular point group: c1

    Geometry (in Angstrom), charge = 0, multiplicity = 1:

       Center              X                  Y                   Z               Mass
    ------------   -----------------  -----------------  -----------------  -----------------
         F           -2.693310874239     0.036952190320    -0.000162953141    18.998403162730
         O            2.804807125761    -0.075968809680     0.000168046859    15.994914619570
         C            1.430975125761    -0.135254109680     0.000095046859    12.000000000000
         C            0.726827125761    -1.198789809680     0.000015046859    12.000000000000
         C            0.743674125761     1.224892190320     0.000077046859    12.000000000000
         C           -0.666229874239    -1.191533809680    -0.000069953141    12.000000000000
         C           -0.652971874239     1.237991190320    -0.000015953141    12.000000000000
         C           -1.333801874239     0.028593190320    -0.000070953141    12.000000000000
         H            1.282996125761    -2.131555809680     0.000012046859     1.007825032230
         H            1.291319125761     2.166094190320     0.000137046859     1.007825032230
         H           -1.235819874239    -2.115802809680    -0.000118953141     1.007825032230
         H           -1.209560874239     2.170084190320    -0.000012953141     1.007825032230
         H            3.169537125761     0.826315190320     0.000027046859     1.007825032230

  Basis Set: AUG-CC-PVTZ
    Blend: AUG-CC-PVTZ
  Basis Set: (AUG-CC-PVTZ AUX)
    Blend: AUG-CC-PVTZ-JKFIT
	 Reference Energy          =    -404.5328160983505654 [Eh]
	 Singles Energy            =      -0.0000000000000000 [Eh]
	 Same-Spin Energy          =      -0.3976239262458742 [Eh]
	 Opposite-Spin Energy      =      -1.1965041142585175 [Eh]
	 Correlation Energy        =      -1.5941280405043918 [Eh]
	 Total Energy              =    -406.1269441388549808 [Eh]

	 ================> DF-SCS-MP2 Energies <==================
	-----------------------------------------------------------
	 SCS Same-Spin Scale       =       0.3333333333333333 [-]
	 SCS Opposite-Spin Scale   =       1.2000000000000000 [-]
	 SCS Same-Spin Energy      =      -0.1325413087486247 [Eh]
	 SCS Opposite-Spin Energy  =      -1.4358049371102211 [Eh]
	 SCS Correlation Energy    =      -1.5683462458588457 [Eh]
	 SCS Total Energy          =    -406.1011623442093992 [Eh]
	-----------------------------------------------------------

  Dipole Moment: [D]
     X:     1.4262      Y:     1.3044      Z:    -0.0002     Total:     1.9328

*** Psi4 exiting successfully. Buy a developer a beer!
