                               Psi4 1.3.2 release

  ==> Input File <==

--------------------------------------------------------------------------
#psi4
#
memory 32 gb

molecule  {
0 1
  O       -2.2334690    -1.1675340     0.0001340
  N        0.0265130    -0.9084710    -0.0000270
  N        2.3544690    -0.8475160    -0.0005320
  N       -1.3973450     1.0028810     0.0002180
  C        1.1706060    -0.1768690    -0.0001310
  C        1.0386517     1.1986641     0.2499110
  C       -1.2978830    -0.3751090     0.0001540
  C       -0.2757380     1.7018570     0.0000510
  H        0.0506260    -1.9247470    -0.0002200
  H        1.9024710     1.8518520    -0.0001620
  H       -0.4079780     2.7850560     0.0002120
  H        3.2235170    -0.3366370     0.0005700
  H        2.4001700    -1.8548790     0.0010060
units angstrom
no_reorient  #important for SAPT in psi4, default
symmetry c1  #important for SAPT in psi4, default
}

set PROPERTIES_ORIGIN ["COM"]
properties('MP2/aug-cc-pvtz', properties = ['dipole'])
--------------------------------------------------------------------------

    Molecular point group: c1
  Charge       = 0
  Multiplicity = 1
  Basis Set: AUG-CC-PVTZ
    Blend: AUG-CC-PVTZ
  Basis Set: (AUG-CC-PVTZ AUX)
    Blend: AUG-CC-PVTZ-JKFIT

    Orbital Energies [Eh]
    ---------------------

    Doubly Occupied:

       1A    -20.512640     2A    -15.633538     3A    -15.630791
       4A    -15.547281     5A    -11.388416     6A    -11.378036
       7A    -11.311738     8A    -11.236847     9A     -1.390746
      10A     -1.324532    11A     -1.243951    12A     -1.200142
      13A     -1.052028    14A     -0.907100    15A     -0.884207
      16A     -0.783896    17A     -0.750801    18A     -0.722800
      19A     -0.689976    20A     -0.639840    21A     -0.630601
      22A     -0.613116    23A     -0.565163    24A     -0.546077
      25A     -0.462076    26A     -0.447647    27A     -0.443049
      28A     -0.414545    29A     -0.327922

  @DF-RHF Final Energy:  -392.73758147459307

   => Energetics <=

    Nuclear Repulsion Energy =            354.4802043194740691
    One-Electron Energy =               -1237.0765684978118770
    Two-Electron Energy =                 489.8587827037447369
    Total Energy =                       -392.7375814745930711
  Basis Set: (AUG-CC-PVTZ AUX)
    Blend: AUG-CC-PVTZ-RI
    Molecular point group: c1

    Geometry (in Angstrom), charge = 0, multiplicity = 1:

       Center              X                  Y                   Z               Mass
    ------------   -----------------  -----------------  -----------------  -----------------
         O           -2.169551013413    -1.162912653108    -0.026869937239    15.994914619570
         N            0.090430986587    -0.903849653108    -0.027030937239    14.003074004430
         N            2.418386986587    -0.842894653108    -0.027535937239    14.003074004430
         N           -1.333427013413     1.007502346892    -0.026785937239    14.003074004430
         C            1.234523986587    -0.172247653108    -0.027134937239    12.000000000000
         C            1.102569686587     1.203285446892     0.222907062761    12.000000000000
         C           -1.233965013413    -0.370487653108    -0.026849937239    12.000000000000
         C           -0.211820013413     1.706478346892    -0.026952937239    12.000000000000
         H            0.114543986587    -1.920125653108    -0.027223937239     1.007825032230
         H            1.966388986587     1.856473346892    -0.027165937239     1.007825032230
         H           -0.344060013413     2.789677346892    -0.026791937239     1.007825032230
         H            3.287434986587    -0.332015653108    -0.026433937239     1.007825032230
         H            2.464087986587    -1.850257653108    -0.025997937239     1.007825032230

  Basis Set: AUG-CC-PVTZ
    Blend: AUG-CC-PVTZ
  Basis Set: (AUG-CC-PVTZ AUX)
    Blend: AUG-CC-PVTZ-JKFIT
	 Reference Energy          =    -392.7375814745930711 [Eh]
	 Singles Energy            =      -0.0000000000000000 [Eh]
	 Same-Spin Energy          =      -0.4070007693047648 [Eh]
	 Opposite-Spin Energy      =      -1.2152073849859328 [Eh]
	 Correlation Energy        =      -1.6222081542906976 [Eh]
	 Total Energy              =    -394.3597896288837887 [Eh]

	 ================> DF-SCS-MP2 Energies <==================
	-----------------------------------------------------------
	 SCS Same-Spin Scale       =       0.3333333333333333 [-]
	 SCS Opposite-Spin Scale   =       1.2000000000000000 [-]
	 SCS Same-Spin Energy      =      -0.1356669231015883 [Eh]
	 SCS Opposite-Spin Energy  =      -1.4582488619831193 [Eh]
	 SCS Correlation Energy    =      -1.5939157850847077 [Eh]
	 SCS Total Energy          =    -394.3314972596778034 [Eh]
	-----------------------------------------------------------

  Dipole Moment: [D]
     X:     7.9755      Y:    -1.0223      Z:    -0.2698     Total:     8.0453

*** Psi4 exiting successfully. Buy a developer a beer!
