                               Psi4 1.3.2 release

  ==> Input File <==

--------------------------------------------------------------------------
#psi4
#
memory 32 gb

molecule  {
0 1
  O       -2.2334690    -1.1675340     0.0001340
  N        0.0265130    -0.9084710    -0.0000270
  N        2.3544690    -0.8475160    -0.0005320
  N       -1.3973450     1.0028810     0.0002180
  C        1.1706060    -0.1768690    -0.0001310
  C        1.0385970     1.1986830    -0.0000890
  C       -1.2978830    -0.3751090     0.0001540
  C       -0.2757380     1.7018570     0.0000510
  H        0.0506260    -1.9247470    -0.0002200
  H        1.9024561     1.8518551    -0.1501620
  H       -0.4079780     2.7850560     0.0002120
  H        3.2235170    -0.3366370     0.0005700
  H        2.4001700    -1.8548790     0.0010060
units angstrom
no_reorient  #important for SAPT in psi4, default
symmetry c1  #important for SAPT in psi4, default
}

set PROPERTIES_ORIGIN ["COM"]
properties('MP2/aug-cc-pvtz', properties = ['dipole'])
--------------------------------------------------------------------------

    Molecular point group: c1
  Charge       = 0
  Multiplicity = 1
  Basis Set: AUG-CC-PVTZ
    Blend: AUG-CC-PVTZ
  Basis Set: (AUG-CC-PVTZ AUX)
    Blend: AUG-CC-PVTZ-JKFIT

    Orbital Energies [Eh]
    ---------------------

    Doubly Occupied:

       1A    -20.509540     2A    -15.632228     3A    -15.629106
       4A    -15.545844     5A    -11.384384     6A    -11.375860
       7A    -11.308966     8A    -11.233319     9A     -1.388870
      10A     -1.323492    11A     -1.242950    12A     -1.199113
      13A     -1.057291    14A     -0.909612    15A     -0.883403
      16A     -0.784371    17A     -0.752201    18A     -0.721964
      19A     -0.691369    20A     -0.639843    21A     -0.635108
      22A     -0.618873    23A     -0.568691    24A     -0.547851
      25A     -0.460175    26A     -0.447657    27A     -0.442100
      28A     -0.415466    29A     -0.325750

  @DF-RHF Final Energy:  -392.75022626224552

   => Energetics <=

    Nuclear Repulsion Energy =            355.1516207855260632
    One-Electron Energy =               -1238.4528998901903378
    Two-Electron Energy =                 490.5510528424186987
    Total Energy =                       -392.7502262622455191
  Basis Set: (AUG-CC-PVTZ AUX)
    Blend: AUG-CC-PVTZ-RI
    Molecular point group: c1

    Geometry (in Angstrom), charge = 0, multiplicity = 1:

       Center              X                  Y                   Z               Mass
    ------------   -----------------  -----------------  -----------------  -----------------
         O           -2.169544966971    -1.162914723691     0.001507955340    15.994914619570
         N            0.090437033029    -0.903851723691     0.001346955340    14.003074004430
         N            2.418393033029    -0.842896723691     0.000841955340    14.003074004430
         N           -1.333420966971     1.007500276309     0.001591955340    14.003074004430
         C            1.234530033029    -0.172249723691     0.001242955340    12.000000000000
         C            1.102521033029     1.203302276309     0.001284955340    12.000000000000
         C           -1.233958966971    -0.370489723691     0.001527955340    12.000000000000
         C           -0.211813966971     1.706476276309     0.001424955340    12.000000000000
         H            0.114550033029    -1.920127723691     0.001153955340     1.007825032230
         H            1.966380133029     1.856474376309    -0.148788044660     1.007825032230
         H           -0.344053966971     2.789675276309     0.001585955340     1.007825032230
         H            3.287441033029    -0.332017723691     0.001943955340     1.007825032230
         H            2.464094033029    -1.850259723691     0.002379955340     1.007825032230

  Basis Set: AUG-CC-PVTZ
    Blend: AUG-CC-PVTZ
  Basis Set: (AUG-CC-PVTZ AUX)
    Blend: AUG-CC-PVTZ-JKFIT
	 Reference Energy          =    -392.7502262622455191 [Eh]
	 Singles Energy            =      -0.0000000000000000 [Eh]
	 Same-Spin Energy          =      -0.4068724980660737 [Eh]
	 Opposite-Spin Energy      =      -1.2141280663021794 [Eh]
	 Correlation Energy        =      -1.6210005643682530 [Eh]
	 Total Energy              =    -394.3712268266137926 [Eh]

	 ================> DF-SCS-MP2 Energies <==================
	-----------------------------------------------------------
	 SCS Same-Spin Scale       =       0.3333333333333333 [-]
	 SCS Opposite-Spin Scale   =       1.2000000000000000 [-]
	 SCS Same-Spin Energy      =      -0.1356241660220245 [Eh]
	 SCS Opposite-Spin Energy  =      -1.4569536795626152 [Eh]
	 SCS Correlation Energy    =      -1.5925778455846398 [Eh]
	 SCS Total Energy          =    -394.3428041078301476 [Eh]
	-----------------------------------------------------------

  Dipole Moment: [D]
     X:     8.1195      Y:    -0.8861      Z:    -0.1226     Total:     8.1686

*** Psi4 exiting successfully. Buy a developer a beer!
