                               Psi4 1.3.2 release

  ==> Input File <==

--------------------------------------------------------------------------
#psi4
#
memory 32 gb

molecule  {
0 1
  O       -2.2334690    -1.1675340     0.0001340
  N        0.0265130    -0.9084710    -0.0000270
  N        2.3544690    -0.8475160    -0.0005320
  N       -1.3973450     1.0028810     0.0002180
  C        1.1706060    -0.1768690    -0.0001310
  C        1.0386189     1.1986754     0.0999110
  C       -1.2978830    -0.3751090     0.0001540
  C       -0.2757380     1.7018570     0.0000510
  H        0.0506260    -1.9247470    -0.0002200
  H        1.9024710     1.8518520    -0.0001620
  H       -0.4079780     2.7850560     0.0002120
  H        3.2235170    -0.3366370     0.0005700
  H        2.4001700    -1.8548790     0.0010060
units angstrom
no_reorient  #important for SAPT in psi4, default
symmetry c1  #important for SAPT in psi4, default
}

set PROPERTIES_ORIGIN ["COM"]
properties('MP2/aug-cc-pvtz', properties = ['dipole'])
--------------------------------------------------------------------------

    Molecular point group: c1
  Charge       = 0
  Multiplicity = 1
  Basis Set: AUG-CC-PVTZ
    Blend: AUG-CC-PVTZ
  Basis Set: (AUG-CC-PVTZ AUX)
    Blend: AUG-CC-PVTZ-JKFIT

    Orbital Energies [Eh]
    ---------------------

    Doubly Occupied:

       1A    -20.509815     2A    -15.632291     3A    -15.629282
       4A    -15.545918     5A    -11.384897     6A    -11.376040
       7A    -11.309352     8A    -11.233244     9A     -1.388999
      10A     -1.323538    11A     -1.242991    12A     -1.199167
      13A     -1.056687    14A     -0.909102    15A     -0.883620
      16A     -0.784283    17A     -0.752456    18A     -0.722113
      19A     -0.691066    20A     -0.638904    21A     -0.635473
      22A     -0.618979    23A     -0.568726    24A     -0.547613
      25A     -0.460504    26A     -0.447519    27A     -0.442170
      28A     -0.415240    29A     -0.325972

  @DF-RHF Final Energy:  -392.74915498131861

   => Energetics <=

    Nuclear Repulsion Energy =            355.0764155635297925
    One-Electron Energy =               -1238.2992221151232570
    Two-Electron Energy =                 490.4736515702749102
    Total Energy =                       -392.7491549813186111
  Basis Set: (AUG-CC-PVTZ AUX)
    Blend: AUG-CC-PVTZ-RI
    Molecular point group: c1

    Geometry (in Angstrom), charge = 0, multiplicity = 1:

       Center              X                  Y                   Z               Mass
    ------------   -----------------  -----------------  -----------------  -----------------
         O           -2.169547468848    -1.162913874254    -0.010660038764    15.994914619570
         N            0.090434531152    -0.903850874254    -0.010821038764    14.003074004430
         N            2.418390531152    -0.842895874254    -0.011326038764    14.003074004430
         N           -1.333423468848     1.007501125746    -0.010576038764    14.003074004430
         C            1.234527531152    -0.172248874254    -0.010925038764    12.000000000000
         C            1.102540431152     1.203295525746     0.089116961236    12.000000000000
         C           -1.233961468848    -0.370488874254    -0.010640038764    12.000000000000
         C           -0.211816468848     1.706477125746    -0.010743038764    12.000000000000
         H            0.114547531152    -1.920126874254    -0.011014038764     1.007825032230
         H            1.966392531152     1.856472125746    -0.010956038764     1.007825032230
         H           -0.344056468848     2.789676125746    -0.010582038764     1.007825032230
         H            3.287438531152    -0.332016874254    -0.010224038764     1.007825032230
         H            2.464091531152    -1.850258874254    -0.009788038764     1.007825032230

  Basis Set: AUG-CC-PVTZ
    Blend: AUG-CC-PVTZ
  Basis Set: (AUG-CC-PVTZ AUX)
    Blend: AUG-CC-PVTZ-JKFIT
	 Reference Energy          =    -392.7491549813186111 [Eh]
	 Singles Energy            =      -0.0000000000000000 [Eh]
	 Same-Spin Energy          =      -0.4068712997348732 [Eh]
	 Opposite-Spin Energy      =      -1.2141746080217304 [Eh]
	 Correlation Energy        =      -1.6210459077566035 [Eh]
	 Total Energy              =    -394.3702008890751927 [Eh]

	 ================> DF-SCS-MP2 Energies <==================
	-----------------------------------------------------------
	 SCS Same-Spin Scale       =       0.3333333333333333 [-]
	 SCS Opposite-Spin Scale   =       1.2000000000000000 [-]
	 SCS Same-Spin Energy      =      -0.1356237665782911 [Eh]
	 SCS Opposite-Spin Energy  =      -1.4570095296260763 [Eh]
	 SCS Correlation Energy    =      -1.5926332962043674 [Eh]
	 SCS Total Energy          =    -394.3417882775229941 [Eh]
	-----------------------------------------------------------

  Dipole Moment: [D]
     X:     8.1125      Y:    -0.8936      Z:    -0.1016     Total:     8.1622

*** Psi4 exiting successfully. Buy a developer a beer!
