                               Psi4 1.3.2 release

  ==> Input File <==

--------------------------------------------------------------------------
#psi4
#
memory 32 gb

molecule  {
0 1
  O       -2.2334690    -1.1675340     0.0001340
  N        0.0265130    -0.9084710    -0.0000270
  N        2.3544690    -0.8475160    -0.0005320
  N       -1.3973450     1.0028810     0.0002180
  C        1.1706060    -0.1768690    -0.0001310
  C        1.0385970     1.1986830    -0.0000890
  C       -1.2978830    -0.3751090     0.0001540
  C       -0.2757380     1.7018570     0.0000510
  H        0.0506260    -1.9247470    -0.0002200
  H        1.9024710     1.8518520    -0.0001620
  H       -0.4079780     2.7850560     0.0002120
  H        3.2235170    -0.3366370     0.0005700
  H        2.4002619    -1.8550150    -0.2989940
units angstrom
no_reorient  #important for SAPT in psi4, default
symmetry c1  #important for SAPT in psi4, default
}

set PROPERTIES_ORIGIN ["COM"]
properties('MP2/aug-cc-pvtz', properties = ['dipole'])
--------------------------------------------------------------------------

    Molecular point group: c1
  Charge       = 0
  Multiplicity = 1
  Basis Set: AUG-CC-PVTZ
    Blend: AUG-CC-PVTZ
  Basis Set: (AUG-CC-PVTZ AUX)
    Blend: AUG-CC-PVTZ-JKFIT

    Orbital Energies [Eh]
    ---------------------

    Doubly Occupied:

       1A    -20.509456     2A    -15.631993     3A    -15.631536
       4A    -15.546473     5A    -11.383395     6A    -11.375844
       7A    -11.309251     8A    -11.233198     9A     -1.388680
      10A     -1.321748    11A     -1.240853    12A     -1.198166
      13A     -1.056449    14A     -0.907901    15A     -0.883293
      16A     -0.776642    17A     -0.750416    18A     -0.721633
      19A     -0.687764    20A     -0.640298    21A     -0.633211
      22A     -0.620303    23A     -0.569883    24A     -0.546151
      25A     -0.460446    26A     -0.448044    27A     -0.442249
      28A     -0.415759    29A     -0.326273

  @DF-RHF Final Energy:  -392.74823257834976

   => Energetics <=

    Nuclear Repulsion Energy =            354.9973182089056536
    One-Electron Energy =               -1238.1764860199743907
    Two-Electron Energy =                 490.4309352327189799
    Total Energy =                       -392.7482325783497572
  Basis Set: (AUG-CC-PVTZ AUX)
    Blend: AUG-CC-PVTZ-RI
    Molecular point group: c1

    Geometry (in Angstrom), charge = 0, multiplicity = 1:

       Center              X                  Y                   Z               Mass
    ------------   -----------------  -----------------  -----------------  -----------------
         O           -2.169545936284    -1.162913461224     0.002869350461    15.994914619570
         N            0.090436063716    -0.903850461224     0.002708350461    14.003074004430
         N            2.418392063716    -0.842895461224     0.002203350461    14.003074004430
         N           -1.333421936284     1.007501538776     0.002953350461    14.003074004430
         C            1.234529063716    -0.172248461224     0.002604350461    12.000000000000
         C            1.102520063716     1.203303538776     0.002646350461    12.000000000000
         C           -1.233959936284    -0.370488461224     0.002889350461    12.000000000000
         C           -0.211814936284     1.706477538776     0.002786350461    12.000000000000
         H            0.114549063716    -1.920126461224     0.002515350461     1.007825032230
         H            1.966394063716     1.856472538776     0.002573350461     1.007825032230
         H           -0.344054936284     2.789676538776     0.002947350461     1.007825032230
         H            3.287440063716    -0.332016461224     0.003305350461     1.007825032230
         H            2.464184963716    -1.850394461224    -0.296258649539     1.007825032230

  Basis Set: AUG-CC-PVTZ
    Blend: AUG-CC-PVTZ
  Basis Set: (AUG-CC-PVTZ AUX)
    Blend: AUG-CC-PVTZ-JKFIT
	 Reference Energy          =    -392.7482325783497572 [Eh]
	 Singles Energy            =      -0.0000000000000000 [Eh]
	 Same-Spin Energy          =      -0.4071382236659927 [Eh]
	 Opposite-Spin Energy      =      -1.2148989798753913 [Eh]
	 Correlation Energy        =      -1.6220372035413839 [Eh]
	 Total Energy              =    -394.3702697818911247 [Eh]

	 ================> DF-SCS-MP2 Energies <==================
	-----------------------------------------------------------
	 SCS Same-Spin Scale       =       0.3333333333333333 [-]
	 SCS Opposite-Spin Scale   =       1.2000000000000000 [-]
	 SCS Same-Spin Energy      =      -0.1357127412219976 [Eh]
	 SCS Opposite-Spin Energy  =      -1.4578787758504694 [Eh]
	 SCS Correlation Energy    =      -1.5935915170724670 [Eh]
	 SCS Total Energy          =    -394.3418240954222256 [Eh]
	-----------------------------------------------------------

  Dipole Moment: [D]
     X:     8.0821      Y:    -0.7983      Z:    -0.4380     Total:     8.1332

*** Psi4 exiting successfully. Buy a developer a beer!
