                               Psi4 1.3.2 release

  ==> Input File <==

--------------------------------------------------------------------------
#psi4
#
memory 32 gb

molecule  {
0 1
  O       -2.2334690    -1.1675340     0.0001340
  N        0.0265130    -0.9084710    -0.0000270
  N        2.3544690    -0.8475160    -0.0005320
  N       -1.3973450     1.0028810     0.0002180
  C        1.1706060    -0.1768690    -0.0001310
  C        1.0385970     1.1986830    -0.0000890
  C       -1.2978830    -0.3751090     0.0001540
  C       -0.2757380     1.7018570     0.0000510
  H        0.0506260    -1.9247470    -0.0002200
  H        1.9024710     1.8518520    -0.0001620
  H       -0.4079780     2.7850560     0.0002120
  H        3.2235170    -0.3366370     0.0005700
  H        2.4002159    -1.8549470    -0.1489940
units angstrom
no_reorient  #important for SAPT in psi4, default
symmetry c1  #important for SAPT in psi4, default
}

set PROPERTIES_ORIGIN ["COM"]
properties('MP2/aug-cc-pvtz', properties = ['dipole'])
--------------------------------------------------------------------------

    Molecular point group: c1
  Charge       = 0
  Multiplicity = 1
  Basis Set: AUG-CC-PVTZ
    Blend: AUG-CC-PVTZ
  Basis Set: (AUG-CC-PVTZ AUX)
    Blend: AUG-CC-PVTZ-JKFIT

    Orbital Energies [Eh]
    ---------------------

    Doubly Occupied:

       1A    -20.509319     2A    -15.632042     3A    -15.629646
       4A    -15.545877     5A    -11.383981     6A    -11.375705
       7A    -11.308969     8A    -11.232724     9A     -1.388669
      10A     -1.322915    11A     -1.242284    12A     -1.198780
      13A     -1.057265    14A     -0.909082    15A     -0.883447
      16A     -0.782240    17A     -0.752291    18A     -0.721900
      19A     -0.690484    20A     -0.639280    21A     -0.635517
      22A     -0.620228    23A     -0.569476    24A     -0.547390
      25A     -0.460258    26A     -0.447684    27A     -0.442061
      28A     -0.415447    29A     -0.325791

  @DF-RHF Final Energy:  -392.75078141870074

   => Energetics <=

    Nuclear Repulsion Energy =            355.1419655181670691
    One-Electron Energy =               -1238.4439919473154532
    Two-Electron Energy =                 490.5512450104475874
    Total Energy =                       -392.7507814187007398
  Basis Set: (AUG-CC-PVTZ AUX)
    Blend: AUG-CC-PVTZ-RI
    Molecular point group: c1

    Geometry (in Angstrom), charge = 0, multiplicity = 1:

       Center              X                  Y                   Z               Mass
    ------------   -----------------  -----------------  -----------------  -----------------
         O           -2.169545518790    -1.162914078390     0.001507955340    15.994914619570
         N            0.090436481210    -0.903851078390     0.001346955340    14.003074004430
         N            2.418392481210    -0.842896078390     0.000841955340    14.003074004430
         N           -1.333421518790     1.007500921610     0.001591955340    14.003074004430
         C            1.234529481210    -0.172249078390     0.001242955340    12.000000000000
         C            1.102520481210     1.203302921610     0.001284955340    12.000000000000
         C           -1.233959518790    -0.370489078390     0.001527955340    12.000000000000
         C           -0.211814518790     1.706476921610     0.001424955340    12.000000000000
         H            0.114549481210    -1.920127078390     0.001153955340     1.007825032230
         H            1.966394481210     1.856471921610     0.001211955340     1.007825032230
         H           -0.344054518790     2.789675921610     0.001585955340     1.007825032230
         H            3.287440481210    -0.332017078390     0.001943955340     1.007825032230
         H            2.464139381210    -1.850327078390    -0.147620044660     1.007825032230

  Basis Set: AUG-CC-PVTZ
    Blend: AUG-CC-PVTZ
  Basis Set: (AUG-CC-PVTZ AUX)
    Blend: AUG-CC-PVTZ-JKFIT
	 Reference Energy          =    -392.7507814187007398 [Eh]
	 Singles Energy            =      -0.0000000000000000 [Eh]
	 Same-Spin Energy          =      -0.4069210649621290 [Eh]
	 Opposite-Spin Energy      =      -1.2142870312886020 [Eh]
	 Correlation Energy        =      -1.6212080962507311 [Eh]
	 Total Energy              =    -394.3719895149514514 [Eh]

	 ================> DF-SCS-MP2 Energies <==================
	-----------------------------------------------------------
	 SCS Same-Spin Scale       =       0.3333333333333333 [-]
	 SCS Opposite-Spin Scale   =       1.2000000000000000 [-]
	 SCS Same-Spin Energy      =      -0.1356403549873763 [Eh]
	 SCS Opposite-Spin Energy  =      -1.4571444375463225 [Eh]
	 SCS Correlation Energy    =      -1.5927847925336989 [Eh]
	 SCS Total Energy          =    -394.3435662112344176 [Eh]
	-----------------------------------------------------------

  Dipole Moment: [D]
     X:     8.1245      Y:    -0.8508      Z:    -0.2219     Total:     8.1719

*** Psi4 exiting successfully. Buy a developer a beer!
