                               Psi4 1.3.2 release

  ==> Input File <==

--------------------------------------------------------------------------
#psi4
#
memory 32 gb

molecule  {
0 1
  O       -2.2334690    -1.1675340     0.0001340
  N        0.0265130    -0.9084710    -0.0000270
  N        2.3544690    -0.8475160    -0.0005320
  N       -1.3973450     1.0028810     0.0002180
  C        1.1706060    -0.1768690    -0.0001310
  C        1.0385970     1.1986830    -0.0000890
  C       -1.2978830    -0.3751090     0.0001540
  C       -0.2757380     1.7018570     0.0000510
  H        0.0506386    -1.9247602     0.0997800
  H        1.9024710     1.8518520    -0.0001620
  H       -0.4079780     2.7850560     0.0002120
  H        3.2235170    -0.3366370     0.0005700
  H        2.4001700    -1.8548790     0.0010060
units angstrom
no_reorient  #important for SAPT in psi4, default
symmetry c1  #important for SAPT in psi4, default
}

set PROPERTIES_ORIGIN ["COM"]
properties('MP2/aug-cc-pvtz', properties = ['dipole'])
--------------------------------------------------------------------------

    Molecular point group: c1
  Charge       = 0
  Multiplicity = 1
  Basis Set: AUG-CC-PVTZ
    Blend: AUG-CC-PVTZ
  Basis Set: (AUG-CC-PVTZ AUX)
    Blend: AUG-CC-PVTZ-JKFIT

    Orbital Energies [Eh]
    ---------------------

    Doubly Occupied:

       1A    -20.509313     2A    -15.632279     3A    -15.628955
       4A    -15.545676     5A    -11.384100     6A    -11.375625
       7A    -11.308912     8A    -11.232575     9A     -1.388542
      10A     -1.323214    11A     -1.242768    12A     -1.198644
      13A     -1.057467    14A     -0.909160    15A     -0.883411
      16A     -0.783859    17A     -0.752518    18A     -0.721505
      19A     -0.691233    20A     -0.639592    21A     -0.635463
      22A     -0.619930    23A     -0.569202    24A     -0.547806
      25A     -0.460222    26A     -0.447664    27A     -0.441946
      28A     -0.415226    29A     -0.325640

  @DF-RHF Final Energy:  -392.75083389011127

   => Energetics <=

    Nuclear Repulsion Energy =            355.1670371147592959
    One-Electron Energy =               -1238.4908515424785946
    Two-Electron Energy =                 490.5729805376080321
    Total Energy =                       -392.7508338901112666
  Basis Set: (AUG-CC-PVTZ AUX)
    Blend: AUG-CC-PVTZ-RI
    Molecular point group: c1

    Geometry (in Angstrom), charge = 0, multiplicity = 1:

       Center              X                  Y                   Z               Mass
    ------------   -----------------  -----------------  -----------------  -----------------
         O           -2.169545216560    -1.162914575753    -0.000761036528    15.994914619570
         N            0.090436783440    -0.903851575753    -0.000922036528    14.003074004430
         N            2.418392783440    -0.842896575753    -0.001427036528    14.003074004430
         N           -1.333421216560     1.007500424247    -0.000677036528    14.003074004430
         C            1.234529783440    -0.172249575753    -0.001026036528    12.000000000000
         C            1.102520783440     1.203302424247    -0.000984036528    12.000000000000
         C           -1.233959216560    -0.370489575753    -0.000741036528    12.000000000000
         C           -0.211814216560     1.706476424247    -0.000844036528    12.000000000000
         H            0.114562383440    -1.920140775753     0.098884963472     1.007825032230
         H            1.966394783440     1.856471424247    -0.001057036528     1.007825032230
         H           -0.344054216560     2.789675424247    -0.000683036528     1.007825032230
         H            3.287440783440    -0.332017575753    -0.000325036528     1.007825032230
         H            2.464093783440    -1.850259575753     0.000110963472     1.007825032230

  Basis Set: AUG-CC-PVTZ
    Blend: AUG-CC-PVTZ
  Basis Set: (AUG-CC-PVTZ AUX)
    Blend: AUG-CC-PVTZ-JKFIT
	 Reference Energy          =    -392.7508338901112666 [Eh]
	 Singles Energy            =      -0.0000000000000000 [Eh]
	 Same-Spin Energy          =      -0.4068892492570526 [Eh]
	 Opposite-Spin Energy      =      -1.2141895429847571 [Eh]
	 Correlation Energy        =      -1.6210787922418097 [Eh]
	 Total Energy              =    -394.3719126823530701 [Eh]

	 ================> DF-SCS-MP2 Energies <==================
	-----------------------------------------------------------
	 SCS Same-Spin Scale       =       0.3333333333333333 [-]
	 SCS Opposite-Spin Scale   =       1.2000000000000000 [-]
	 SCS Same-Spin Energy      =      -0.1356297497523509 [Eh]
	 SCS Opposite-Spin Energy  =      -1.4570274515817085 [Eh]
	 SCS Correlation Energy    =      -1.5926572013340594 [Eh]
	 SCS Total Energy          =    -394.3434910914453440 [Eh]
	-----------------------------------------------------------

  Dipole Moment: [D]
     X:     8.1360      Y:    -0.8641      Z:     0.1302     Total:     8.1828

*** Psi4 exiting successfully. Buy a developer a beer!
