                               Psi4 1.3.2 release

  ==> Input File <==

--------------------------------------------------------------------------
#psi4
#
memory 32 gb

molecule  {
0 1
  O       -2.2334690    -1.1675340     0.0001340
  N        0.0265130    -0.9084710    -0.0000270
  N        2.3544690    -0.8475160    -0.0005320
  N       -1.3973450     1.0028810     0.0002180
  C        1.1706060    -0.1768690    -0.0001310
  C        1.0385970     1.1986830    -0.0000890
  C       -1.2978830    -0.3751090     0.0001540
  C       -0.2757380     1.7018570     0.0000510
  H        0.0506260    -1.9247470    -0.0002200
  H        1.9024710     1.8518520    -0.0001620
  H       -0.4079451     2.7850386     0.2502120
  H        3.2235170    -0.3366370     0.0005700
  H        2.4001700    -1.8548790     0.0010060
units angstrom
no_reorient  #important for SAPT in psi4, default
symmetry c1  #important for SAPT in psi4, default
}

set PROPERTIES_ORIGIN ["COM"]
properties('MP2/aug-cc-pvtz', properties = ['dipole'])
--------------------------------------------------------------------------

    Molecular point group: c1
  Charge       = 0
  Multiplicity = 1
  Basis Set: AUG-CC-PVTZ
    Blend: AUG-CC-PVTZ
  Basis Set: (AUG-CC-PVTZ AUX)
    Blend: AUG-CC-PVTZ-JKFIT

    Orbital Energies [Eh]
    ---------------------

    Doubly Occupied:

       1A    -20.509498     2A    -15.632210     3A    -15.629053
       4A    -15.546228     5A    -11.384292     6A    -11.376070
       7A    -11.311865     8A    -11.232874     9A     -1.388898
      10A     -1.323486    11A     -1.242971    12A     -1.199071
      13A     -1.057610    14A     -0.907505    15A     -0.883164
      16A     -0.784398    17A     -0.752996    18A     -0.721094
      19A     -0.689598    20A     -0.640183    21A     -0.633005
      22A     -0.620359    23A     -0.567253    24A     -0.547703
      25A     -0.460136    26A     -0.447602    27A     -0.442146
      28A     -0.413897    29A     -0.325834

  @DF-RHF Final Energy:  -392.74663390154655

   => Energetics <=

    Nuclear Repulsion Energy =            355.0835153267656779
    One-Electron Energy =               -1238.3182998053507617
    Two-Electron Energy =                 490.4881505770385388
    Total Energy =                       -392.7466339015465451
  Basis Set: (AUG-CC-PVTZ AUX)
    Blend: AUG-CC-PVTZ-RI
    Molecular point group: c1

    Geometry (in Angstrom), charge = 0, multiplicity = 1:

       Center              X                  Y                   Z               Mass
    ------------   -----------------  -----------------  -----------------  -----------------
         O           -2.169545400802    -1.162914537634    -0.002122431650    15.994914619570
         N            0.090436599198    -0.903851537634    -0.002283431650    14.003074004430
         N            2.418392599198    -0.842896537634    -0.002788431650    14.003074004430
         N           -1.333421400802     1.007500462366    -0.002038431650    14.003074004430
         C            1.234529599198    -0.172249537634    -0.002387431650    12.000000000000
         C            1.102520599198     1.203302462366    -0.002345431650    12.000000000000
         C           -1.233959400802    -0.370489537634    -0.002102431650    12.000000000000
         C           -0.211814400802     1.706476462366    -0.002205431650    12.000000000000
         H            0.114549599198    -1.920127537634    -0.002476431650     1.007825032230
         H            1.966394599198     1.856471462366    -0.002418431650     1.007825032230
         H           -0.344021500802     2.789658062366     0.247955568350     1.007825032230
         H            3.287440599198    -0.332017537634    -0.001686431650     1.007825032230
         H            2.464093599198    -1.850259537634    -0.001250431650     1.007825032230

  Basis Set: AUG-CC-PVTZ
    Blend: AUG-CC-PVTZ
  Basis Set: (AUG-CC-PVTZ AUX)
    Blend: AUG-CC-PVTZ-JKFIT
	 Reference Energy          =    -392.7466339015465451 [Eh]
	 Singles Energy            =      -0.0000000000000000 [Eh]
	 Same-Spin Energy          =      -0.4071362360398247 [Eh]
	 Opposite-Spin Energy      =      -1.2146364546981516 [Eh]
	 Correlation Energy        =      -1.6217726907379764 [Eh]
	 Total Energy              =    -394.3684065922845434 [Eh]

	 ================> DF-SCS-MP2 Energies <==================
	-----------------------------------------------------------
	 SCS Same-Spin Scale       =       0.3333333333333333 [-]
	 SCS Opposite-Spin Scale   =       1.2000000000000000 [-]
	 SCS Same-Spin Energy      =      -0.1357120786799416 [Eh]
	 SCS Opposite-Spin Energy  =      -1.4575637456377819 [Eh]
	 SCS Correlation Energy    =      -1.5932758243177234 [Eh]
	 SCS Total Energy          =    -394.3399097258642882 [Eh]
	-----------------------------------------------------------

  Dipole Moment: [D]
     X:     8.1315      Y:    -0.9108      Z:     0.1035     Total:     8.1830

*** Psi4 exiting successfully. Buy a developer a beer!
