                               Psi4 1.3.2 release

  ==> Input File <==

--------------------------------------------------------------------------
#psi4
#
memory 32 gb

molecule  {
0 1
  O       -2.2334690    -1.1675340     0.0001340
  N        0.0265130    -0.9084710    -0.0000270
  N        2.3544690    -0.8475160    -0.0005320
  N       -1.3973450     1.0028810     0.0002180
  C        1.1706060    -0.1768690    -0.0001310
  C        1.0385970     1.1986830    -0.0000890
  C       -1.2978830    -0.3751090     0.0001540
  C       -0.2757380     1.7018570     0.0000510
  H        0.0506260    -1.9247470    -0.0002200
  H        1.9024710     1.8518520    -0.0001620
  H       -0.4079714     2.7850525     0.0502120
  H        3.2235170    -0.3366370     0.0005700
  H        2.4001700    -1.8548790     0.0010060
units angstrom
no_reorient  #important for SAPT in psi4, default
symmetry c1  #important for SAPT in psi4, default
}

set PROPERTIES_ORIGIN ["COM"]
properties('MP2/aug-cc-pvtz', properties = ['dipole'])
--------------------------------------------------------------------------

    Molecular point group: c1
  Charge       = 0
  Multiplicity = 1
  Basis Set: AUG-CC-PVTZ
    Blend: AUG-CC-PVTZ
  Basis Set: (AUG-CC-PVTZ AUX)
    Blend: AUG-CC-PVTZ-JKFIT

    Orbital Energies [Eh]
    ---------------------

    Doubly Occupied:

       1A    -20.509280     2A    -15.632061     3A    -15.628998
       4A    -15.545692     5A    -11.384193     6A    -11.375673
       7A    -11.308995     8A    -11.232574     9A     -1.388676
      10A     -1.323352    11A     -1.242818    12A     -1.198987
      13A     -1.057568    14A     -0.909445    15A     -0.883487
      16A     -0.784391    17A     -0.752844    18A     -0.721954
      19A     -0.691214    20A     -0.638703    21A     -0.636427
      22A     -0.620202    23A     -0.569238    24A     -0.547827
      25A     -0.460191    26A     -0.447558    27A     -0.442003
      28A     -0.415280    29A     -0.325632

  @DF-RHF Final Energy:  -392.75111937011269

   => Energetics <=

    Nuclear Repulsion Energy =            355.1879159626778915
    One-Electron Energy =               -1238.5275466501732353
    Two-Electron Energy =                 490.5885113173827108
    Total Energy =                       -392.7511193701126899
  Basis Set: (AUG-CC-PVTZ AUX)
    Blend: AUG-CC-PVTZ-RI
    Molecular point group: c1

    Geometry (in Angstrom), charge = 0, multiplicity = 1:

       Center              X                  Y                   Z               Mass
    ------------   -----------------  -----------------  -----------------  -----------------
         O           -2.169545162104    -1.162914663790    -0.000307238155    15.994914619570
         N            0.090436837896    -0.903851663790    -0.000468238155    14.003074004430
         N            2.418392837896    -0.842896663790    -0.000973238155    14.003074004430
         N           -1.333421162104     1.007500336210    -0.000223238155    14.003074004430
         C            1.234529837896    -0.172249663790    -0.000572238155    12.000000000000
         C            1.102520837896     1.203302336210    -0.000530238155    12.000000000000
         C           -1.233959162104    -0.370489663790    -0.000287238155    12.000000000000
         C           -0.211814162104     1.706476336210    -0.000390238155    12.000000000000
         H            0.114549837896    -1.920127663790    -0.000661238155     1.007825032230
         H            1.966394837896     1.856471336210    -0.000603238155     1.007825032230
         H           -0.344047562104     2.789671836210     0.049770761845     1.007825032230
         H            3.287440837896    -0.332017663790     0.000128761845     1.007825032230
         H            2.464093837896    -1.850259663790     0.000564761845     1.007825032230

  Basis Set: AUG-CC-PVTZ
    Blend: AUG-CC-PVTZ
  Basis Set: (AUG-CC-PVTZ AUX)
    Blend: AUG-CC-PVTZ-JKFIT
	 Reference Energy          =    -392.7511193701126899 [Eh]
	 Singles Energy            =      -0.0000000000000000 [Eh]
	 Same-Spin Energy          =      -0.4068598047693150 [Eh]
	 Opposite-Spin Energy      =      -1.2141092677629286 [Eh]
	 Correlation Energy        =      -1.6209690725322436 [Eh]
	 Total Energy              =    -394.3720884426449516 [Eh]

	 ================> DF-SCS-MP2 Energies <==================
	-----------------------------------------------------------
	 SCS Same-Spin Scale       =       0.3333333333333333 [-]
	 SCS Opposite-Spin Scale   =       1.2000000000000000 [-]
	 SCS Same-Spin Energy      =      -0.1356199349231050 [Eh]
	 SCS Opposite-Spin Energy  =      -1.4569311213155143 [Eh]
	 SCS Correlation Energy    =      -1.5925510562386194 [Eh]
	 SCS Total Energy          =    -394.3436704263513093 [Eh]
	-----------------------------------------------------------

  Dipole Moment: [D]
     X:     8.1388      Y:    -0.8705      Z:     0.0234     Total:     8.1852

*** Psi4 exiting successfully. Buy a developer a beer!
