                               Psi4 1.3.2 release

  ==> Input File <==

--------------------------------------------------------------------------
#psi4
#
memory 32 gb

molecule  {
0 1
  O       -2.2334690    -1.1675340     0.0001340
  N        0.0265130    -0.9084710    -0.0000270
  N        2.3544690    -0.8475160    -0.0005320
  N       -1.3973450     1.0028810     0.0002180
  C        1.1706060    -0.1768690    -0.0001310
  C        1.0385970     1.1986830    -0.0000890
  C       -1.2978830    -0.3751090     0.0001540
  C       -0.2757380     1.7018570     0.0000510
  H        0.0506575    -1.9247799     0.2497800
  H        1.9024710     1.8518520    -0.0001620
  H       -0.4079780     2.7850560     0.0002120
  H        3.2235170    -0.3366370     0.0005700
  H        2.4001700    -1.8548790     0.0010060
units angstrom
no_reorient  #important for SAPT in psi4, default
symmetry c1  #important for SAPT in psi4, default
}

set PROPERTIES_ORIGIN ["COM"]
properties('MP2/aug-cc-pvtz', properties = ['dipole'])
--------------------------------------------------------------------------

    Molecular point group: c1
  Charge       = 0
  Multiplicity = 1
  Basis Set: AUG-CC-PVTZ
    Blend: AUG-CC-PVTZ
  Basis Set: (AUG-CC-PVTZ AUX)
    Blend: AUG-CC-PVTZ-JKFIT

    Orbital Energies [Eh]
    ---------------------

    Doubly Occupied:

       1A    -20.509512     2A    -15.633408     3A    -15.628733
       4A    -15.545707     5A    -11.383655     6A    -11.375469
       7A    -11.309114     8A    -11.232640     9A     -1.387928
      10A     -1.322542    11A     -1.242553    12A     -1.196949
      13A     -1.056974    14A     -0.907364    15A     -0.882960
      16A     -0.781383    17A     -0.750910    18A     -0.718716
      19A     -0.690942    20A     -0.641705    21A     -0.632697
      22A     -0.618395    23A     -0.568551    24A     -0.547671
      25A     -0.460366    26A     -0.448132    27A     -0.441728
      28A     -0.414662    29A     -0.325721

  @DF-RHF Final Energy:  -392.74792688459854

   => Energetics <=

    Nuclear Repulsion Energy =            355.0381356313425272
    One-Electron Energy =               -1238.2579541748634711
    Two-Electron Energy =                 490.4718916589223454
    Total Energy =                       -392.7479268845985416
  Basis Set: (AUG-CC-PVTZ AUX)
    Blend: AUG-CC-PVTZ-RI
    Molecular point group: c1

    Geometry (in Angstrom), charge = 0, multiplicity = 1:

       Center              X                  Y                   Z               Mass
    ------------   -----------------  -----------------  -----------------  -----------------
         O           -2.169545388096    -1.162914396956    -0.002122431650    15.994914619570
         N            0.090436611904    -0.903851396956    -0.002283431650    14.003074004430
         N            2.418392611904    -0.842896396956    -0.002788431650    14.003074004430
         N           -1.333421388096     1.007500603044    -0.002038431650    14.003074004430
         C            1.234529611904    -0.172249396956    -0.002387431650    12.000000000000
         C            1.102520611904     1.203302603044    -0.002345431650    12.000000000000
         C           -1.233959388096    -0.370489396956    -0.002102431650    12.000000000000
         C           -0.211814388096     1.706476603044    -0.002205431650    12.000000000000
         H            0.114581111904    -1.920160296956     0.247523568350     1.007825032230
         H            1.966394611904     1.856471603044    -0.002418431650     1.007825032230
         H           -0.344054388096     2.789675603044    -0.002044431650     1.007825032230
         H            3.287440611904    -0.332017396956    -0.001686431650     1.007825032230
         H            2.464093611904    -1.850259396956    -0.001250431650     1.007825032230

  Basis Set: AUG-CC-PVTZ
    Blend: AUG-CC-PVTZ
  Basis Set: (AUG-CC-PVTZ AUX)
    Blend: AUG-CC-PVTZ-JKFIT
	 Reference Energy          =    -392.7479268845985416 [Eh]
	 Singles Energy            =      -0.0000000000000000 [Eh]
	 Same-Spin Energy          =      -0.4071028281107656 [Eh]
	 Opposite-Spin Energy      =      -1.2147249420600732 [Eh]
	 Correlation Energy        =      -1.6218277701708388 [Eh]
	 Total Energy              =    -394.3697546547693946 [Eh]

	 ================> DF-SCS-MP2 Energies <==================
	-----------------------------------------------------------
	 SCS Same-Spin Scale       =       0.3333333333333333 [-]
	 SCS Opposite-Spin Scale   =       1.2000000000000000 [-]
	 SCS Same-Spin Energy      =      -0.1357009427035885 [Eh]
	 SCS Opposite-Spin Energy  =      -1.4576699304720877 [Eh]
	 SCS Correlation Energy    =      -1.5933708731756762 [Eh]
	 SCS Total Energy          =    -394.3412977577742140 [Eh]
	-----------------------------------------------------------

  Dipole Moment: [D]
     X:     8.1202      Y:    -0.8404      Z:     0.3192     Total:     8.1698

*** Psi4 exiting successfully. Buy a developer a beer!
