                               Psi4 1.3.2 release

  ==> Input File <==

--------------------------------------------------------------------------
#psi4
#
memory 32 gb

molecule  {
0 1
  O       -2.2334690    -1.1675340     0.0001340
  N        0.0265130    -0.9084710    -0.0000270
  N        2.3544690    -0.8475160    -0.0005320
  N       -1.3973450     1.0028810     0.0002180
  C        1.1706060    -0.1768690    -0.0001310
  C        1.0385970     1.1986830    -0.0000890
  C       -1.2978830    -0.3751090     0.0001540
  C       -0.2757380     1.7018570     0.0000510
  H        0.0506260    -1.9247470    -0.0002200
  H        1.9024710     1.8518520    -0.0001620
  H       -0.4079385     2.7850351     0.3002120
  H        3.2235170    -0.3366370     0.0005700
  H        2.4001700    -1.8548790     0.0010060
units angstrom
no_reorient  #important for SAPT in psi4, default
symmetry c1  #important for SAPT in psi4, default
}

set PROPERTIES_ORIGIN ["COM"]
properties('MP2/aug-cc-pvtz', properties = ['dipole'])
--------------------------------------------------------------------------

    Molecular point group: c1
  Charge       = 0
  Multiplicity = 1
  Basis Set: AUG-CC-PVTZ
    Blend: AUG-CC-PVTZ
  Basis Set: (AUG-CC-PVTZ AUX)
    Blend: AUG-CC-PVTZ-JKFIT

    Orbital Energies [Eh]
    ---------------------

    Doubly Occupied:

       1A    -20.509601     2A    -15.632282     3A    -15.629084
       4A    -15.546473     5A    -11.384344     6A    -11.376253
       7A    -11.313140     8A    -11.233017     9A     -1.389002
      10A     -1.323551    11A     -1.243045    12A     -1.199118
      13A     -1.057640    14A     -0.906728    15A     -0.883017
      16A     -0.784412    17A     -0.753070    18A     -0.720773
      19A     -0.688917    20A     -0.640484    21A     -0.631865
      22A     -0.620432    23A     -0.566308    24A     -0.547631
      25A     -0.460133    26A     -0.447625    27A     -0.442215
      28A     -0.413258    29A     -0.325928

  @DF-RHF Final Energy:  -392.74441158006687

   => Energetics <=

    Nuclear Repulsion Energy =            355.0375200346663291
    One-Electron Energy =               -1238.2251724453117276
    Two-Electron Energy =                 490.4432408305784747
    Total Energy =                       -392.7444115800668669
  Basis Set: (AUG-CC-PVTZ AUX)
    Blend: AUG-CC-PVTZ-RI
    Molecular point group: c1

    Geometry (in Angstrom), charge = 0, multiplicity = 1:

       Center              X                  Y                   Z               Mass
    ------------   -----------------  -----------------  -----------------  -----------------
         O           -2.169545460704    -1.162914505868    -0.002576230023    15.994914619570
         N            0.090436539296    -0.903851505868    -0.002737230023    14.003074004430
         N            2.418392539296    -0.842896505868    -0.003242230023    14.003074004430
         N           -1.333421460704     1.007500494132    -0.002492230023    14.003074004430
         C            1.234529539296    -0.172249505868    -0.002841230023    12.000000000000
         C            1.102520539296     1.203302494132    -0.002799230023    12.000000000000
         C           -1.233959460704    -0.370489505868    -0.002556230023    12.000000000000
         C           -0.211814460704     1.706476494132    -0.002659230023    12.000000000000
         H            0.114549539296    -1.920127505868    -0.002930230023     1.007825032230
         H            1.966394539296     1.856471494132    -0.002872230023     1.007825032230
         H           -0.344014960704     2.789654594132     0.297501769977     1.007825032230
         H            3.287440539296    -0.332017505868    -0.002140230023     1.007825032230
         H            2.464093539296    -1.850259505868    -0.001704230023     1.007825032230

  Basis Set: AUG-CC-PVTZ
    Blend: AUG-CC-PVTZ
  Basis Set: (AUG-CC-PVTZ AUX)
    Blend: AUG-CC-PVTZ-JKFIT
	 Reference Energy          =    -392.7444115800668669 [Eh]
	 Singles Energy            =      -0.0000000000000000 [Eh]
	 Same-Spin Energy          =      -0.4072607834125269 [Eh]
	 Opposite-Spin Energy      =      -1.2149033864112764 [Eh]
	 Correlation Energy        =      -1.6221641698238032 [Eh]
	 Total Energy              =    -394.3665757498906714 [Eh]

	 ================> DF-SCS-MP2 Energies <==================
	-----------------------------------------------------------
	 SCS Same-Spin Scale       =       0.3333333333333333 [-]
	 SCS Opposite-Spin Scale   =       1.2000000000000000 [-]
	 SCS Same-Spin Energy      =      -0.1357535944708423 [Eh]
	 SCS Opposite-Spin Energy  =      -1.4578840636935315 [Eh]
	 SCS Correlation Energy    =      -1.5936376581643739 [Eh]
	 SCS Total Energy          =    -394.3380492382312354 [Eh]
	-----------------------------------------------------------

  Dipole Moment: [D]
     X:     8.1284      Y:    -0.9294      Z:     0.1228     Total:     8.1823

*** Psi4 exiting successfully. Buy a developer a beer!
