                               Psi4 1.3.2 release

  ==> Input File <==

--------------------------------------------------------------------------
#psi4
#
memory 32 gb

molecule  {
0 1
  O       -2.2334690    -1.1675340     0.0001340
  N        0.0265130    -0.9084710    -0.0000270
  N        2.3544690    -0.8475160    -0.0005320
  N       -1.3973450     1.0028810     0.0002180
  C        1.1706060    -0.1768690    -0.0001310
  C        1.0385970     1.1986830    -0.0000890
  C       -1.2978830    -0.3751090     0.0001540
  C       -0.2757380     1.7018570     0.0000510
  H        0.0506260    -1.9247470    -0.0002200
  H        1.9024710     1.8518520    -0.0001620
  H       -0.4079648     2.7850490     0.1002120
  H        3.2235170    -0.3366370     0.0005700
  H        2.4001700    -1.8548790     0.0010060
units angstrom
no_reorient  #important for SAPT in psi4, default
symmetry c1  #important for SAPT in psi4, default
}

set PROPERTIES_ORIGIN ["COM"]
properties('MP2/aug-cc-pvtz', properties = ['dipole'])
--------------------------------------------------------------------------

    Molecular point group: c1
  Charge       = 0
  Multiplicity = 1
  Basis Set: AUG-CC-PVTZ
    Blend: AUG-CC-PVTZ
  Basis Set: (AUG-CC-PVTZ AUX)
    Blend: AUG-CC-PVTZ-JKFIT

    Orbital Energies [Eh]
    ---------------------

    Doubly Occupied:

       1A    -20.509306     2A    -15.632079     3A    -15.629004
       4A    -15.545759     5A    -11.384204     6A    -11.375722
       7A    -11.309360     8A    -11.232610     9A     -1.388703
      10A     -1.323368    11A     -1.242836    12A     -1.198996
      13A     -1.057572    14A     -0.909183    15A     -0.883446
      16A     -0.784390    17A     -0.752863    18A     -0.721833
      19A     -0.691002    20A     -0.639077    21A     -0.635802
      22A     -0.620221    23A     -0.568996    24A     -0.547814
      25A     -0.460180    26A     -0.447563    27A     -0.442020
      28A     -0.415108    29A     -0.325657

  @DF-RHF Final Energy:  -392.75058940650763

   => Energetics <=

    Nuclear Repulsion Energy =            355.1745442079178474
    One-Electron Energy =               -1238.5009189134289045
    Two-Electron Energy =                 490.5757852990034280
    Total Energy =                       -392.7505894065076291
  Basis Set: (AUG-CC-PVTZ AUX)
    Blend: AUG-CC-PVTZ-RI
    Molecular point group: c1

    Geometry (in Angstrom), charge = 0, multiplicity = 1:

       Center              X                  Y                   Z               Mass
    ------------   -----------------  -----------------  -----------------  -----------------
         O           -2.169545222006    -1.162914632024    -0.000761036528    15.994914619570
         N            0.090436777994    -0.903851632024    -0.000922036528    14.003074004430
         N            2.418392777994    -0.842896632024    -0.001427036528    14.003074004430
         N           -1.333421222006     1.007500367976    -0.000677036528    14.003074004430
         C            1.234529777994    -0.172249632024    -0.001026036528    12.000000000000
         C            1.102520777994     1.203302367976    -0.000984036528    12.000000000000
         C           -1.233959222006    -0.370489632024    -0.000741036528    12.000000000000
         C           -0.211814222006     1.706476367976    -0.000844036528    12.000000000000
         H            0.114549777994    -1.920127632024    -0.001115036528     1.007825032230
         H            1.966394777994     1.856471367976    -0.001057036528     1.007825032230
         H           -0.344041022006     2.789668367976     0.099316963472     1.007825032230
         H            3.287440777994    -0.332017632024    -0.000325036528     1.007825032230
         H            2.464093777994    -1.850259632024     0.000110963472     1.007825032230

  Basis Set: AUG-CC-PVTZ
    Blend: AUG-CC-PVTZ
  Basis Set: (AUG-CC-PVTZ AUX)
    Blend: AUG-CC-PVTZ-JKFIT
	 Reference Energy          =    -392.7505894065076291 [Eh]
	 Singles Energy            =      -0.0000000000000000 [Eh]
	 Same-Spin Energy          =      -0.4068946303962821 [Eh]
	 Opposite-Spin Energy      =      -1.2141681153550077 [Eh]
	 Correlation Energy        =      -1.6210627457512898 [Eh]
	 Total Energy              =    -394.3716521522589460 [Eh]

	 ================> DF-SCS-MP2 Energies <==================
	-----------------------------------------------------------
	 SCS Same-Spin Scale       =       0.3333333333333333 [-]
	 SCS Opposite-Spin Scale   =       1.2000000000000000 [-]
	 SCS Same-Spin Energy      =      -0.1356315434654274 [Eh]
	 SCS Opposite-Spin Energy  =      -1.4570017384260092 [Eh]
	 SCS Correlation Energy    =      -1.5926332818914366 [Eh]
	 SCS Total Energy          =    -394.3432226883990666 [Eh]
	-----------------------------------------------------------

  Dipole Moment: [D]
     X:     8.1378      Y:    -0.8755      Z:     0.0437     Total:     8.1849

*** Psi4 exiting successfully. Buy a developer a beer!
