                               Psi4 1.3.2 release

  ==> Input File <==

--------------------------------------------------------------------------
#psi4
#
memory 32 gb

molecule  {
0 1
  O       -2.2334690    -1.1675340     0.0001340
  N        0.0265130    -0.9084710    -0.0000270
  N        2.3544690    -0.8475160    -0.0005320
  N       -1.3973450     1.0028810     0.0002180
  C        1.1706060    -0.1768690    -0.0001310
  C        1.0385970     1.1986830    -0.0000890
  C       -1.2978830    -0.3751090     0.0001540
  C       -0.2757380     1.7018570     0.0000510
  H        0.0506260    -1.9247470    -0.0002200
  H        1.9024710     1.8518520    -0.0001620
  H       -0.4079517     2.7850421     0.2002120
  H        3.2235170    -0.3366370     0.0005700
  H        2.4001700    -1.8548790     0.0010060
units angstrom
no_reorient  #important for SAPT in psi4, default
symmetry c1  #important for SAPT in psi4, default
}

set PROPERTIES_ORIGIN ["COM"]
properties('MP2/aug-cc-pvtz', properties = ['dipole'])
--------------------------------------------------------------------------

    Molecular point group: c1
  Charge       = 0
  Multiplicity = 1
  Basis Set: AUG-CC-PVTZ
    Blend: AUG-CC-PVTZ
  Basis Set: (AUG-CC-PVTZ AUX)
    Blend: AUG-CC-PVTZ-JKFIT

    Orbital Energies [Eh]
    ---------------------

    Doubly Occupied:

       1A    -20.509415     2A    -15.632152     3A    -15.629031
       4A    -15.546027     5A    -11.384252     6A    -11.375921
       7A    -11.310803     8A    -11.232759     9A     -1.388813
      10A     -1.323434    11A     -1.242912    12A     -1.199037
      13A     -1.057591    14A     -0.908192    15A     -0.883285
      16A     -0.784392    17A     -0.752938    18A     -0.721388
      19A     -0.690183    20A     -0.639847    21A     -0.634052
      22A     -0.620299    23A     -0.568011    24A     -0.547754
      25A     -0.460149    26A     -0.447584    27A     -0.442091
      28A     -0.414417    29A     -0.325758

  @DF-RHF Final Energy:  -392.74837908855397

   => Energetics <=

    Nuclear Repulsion Energy =            355.1219930777531317
    One-Electron Energy =               -1238.3957722349052801
    Two-Electron Energy =                 490.5254000685981737
    Total Energy =                       -392.7483790885539747
  Basis Set: (AUG-CC-PVTZ AUX)
    Blend: AUG-CC-PVTZ-RI
    Molecular point group: c1

    Geometry (in Angstrom), charge = 0, multiplicity = 1:

       Center              X                  Y                   Z               Mass
    ------------   -----------------  -----------------  -----------------  -----------------
         O           -2.169545340901    -1.162914569400    -0.001668633276    15.994914619570
         N            0.090436659099    -0.903851569400    -0.001829633276    14.003074004430
         N            2.418392659099    -0.842896569400    -0.002334633276    14.003074004430
         N           -1.333421340901     1.007500430600    -0.001584633276    14.003074004430
         C            1.234529659099    -0.172249569400    -0.001933633276    12.000000000000
         C            1.102520659099     1.203302430600    -0.001891633276    12.000000000000
         C           -1.233959340901    -0.370489569400    -0.001648633276    12.000000000000
         C           -0.211814340901     1.706476430600    -0.001751633276    12.000000000000
         H            0.114549659099    -1.920127569400    -0.002022633276     1.007825032230
         H            1.966394659099     1.856471430600    -0.001964633276     1.007825032230
         H           -0.344028040901     2.789661530600     0.198409366724     1.007825032230
         H            3.287440659099    -0.332017569400    -0.001232633276     1.007825032230
         H            2.464093659099    -1.850259569400    -0.000796633276     1.007825032230

  Basis Set: AUG-CC-PVTZ
    Blend: AUG-CC-PVTZ
  Basis Set: (AUG-CC-PVTZ AUX)
    Blend: AUG-CC-PVTZ-JKFIT
	 Reference Energy          =    -392.7483790885539747 [Eh]
	 Singles Energy            =      -0.0000000000000000 [Eh]
	 Same-Spin Energy          =      -0.4070332410642712 [Eh]
	 Opposite-Spin Energy      =      -1.2144268653221957 [Eh]
	 Correlation Energy        =      -1.6214601063864669 [Eh]
	 Total Energy              =    -394.3698391949404254 [Eh]

	 ================> DF-SCS-MP2 Energies <==================
	-----------------------------------------------------------
	 SCS Same-Spin Scale       =       0.3333333333333333 [-]
	 SCS Opposite-Spin Scale   =       1.2000000000000000 [-]
	 SCS Same-Spin Energy      =      -0.1356777470214237 [Eh]
	 SCS Opposite-Spin Energy  =      -1.4573122383866348 [Eh]
	 SCS Correlation Energy    =      -1.5929899854080585 [Eh]
	 SCS Total Energy          =    -394.3413690739620279 [Eh]
	-----------------------------------------------------------

  Dipole Moment: [D]
     X:     8.1341      Y:    -0.8957      Z:     0.0839     Total:     8.1837

*** Psi4 exiting successfully. Buy a developer a beer!
