                               Psi4 1.3.2 release

  ==> Input File <==

--------------------------------------------------------------------------
#psi4
#
memory 32 gb

molecule  {
0 1
  O       -2.2334690    -1.1675340     0.0001340
  N        0.0265130    -0.9084710    -0.0000270
  N        2.3544690    -0.8475160    -0.0005320
  N       -1.3973450     1.0028810     0.0002180
  C        1.1706060    -0.1768690    -0.0001310
  C        1.0385970     1.1986830    -0.0000890
  C       -1.2978830    -0.3751090     0.0001540
  C       -0.2757380     1.7018570     0.0000510
  H        0.0506323    -1.9247536     0.0497800
  H        1.9024710     1.8518520    -0.0001620
  H       -0.4079780     2.7850560     0.0002120
  H        3.2235170    -0.3366370     0.0005700
  H        2.4001700    -1.8548790     0.0010060
units angstrom
no_reorient  #important for SAPT in psi4, default
symmetry c1  #important for SAPT in psi4, default
}

set PROPERTIES_ORIGIN ["COM"]
properties('MP2/aug-cc-pvtz', properties = ['dipole'])
--------------------------------------------------------------------------

    Molecular point group: c1
  Charge       = 0
  Multiplicity = 1
  Basis Set: AUG-CC-PVTZ
    Blend: AUG-CC-PVTZ
  Basis Set: (AUG-CC-PVTZ AUX)
    Blend: AUG-CC-PVTZ-JKFIT

    Orbital Energies [Eh]
    ---------------------

    Doubly Occupied:

       1A    -20.509281     2A    -15.632111     3A    -15.628986
       4A    -15.545671     5A    -11.384167     6A    -11.375649
       7A    -11.308882     8A    -11.232565     9A     -1.388635
      10A     -1.323313    11A     -1.242801    12A     -1.198899
      13A     -1.057542    14A     -0.909440    15A     -0.883478
      16A     -0.784257    17A     -0.752758    18A     -0.721875
      19A     -0.691272    20A     -0.638878    21A     -0.636295
      22A     -0.620130    23A     -0.569290    24A     -0.547825
      25A     -0.460201    26A     -0.447584    27A     -0.441984
      28A     -0.415310    29A     -0.325627

  @DF-RHF Final Energy:  -392.75118241989713

   => Energetics <=

    Nuclear Repulsion Energy =            355.1860372735067131
    One-Electron Energy =               -1238.5250258873295479
    Two-Electron Energy =                 490.5878061939257009
    Total Energy =                       -392.7511824198971340
  Basis Set: (AUG-CC-PVTZ AUX)
    Blend: AUG-CC-PVTZ-RI
    Molecular point group: c1

    Geometry (in Angstrom), charge = 0, multiplicity = 1:

       Center              X                  Y                   Z               Mass
    ------------   -----------------  -----------------  -----------------  -----------------
         O           -2.169545159382    -1.162914635654    -0.000307238155    15.994914619570
         N            0.090436840618    -0.903851635654    -0.000468238155    14.003074004430
         N            2.418392840618    -0.842896635654    -0.000973238155    14.003074004430
         N           -1.333421159382     1.007500364346    -0.000223238155    14.003074004430
         C            1.234529840618    -0.172249635654    -0.000572238155    12.000000000000
         C            1.102520840618     1.203302364346    -0.000530238155    12.000000000000
         C           -1.233959159382    -0.370489635654    -0.000287238155    12.000000000000
         C           -0.211814159382     1.706476364346    -0.000390238155    12.000000000000
         H            0.114556140618    -1.920134235654     0.049338761845     1.007825032230
         H            1.966394840618     1.856471364346    -0.000603238155     1.007825032230
         H           -0.344054159382     2.789675364346    -0.000229238155     1.007825032230
         H            3.287440840618    -0.332017635654     0.000128761845     1.007825032230
         H            2.464093840618    -1.850259635654     0.000564761845     1.007825032230

  Basis Set: AUG-CC-PVTZ
    Blend: AUG-CC-PVTZ
  Basis Set: (AUG-CC-PVTZ AUX)
    Blend: AUG-CC-PVTZ-JKFIT
	 Reference Energy          =    -392.7511824198971340 [Eh]
	 Singles Energy            =      -0.0000000000000000 [Eh]
	 Same-Spin Energy          =      -0.4068584338015762 [Eh]
	 Opposite-Spin Energy      =      -1.2141150133760983 [Eh]
	 Correlation Energy        =      -1.6209734471776744 [Eh]
	 Total Energy              =    -394.3721558670748095 [Eh]

	 ================> DF-SCS-MP2 Energies <==================
	-----------------------------------------------------------
	 SCS Same-Spin Scale       =       0.3333333333333333 [-]
	 SCS Opposite-Spin Scale   =       1.2000000000000000 [-]
	 SCS Same-Spin Energy      =      -0.1356194779338587 [Eh]
	 SCS Opposite-Spin Energy  =      -1.4569380160513179 [Eh]
	 SCS Correlation Energy    =      -1.5925574939851765 [Eh]
	 SCS Total Energy          =    -394.3437399138823025 [Eh]
	-----------------------------------------------------------

  Dipole Moment: [D]
     X:     8.1383      Y:    -0.8676      Z:     0.0667     Total:     8.1847

*** Psi4 exiting successfully. Buy a developer a beer!
