                               Psi4 1.3.2 release

  ==> Input File <==

--------------------------------------------------------------------------
#psi4
#
memory 32 gb

molecule  {
0 1
  O       -2.2334690    -1.1675340     0.0001340
  N        0.0265130    -0.9084710    -0.0000270
  N        2.3544690    -0.8475160    -0.0005320
  N       -1.3973450     1.0028810     0.0002180
  C        1.1706060    -0.1768690    -0.0001310
  C        1.0386627     1.1986603     0.2999110
  C       -1.2978830    -0.3751090     0.0001540
  C       -0.2757380     1.7018570     0.0000510
  H        0.0506260    -1.9247470    -0.0002200
  H        1.9024710     1.8518520    -0.0001620
  H       -0.4079780     2.7850560     0.0002120
  H        3.2235170    -0.3366370     0.0005700
  H        2.4001700    -1.8548790     0.0010060
units angstrom
no_reorient  #important for SAPT in psi4, default
symmetry c1  #important for SAPT in psi4, default
}

set PROPERTIES_ORIGIN ["COM"]
properties('MP2/aug-cc-pvtz', properties = ['dipole'])
--------------------------------------------------------------------------

    Molecular point group: c1
  Charge       = 0
  Multiplicity = 1
  Basis Set: AUG-CC-PVTZ
    Blend: AUG-CC-PVTZ
  Basis Set: (AUG-CC-PVTZ AUX)
    Blend: AUG-CC-PVTZ-JKFIT

    Orbital Energies [Eh]
    ---------------------

    Doubly Occupied:

       1A    -20.514095     2A    -15.634189     3A    -15.631566
       4A    -15.548029     5A    -11.390122     6A    -11.379066
       7A    -11.312898     8A    -11.238736     9A     -1.391655
      10A     -1.325037    11A     -1.244456    12A     -1.200652
      13A     -1.049566    14A     -0.906202    15A     -0.884478
      16A     -0.783785    17A     -0.750134    18A     -0.723192
      19A     -0.689443    20A     -0.640135    21A     -0.628582
      22A     -0.610358    23A     -0.563116    24A     -0.544903
      25A     -0.462867    26A     -0.447888    27A     -0.443494
      28A     -0.414066    29A     -0.329022

  @DF-RHF Final Energy:  -392.73132239032157

   => Energetics <=

    Nuclear Repulsion Energy =            354.1759339146200318
    One-Electron Energy =               -1236.4510463753047134
    Two-Electron Energy =                 489.5437900703631158
    Total Energy =                       -392.7313223903215658
  Basis Set: (AUG-CC-PVTZ AUX)
    Blend: AUG-CC-PVTZ-RI
    Molecular point group: c1

    Geometry (in Angstrom), charge = 0, multiplicity = 1:

       Center              X                  Y                   Z               Mass
    ------------   -----------------  -----------------  -----------------  -----------------
         O           -2.169552202139    -1.162912242458    -0.032273236731    15.994914619570
         N            0.090429797861    -0.903849242458    -0.032434236731    14.003074004430
         N            2.418385797861    -0.842894242458    -0.032939236731    14.003074004430
         N           -1.333428202139     1.007502757542    -0.032189236731    14.003074004430
         C            1.234522797861    -0.172247242458    -0.032538236731    12.000000000000
         C            1.102579497861     1.203282057542     0.267503763269    12.000000000000
         C           -1.233966202139    -0.370487242458    -0.032253236731    12.000000000000
         C           -0.211821202139     1.706478757542    -0.032356236731    12.000000000000
         H            0.114542797861    -1.920125242458    -0.032627236731     1.007825032230
         H            1.966387797861     1.856473757542    -0.032569236731     1.007825032230
         H           -0.344061202139     2.789677757542    -0.032195236731     1.007825032230
         H            3.287433797861    -0.332015242458    -0.031837236731     1.007825032230
         H            2.464086797861    -1.850257242458    -0.031401236731     1.007825032230

  Basis Set: AUG-CC-PVTZ
    Blend: AUG-CC-PVTZ
  Basis Set: (AUG-CC-PVTZ AUX)
    Blend: AUG-CC-PVTZ-JKFIT
	 Reference Energy          =    -392.7313223903215658 [Eh]
	 Singles Energy            =      -0.0000000000000000 [Eh]
	 Same-Spin Energy          =      -0.4070674480600349 [Eh]
	 Opposite-Spin Energy      =      -1.2158294399176683 [Eh]
	 Correlation Energy        =      -1.6228968879777033 [Eh]
	 Total Energy              =    -394.3542192782992970 [Eh]

	 ================> DF-SCS-MP2 Energies <==================
	-----------------------------------------------------------
	 SCS Same-Spin Scale       =       0.3333333333333333 [-]
	 SCS Opposite-Spin Scale   =       1.2000000000000000 [-]
	 SCS Same-Spin Energy      =      -0.1356891493533449 [Eh]
	 SCS Opposite-Spin Energy  =      -1.4589953279012020 [Eh]
	 SCS Correlation Energy    =      -1.5946844772545470 [Eh]
	 SCS Total Energy          =    -394.3260068675760976 [Eh]
	-----------------------------------------------------------

  Dipole Moment: [D]
     X:     7.9052      Y:    -1.0881      Z:    -0.3306     Total:     7.9865

*** Psi4 exiting successfully. Buy a developer a beer!
