                               Psi4 1.3.2 release

  ==> Input File <==

--------------------------------------------------------------------------
#psi4
#
memory 32 gb

molecule  {
0 1
  O       -2.2334690    -1.1675340     0.0001340
  N        0.0265130    -0.9084710    -0.0000270
  N        2.3544690    -0.8475160    -0.0005320
  N       -1.3973450     1.0028810     0.0002180
  C        1.1706060    -0.1768690    -0.0001310
  C        1.0385970     1.1986830    -0.0000890
  C       -1.2978830    -0.3751090     0.0001540
  C       -0.2757380     1.7018570     0.0000510
  H        0.0506260    -1.9247470    -0.0002200
  H        1.9024710     1.8518520    -0.0001620
  H       -0.4079583     2.7850455     0.1502120
  H        3.2235170    -0.3366370     0.0005700
  H        2.4001700    -1.8548790     0.0010060
units angstrom
no_reorient  #important for SAPT in psi4, default
symmetry c1  #important for SAPT in psi4, default
}

set PROPERTIES_ORIGIN ["COM"]
properties('MP2/aug-cc-pvtz', properties = ['dipole'])
--------------------------------------------------------------------------

    Molecular point group: c1
  Charge       = 0
  Multiplicity = 1
  Basis Set: AUG-CC-PVTZ
    Blend: AUG-CC-PVTZ
  Basis Set: (AUG-CC-PVTZ AUX)
    Blend: AUG-CC-PVTZ-JKFIT

    Orbital Energies [Eh]
    ---------------------

    Doubly Occupied:

       1A    -20.509351     2A    -15.632109     3A    -15.629015
       4A    -15.545871     5A    -11.384223     6A    -11.375805
       7A    -11.309965     8A    -11.232672     9A     -1.388748
      10A     -1.323395    11A     -1.242867    12A     -1.199012
      13A     -1.057579    14A     -0.908759    15A     -0.883379
      16A     -0.784390    17A     -0.752894    18A     -0.721640
      19A     -0.690656    20A     -0.639474    21A     -0.634992
      22A     -0.620253    23A     -0.568589    24A     -0.547790
      25A     -0.460165    26A     -0.447572    27A     -0.442050
      28A     -0.414820    29A     -0.325699

  @DF-RHF Final Energy:  -392.74968566236890

   => Energetics <=

    Nuclear Repulsion Energy =            355.1524699434989998
    One-Electron Energy =               -1238.4568470461556444
    Two-Electron Energy =                 490.5546914402877405
    Total Energy =                       -392.7496856623689041
  Basis Set: (AUG-CC-PVTZ AUX)
    Blend: AUG-CC-PVTZ-RI
    Molecular point group: c1

    Geometry (in Angstrom), charge = 0, multiplicity = 1:

       Center              X                  Y                   Z               Mass
    ------------   -----------------  -----------------  -----------------  -----------------
         O           -2.169545281000    -1.162914600258    -0.001214834902    15.994914619570
         N            0.090436719000    -0.903851600258    -0.001375834902    14.003074004430
         N            2.418392719000    -0.842896600258    -0.001880834902    14.003074004430
         N           -1.333421281000     1.007500399742    -0.001130834902    14.003074004430
         C            1.234529719000    -0.172249600258    -0.001479834902    12.000000000000
         C            1.102520719000     1.203302399742    -0.001437834902    12.000000000000
         C           -1.233959281000    -0.370489600258    -0.001194834902    12.000000000000
         C           -0.211814281000     1.706476399742    -0.001297834902    12.000000000000
         H            0.114549719000    -1.920127600258    -0.001568834902     1.007825032230
         H            1.966394719000     1.856471399742    -0.001510834902     1.007825032230
         H           -0.344034581000     2.789664899742     0.148863165098     1.007825032230
         H            3.287440719000    -0.332017600258    -0.000778834902     1.007825032230
         H            2.464093719000    -1.850259600258    -0.000342834902     1.007825032230

  Basis Set: AUG-CC-PVTZ
    Blend: AUG-CC-PVTZ
  Basis Set: (AUG-CC-PVTZ AUX)
    Blend: AUG-CC-PVTZ-JKFIT
	 Reference Energy          =    -392.7496856623689041 [Eh]
	 Singles Energy            =      -0.0000000000000000 [Eh]
	 Same-Spin Energy          =      -0.4069525344427296 [Eh]
	 Opposite-Spin Energy      =      -1.2142721338346250 [Eh]
	 Correlation Energy        =      -1.6212246682773546 [Eh]
	 Total Energy              =    -394.3709103306462680 [Eh]

	 ================> DF-SCS-MP2 Energies <==================
	-----------------------------------------------------------
	 SCS Same-Spin Scale       =       0.3333333333333333 [-]
	 SCS Opposite-Spin Scale   =       1.2000000000000000 [-]
	 SCS Same-Spin Energy      =      -0.1356508448142432 [Eh]
	 SCS Opposite-Spin Energy  =      -1.4571265606015500 [Eh]
	 SCS Correlation Energy    =      -1.5927774054157933 [Eh]
	 SCS Total Energy          =    -394.3424630677847063 [Eh]
	-----------------------------------------------------------

  Dipole Moment: [D]
     X:     8.1363      Y:    -0.8839      Z:     0.0639     Total:     8.1844

*** Psi4 exiting successfully. Buy a developer a beer!
