                               Psi4 1.3.2 release

  ==> Input File <==

--------------------------------------------------------------------------
#psi4
#
memory 32 gb

molecule  {
0 1
  O       -2.2334690    -1.1675340     0.0001340
  N        0.0265130    -0.9084710    -0.0000270
  N        2.3544690    -0.8475160    -0.0005320
  N       -1.3973450     1.0028810     0.0002180
  C        1.1706060    -0.1768690    -0.0001310
  C        1.0385970     1.1986830    -0.0000890
  C       -1.2978830    -0.3751090     0.0001540
  C       -0.2757380     1.7018570     0.0000510
  H        0.0506512    -1.9247733     0.1997800
  H        1.9024710     1.8518520    -0.0001620
  H       -0.4079780     2.7850560     0.0002120
  H        3.2235170    -0.3366370     0.0005700
  H        2.4001700    -1.8548790     0.0010060
units angstrom
no_reorient  #important for SAPT in psi4, default
symmetry c1  #important for SAPT in psi4, default
}

set PROPERTIES_ORIGIN ["COM"]
properties('MP2/aug-cc-pvtz', properties = ['dipole'])
--------------------------------------------------------------------------

    Molecular point group: c1
  Charge       = 0
  Multiplicity = 1
  Basis Set: AUG-CC-PVTZ
    Blend: AUG-CC-PVTZ
  Basis Set: (AUG-CC-PVTZ AUX)
    Blend: AUG-CC-PVTZ-JKFIT

    Orbital Energies [Eh]
    ---------------------

    Doubly Occupied:

       1A    -20.509431     2A    -15.632933     3A    -15.628829
       4A    -15.545693     5A    -11.383841     6A    -11.375535
       7A    -11.309030     8A    -11.232612     9A     -1.388183
      10A     -1.322824    11A     -1.242642    12A     -1.197657
      13A     -1.057178    14A     -0.908101    15A     -0.883149
      16A     -0.782381    17A     -0.751582    18A     -0.719951
      19A     -0.691070    20A     -0.641051    21A     -0.633596
      22A     -0.619080    23A     -0.568839    24A     -0.547729
      25A     -0.460304    26A     -0.447949    27A     -0.441813
      28A     -0.414899    29A     -0.325688

  @DF-RHF Final Energy:  -392.74926670910804

   => Energetics <=

    Nuclear Repulsion Energy =            355.0925200526454546
    One-Electron Energy =               -1238.3564379970080154
    Two-Electron Energy =                 490.5146512352545187
    Total Energy =                       -392.7492667091080421
  Basis Set: (AUG-CC-PVTZ AUX)
    Blend: AUG-CC-PVTZ-RI
    Molecular point group: c1

    Geometry (in Angstrom), charge = 0, multiplicity = 1:

       Center              X                  Y                   Z               Mass
    ------------   -----------------  -----------------  -----------------  -----------------
         O           -2.169545330917    -1.162914456858    -0.001668633276    15.994914619570
         N            0.090436669083    -0.903851456858    -0.001829633276    14.003074004430
         N            2.418392669083    -0.842896456858    -0.002334633276    14.003074004430
         N           -1.333421330917     1.007500543142    -0.001584633276    14.003074004430
         C            1.234529669083    -0.172249456858    -0.001933633276    12.000000000000
         C            1.102520669083     1.203302543142    -0.001891633276    12.000000000000
         C           -1.233959330917    -0.370489456858    -0.001648633276    12.000000000000
         C           -0.211814330917     1.706476543142    -0.001751633276    12.000000000000
         H            0.114574869083    -1.920153756858     0.197977366724     1.007825032230
         H            1.966394669083     1.856471543142    -0.001964633276     1.007825032230
         H           -0.344054330917     2.789675543142    -0.001590633276     1.007825032230
         H            3.287440669083    -0.332017456858    -0.001232633276     1.007825032230
         H            2.464093669083    -1.850259456858    -0.000796633276     1.007825032230

  Basis Set: AUG-CC-PVTZ
    Blend: AUG-CC-PVTZ
  Basis Set: (AUG-CC-PVTZ AUX)
    Blend: AUG-CC-PVTZ-JKFIT
	 Reference Energy          =    -392.7492667091080421 [Eh]
	 Singles Energy            =      -0.0000000000000000 [Eh]
	 Same-Spin Energy          =      -0.4070117846181178 [Eh]
	 Opposite-Spin Energy      =      -1.2144932005316487 [Eh]
	 Correlation Energy        =      -1.6215049851497665 [Eh]
	 Total Energy              =    -394.3707716942578259 [Eh]

	 ================> DF-SCS-MP2 Energies <==================
	-----------------------------------------------------------
	 SCS Same-Spin Scale       =       0.3333333333333333 [-]
	 SCS Opposite-Spin Scale   =       1.2000000000000000 [-]
	 SCS Same-Spin Energy      =      -0.1356705948727059 [Eh]
	 SCS Opposite-Spin Energy  =      -1.4573918406379784 [Eh]
	 SCS Correlation Energy    =      -1.5930624355106844 [Eh]
	 SCS Total Energy          =    -394.3423291446187022 [Eh]
	-----------------------------------------------------------

  Dipole Moment: [D]
     X:     8.1269      Y:    -0.8504      Z:     0.2566     Total:     8.1753

*** Psi4 exiting successfully. Buy a developer a beer!
