                               Psi4 1.3.2 release

  ==> Input File <==

--------------------------------------------------------------------------
#psi4
#
memory 32 gb

molecule  {
0 1
  O       -2.2334690    -1.1675340     0.0001340
  N        0.0265130    -0.9084710    -0.0000270
  N        2.3544690    -0.8475160    -0.0005320
  N       -1.3973450     1.0028810     0.0002180
  C        1.1706060    -0.1768690    -0.0001310
  C        1.0386408     1.1986679     0.1999110
  C       -1.2978830    -0.3751090     0.0001540
  C       -0.2757380     1.7018570     0.0000510
  H        0.0506260    -1.9247470    -0.0002200
  H        1.9024710     1.8518520    -0.0001620
  H       -0.4079780     2.7850560     0.0002120
  H        3.2235170    -0.3366370     0.0005700
  H        2.4001700    -1.8548790     0.0010060
units angstrom
no_reorient  #important for SAPT in psi4, default
symmetry c1  #important for SAPT in psi4, default
}

set PROPERTIES_ORIGIN ["COM"]
properties('MP2/aug-cc-pvtz', properties = ['dipole'])
--------------------------------------------------------------------------

    Molecular point group: c1
  Charge       = 0
  Multiplicity = 1
  Basis Set: AUG-CC-PVTZ
    Blend: AUG-CC-PVTZ
  Basis Set: (AUG-CC-PVTZ AUX)
    Blend: AUG-CC-PVTZ-JKFIT

    Orbital Energies [Eh]
    ---------------------

    Doubly Occupied:

       1A    -20.511436     2A    -15.633003     3A    -15.630148
       4A    -15.546685     5A    -11.386950     6A    -11.377185
       7A    -11.310743     8A    -11.235302     9A     -1.389998
      10A     -1.324110    11A     -1.243538    12A     -1.199724
      13A     -1.054033    14A     -0.907908    15A     -0.883965
      16A     -0.784030    17A     -0.751443    18A     -0.722493
      19A     -0.690432    20A     -0.639530    21A     -0.632499
      22A     -0.615527    23A     -0.566768    24A     -0.546830
      25A     -0.461413    26A     -0.447531    27A     -0.442678
      28A     -0.414879    29A     -0.327062

  @DF-RHF Final Energy:  -392.74260753177305

   => Energetics <=

    Nuclear Repulsion Energy =            354.7332001106081520
    One-Electron Energy =               -1237.5959262887165551
    Two-Electron Energy =                 490.1201186463354134
    Total Energy =                       -392.7426075317730465
  Basis Set: (AUG-CC-PVTZ AUX)
    Blend: AUG-CC-PVTZ-RI
    Molecular point group: c1

    Geometry (in Angstrom), charge = 0, multiplicity = 1:

       Center              X                  Y                   Z               Mass
    ------------   -----------------  -----------------  -----------------  -----------------
         O           -2.169549835493    -1.162913063759    -0.021466637748    15.994914619570
         N            0.090432164507    -0.903850063759    -0.021627637748    14.003074004430
         N            2.418388164507    -0.842895063759    -0.022132637748    14.003074004430
         N           -1.333425835493     1.007501936241    -0.021382637748    14.003074004430
         C            1.234525164507    -0.172248063759    -0.021731637748    12.000000000000
         C            1.102559964507     1.203288836241     0.178310362252    12.000000000000
         C           -1.233963835493    -0.370488063759    -0.021446637748    12.000000000000
         C           -0.211818835493     1.706477936241    -0.021549637748    12.000000000000
         H            0.114545164507    -1.920126063759    -0.021820637748     1.007825032230
         H            1.966390164507     1.856472936241    -0.021762637748     1.007825032230
         H           -0.344058835493     2.789676936241    -0.021388637748     1.007825032230
         H            3.287436164507    -0.332016063759    -0.021030637748     1.007825032230
         H            2.464089164507    -1.850258063759    -0.020594637748     1.007825032230

  Basis Set: AUG-CC-PVTZ
    Blend: AUG-CC-PVTZ
  Basis Set: (AUG-CC-PVTZ AUX)
    Blend: AUG-CC-PVTZ-JKFIT
	 Reference Energy          =    -392.7426075317730465 [Eh]
	 Singles Energy            =      -0.0000000000000000 [Eh]
	 Same-Spin Energy          =      -0.4069450330714356 [Eh]
	 Opposite-Spin Energy      =      -1.2147192303313439 [Eh]
	 Correlation Energy        =      -1.6216642634027796 [Eh]
	 Total Energy              =    -394.3642717951758527 [Eh]

	 ================> DF-SCS-MP2 Energies <==================
	-----------------------------------------------------------
	 SCS Same-Spin Scale       =       0.3333333333333333 [-]
	 SCS Opposite-Spin Scale   =       1.2000000000000000 [-]
	 SCS Same-Spin Energy      =      -0.1356483443571452 [Eh]
	 SCS Opposite-Spin Energy  =      -1.4576630763976126 [Eh]
	 SCS Correlation Energy    =      -1.5933114207547578 [Eh]
	 SCS Total Energy          =    -394.3359189525277770 [Eh]
	-----------------------------------------------------------

  Dipole Moment: [D]
     X:     8.0338      Y:    -0.9677      Z:    -0.2116     Total:     8.0946

*** Psi4 exiting successfully. Buy a developer a beer!
