                               Psi4 1.3.2 release

  ==> Input File <==

--------------------------------------------------------------------------
#psi4
#
memory 32 gb

molecule  {
0 1
  O       -2.2334690    -1.1675340     0.0001340
  N        0.0265130    -0.9084710    -0.0000270
  N        2.3544690    -0.8475160    -0.0005320
  N       -1.3973331     1.0028706     0.1502180
  C        1.1706060    -0.1768690    -0.0001310
  C        1.0385970     1.1986830    -0.0000890
  C       -1.2978830    -0.3751090     0.0001540
  C       -0.2757380     1.7018570     0.0000510
  H        0.0506260    -1.9247470    -0.0002200
  H        1.9024710     1.8518520    -0.0001620
  H       -0.4079780     2.7850560     0.0002120
  H        3.2235170    -0.3366370     0.0005700
  H        2.4001700    -1.8548790     0.0010060
units angstrom
no_reorient  #important for SAPT in psi4, default
symmetry c1  #important for SAPT in psi4, default
}

set PROPERTIES_ORIGIN ["COM"]
properties('MP2/aug-cc-pvtz', properties = ['dipole'])
--------------------------------------------------------------------------

    Molecular point group: c1
  Charge       = 0
  Multiplicity = 1
  Basis Set: AUG-CC-PVTZ
    Blend: AUG-CC-PVTZ
  Basis Set: (AUG-CC-PVTZ AUX)
    Blend: AUG-CC-PVTZ-JKFIT

    Orbital Energies [Eh]
    ---------------------

    Doubly Occupied:

       1A    -20.509964     2A    -15.632244     3A    -15.629255
       4A    -15.546665     5A    -11.384416     6A    -11.376204
       7A    -11.309804     8A    -11.232969     9A     -1.388410
      10A     -1.323549    11A     -1.241230    12A     -1.196850
      13A     -1.057326    14A     -0.908428    15A     -0.882460
      16A     -0.784316    17A     -0.751372    18A     -0.722354
      19A     -0.689989    20A     -0.638583    21A     -0.635658
      22A     -0.620331    23A     -0.568934    24A     -0.547277
      25A     -0.460363    26A     -0.448534    27A     -0.440843
      28A     -0.414295    29A     -0.325100

  @DF-RHF Final Energy:  -392.74688244063628

   => Energetics <=

    Nuclear Repulsion Energy =            354.9030198895609374
    One-Electron Energy =               -1237.9643593005764615
    Two-Electron Energy =                 490.3144569703792399
    Total Energy =                       -392.7468824406362842
  Basis Set: (AUG-CC-PVTZ AUX)
    Blend: AUG-CC-PVTZ-RI
    Molecular point group: c1

    Geometry (in Angstrom), charge = 0, multiplicity = 1:

       Center              X                  Y                   Z               Mass
    ------------   -----------------  -----------------  -----------------  -----------------
         O           -2.169546602849    -1.162913384067    -0.018769140443    15.994914619570
         N            0.090435397151    -0.903850384067    -0.018930140443    14.003074004430
         N            2.418391397151    -0.842895384067    -0.019435140443    14.003074004430
         N           -1.333410702849     1.007491215933     0.131314859557    14.003074004430
         C            1.234528397151    -0.172248384067    -0.019034140443    12.000000000000
         C            1.102519397151     1.203303615933    -0.018992140443    12.000000000000
         C           -1.233960602849    -0.370488384067    -0.018749140443    12.000000000000
         C           -0.211815602849     1.706477615933    -0.018852140443    12.000000000000
         H            0.114548397151    -1.920126384067    -0.019123140443     1.007825032230
         H            1.966393397151     1.856472615933    -0.019065140443     1.007825032230
         H           -0.344055602849     2.789676615933    -0.018691140443     1.007825032230
         H            3.287439397151    -0.332016384067    -0.018333140443     1.007825032230
         H            2.464092397151    -1.850258384067    -0.017897140443     1.007825032230

  Basis Set: AUG-CC-PVTZ
    Blend: AUG-CC-PVTZ
  Basis Set: (AUG-CC-PVTZ AUX)
    Blend: AUG-CC-PVTZ-JKFIT
	 Reference Energy          =    -392.7468824406362842 [Eh]
	 Singles Energy            =      -0.0000000000000000 [Eh]
	 Same-Spin Energy          =      -0.4070851266187064 [Eh]
	 Opposite-Spin Energy      =      -1.2147722896316739 [Eh]
	 Correlation Energy        =      -1.6218574162503803 [Eh]
	 Total Energy              =    -394.3687398568866911 [Eh]

	 ================> DF-SCS-MP2 Energies <==================
	-----------------------------------------------------------
	 SCS Same-Spin Scale       =       0.3333333333333333 [-]
	 SCS Opposite-Spin Scale   =       1.2000000000000000 [-]
	 SCS Same-Spin Energy      =      -0.1356950422062355 [Eh]
	 SCS Opposite-Spin Energy  =      -1.4577267475580087 [Eh]
	 SCS Correlation Energy    =      -1.5934217897642442 [Eh]
	 SCS Total Energy          =    -394.3403042304005339 [Eh]
	-----------------------------------------------------------

  Dipole Moment: [D]
     X:     8.1384      Y:    -0.8889      Z:    -0.1919     Total:     8.1891

*** Psi4 exiting successfully. Buy a developer a beer!
