                               Psi4 1.3.2 release

  ==> Input File <==

--------------------------------------------------------------------------
#psi4
#
memory 32 gb

molecule  {
0 1
  O       -2.2334690    -1.1675340     0.0001340
  N        0.0265130    -0.9084710    -0.0000270
  N        2.3544690    -0.8475160    -0.0005320
  N       -1.3973450     1.0028810     0.0002180
  C        1.1706060    -0.1768690    -0.0001310
  C        1.0385970     1.1986830    -0.0000890
  C       -1.2978830    -0.3751090     0.0001540
  C       -0.2757380     1.7018570     0.0000510
  H        0.0506260    -1.9247470    -0.0002200
  H        1.9024512     1.8518561    -0.2001620
  H       -0.4079780     2.7850560     0.0002120
  H        3.2235170    -0.3366370     0.0005700
  H        2.4001700    -1.8548790     0.0010060
units angstrom
no_reorient  #important for SAPT in psi4, default
symmetry c1  #important for SAPT in psi4, default
}

set PROPERTIES_ORIGIN ["COM"]
properties('MP2/aug-cc-pvtz', properties = ['dipole'])
--------------------------------------------------------------------------

    Molecular point group: c1
  Charge       = 0
  Multiplicity = 1
  Basis Set: AUG-CC-PVTZ
    Blend: AUG-CC-PVTZ
  Basis Set: (AUG-CC-PVTZ AUX)
    Blend: AUG-CC-PVTZ-JKFIT

    Orbital Energies [Eh]
    ---------------------

    Doubly Occupied:

       1A    -20.509747     2A    -15.632362     3A    -15.629190
       4A    -15.545978     5A    -11.384535     6A    -11.376017
       7A    -11.309041     8A    -11.233904     9A     -1.389026
      10A     -1.323604    11A     -1.243058    12A     -1.199214
      13A     -1.057086    14A     -0.909675    15A     -0.883335
      16A     -0.784364    17A     -0.751736    18A     -0.721940
      19A     -0.691435    20A     -0.640362    21A     -0.634469
      22A     -0.617812    23A     -0.568169    24A     -0.547860
      25A     -0.460163    26A     -0.447731    27A     -0.442179
      28A     -0.415565    29A     -0.325849

  @DF-RHF Final Energy:  -392.74932536333722

   => Energetics <=

    Nuclear Repulsion Energy =            355.1204892109236653
    One-Electron Energy =               -1238.3888190105133162
    Two-Electron Energy =                 490.5190044362524304
    Total Energy =                       -392.7493253633372206
  Basis Set: (AUG-CC-PVTZ AUX)
    Blend: AUG-CC-PVTZ-RI
    Molecular point group: c1

    Geometry (in Angstrom), charge = 0, multiplicity = 1:

       Center              X                  Y                   Z               Mass
    ------------   -----------------  -----------------  -----------------  -----------------
         O           -2.169544922499    -1.162914732767     0.001961753714    15.994914619570
         N            0.090437077501    -0.903851732767     0.001800753714    14.003074004430
         N            2.418393077501    -0.842896732767     0.001295753714    14.003074004430
         N           -1.333420922499     1.007500267233     0.002045753714    14.003074004430
         C            1.234530077501    -0.172249732767     0.001696753714    12.000000000000
         C            1.102521077501     1.203302267233     0.001738753714    12.000000000000
         C           -1.233958922499    -0.370489732767     0.001981753714    12.000000000000
         C           -0.211813922499     1.706476267233     0.001878753714    12.000000000000
         H            0.114550077501    -1.920127732767     0.001607753714     1.007825032230
         H            1.966375277501     1.856475367233    -0.198334246286     1.007825032230
         H           -0.344053922499     2.789675267233     0.002039753714     1.007825032230
         H            3.287441077501    -0.332017732767     0.002397753714     1.007825032230
         H            2.464094077501    -1.850259732767     0.002833753714     1.007825032230

  Basis Set: AUG-CC-PVTZ
    Blend: AUG-CC-PVTZ
  Basis Set: (AUG-CC-PVTZ AUX)
    Blend: AUG-CC-PVTZ-JKFIT
	 Reference Energy          =    -392.7493253633372206 [Eh]
	 Singles Energy            =      -0.0000000000000000 [Eh]
	 Same-Spin Energy          =      -0.4068915340126656 [Eh]
	 Opposite-Spin Energy      =      -1.2141736570557820 [Eh]
	 Correlation Energy        =      -1.6210651910684475 [Eh]
	 Total Energy              =    -394.3703905544056738 [Eh]

	 ================> DF-SCS-MP2 Energies <==================
	-----------------------------------------------------------
	 SCS Same-Spin Scale       =       0.3333333333333333 [-]
	 SCS Opposite-Spin Scale   =       1.2000000000000000 [-]
	 SCS Same-Spin Energy      =      -0.1356305113375552 [Eh]
	 SCS Opposite-Spin Energy  =      -1.4570083884669383 [Eh]
	 SCS Correlation Energy    =      -1.5926388998044936 [Eh]
	 SCS Total Energy          =    -394.3419642631417332 [Eh]
	-----------------------------------------------------------

  Dipole Moment: [D]
     X:     8.1045      Y:    -0.8993      Z:    -0.1637     Total:     8.1559

*** Psi4 exiting successfully. Buy a developer a beer!
