                               Psi4 1.3.2 release

  ==> Input File <==

--------------------------------------------------------------------------
#psi4
#
memory 32 gb

molecule  {
0 1
  O       -2.2334690    -1.1675340     0.0001340
  N        0.0265130    -0.9084710    -0.0000270
  N        2.3544690    -0.8475160    -0.0005320
  N       -1.3973450     1.0028810     0.0002180
  C        1.1706060    -0.1768690    -0.0001310
  C        1.0385970     1.1986830    -0.0000890
  C       -1.2978830    -0.3751090     0.0001540
  C       -0.2757380     1.7018570     0.0000510
  H        0.0506260    -1.9247470    -0.0002200
  H        1.9024710     1.8518520    -0.0001620
  H       -0.4079780     2.7850560     0.0002120
  H        3.2235170    -0.3366370     0.0005700
  H        2.4002465    -1.8549923    -0.2489940
units angstrom
no_reorient  #important for SAPT in psi4, default
symmetry c1  #important for SAPT in psi4, default
}

set PROPERTIES_ORIGIN ["COM"]
properties('MP2/aug-cc-pvtz', properties = ['dipole'])
--------------------------------------------------------------------------

    Molecular point group: c1
  Charge       = 0
  Multiplicity = 1
  Basis Set: AUG-CC-PVTZ
    Blend: AUG-CC-PVTZ
  Basis Set: (AUG-CC-PVTZ AUX)
    Blend: AUG-CC-PVTZ-JKFIT

    Orbital Energies [Eh]
    ---------------------

    Doubly Occupied:

       1A    -20.509402     2A    -15.632016     3A    -15.630779
       4A    -15.546236     5A    -11.383626     6A    -11.375790
       7A    -11.309138     8A    -11.233008     9A     -1.388676
      10A     -1.322201    11A     -1.241409    12A     -1.198416
      13A     -1.056766    14A     -0.908352    15A     -0.883355
      16A     -0.778756    17A     -0.751218    18A     -0.721739
      19A     -0.688923    20A     -0.639978    21A     -0.634063
      22A     -0.620277    23A     -0.569729    24A     -0.546642
      25A     -0.460371    26A     -0.447902    27A     -0.442175
      28A     -0.415635    29A     -0.326082

  @DF-RHF Final Energy:  -392.74943612676600

   => Energetics <=

    Nuclear Repulsion Energy =            355.0549504455170222
    One-Electron Energy =               -1238.2834544022532555
    Two-Electron Energy =                 490.4790678299701767
    Total Energy =                       -392.7494361267659997
  Basis Set: (AUG-CC-PVTZ AUX)
    Blend: AUG-CC-PVTZ-RI
    Molecular point group: c1

    Geometry (in Angstrom), charge = 0, multiplicity = 1:

       Center              X                  Y                   Z               Mass
    ------------   -----------------  -----------------  -----------------  -----------------
         O           -2.169545796515    -1.162913667249     0.002415552087    15.994914619570
         N            0.090436203485    -0.903850667249     0.002254552087    14.003074004430
         N            2.418392203485    -0.842895667249     0.001749552087    14.003074004430
         N           -1.333421796515     1.007501332751     0.002499552087    14.003074004430
         C            1.234529203485    -0.172248667249     0.002150552087    12.000000000000
         C            1.102520203485     1.203303332751     0.002192552087    12.000000000000
         C           -1.233959796515    -0.370488667249     0.002435552087    12.000000000000
         C           -0.211814796515     1.706477332751     0.002332552087    12.000000000000
         H            0.114549203485    -1.920126667249     0.002061552087     1.007825032230
         H            1.966394203485     1.856472332751     0.002119552087     1.007825032230
         H           -0.344054796515     2.789676332751     0.002493552087     1.007825032230
         H            3.287440203485    -0.332016667249     0.002851552087     1.007825032230
         H            2.464169703485    -1.850371967249    -0.246712447913     1.007825032230

  Basis Set: AUG-CC-PVTZ
    Blend: AUG-CC-PVTZ
  Basis Set: (AUG-CC-PVTZ AUX)
    Blend: AUG-CC-PVTZ-JKFIT
	 Reference Energy          =    -392.7494361267659997 [Eh]
	 Singles Energy            =      -0.0000000000000000 [Eh]
	 Same-Spin Energy          =      -0.4070503580445524 [Eh]
	 Opposite-Spin Energy      =      -1.2146474594055328 [Eh]
	 Correlation Energy        =      -1.6216978174500851 [Eh]
	 Total Energy              =    -394.3711339442160693 [Eh]

	 ================> DF-SCS-MP2 Energies <==================
	-----------------------------------------------------------
	 SCS Same-Spin Scale       =       0.3333333333333333 [-]
	 SCS Opposite-Spin Scale   =       1.2000000000000000 [-]
	 SCS Same-Spin Energy      =      -0.1356834526815175 [Eh]
	 SCS Opposite-Spin Energy  =      -1.4575769512866392 [Eh]
	 SCS Correlation Energy    =      -1.5932604039681566 [Eh]
	 SCS Total Energy          =    -394.3426965307341447 [Eh]
	-----------------------------------------------------------

  Dipole Moment: [D]
     X:     8.0990      Y:    -0.8193      Z:    -0.3674     Total:     8.1486

*** Psi4 exiting successfully. Buy a developer a beer!
