                               Psi4 1.3.2 release

  ==> Input File <==

--------------------------------------------------------------------------
#psi4
#
memory 32 gb

molecule  {
0 1
  O       -2.2334690    -1.1675340     0.0001340
  N        0.0265130    -0.9084710    -0.0000270
  N        2.3544690    -0.8475160    -0.0005320
  N       -1.3973292     1.0028672     0.2002180
  C        1.1706060    -0.1768690    -0.0001310
  C        1.0385970     1.1986830    -0.0000890
  C       -1.2978830    -0.3751090     0.0001540
  C       -0.2757380     1.7018570     0.0000510
  H        0.0506260    -1.9247470    -0.0002200
  H        1.9024710     1.8518520    -0.0001620
  H       -0.4079780     2.7850560     0.0002120
  H        3.2235170    -0.3366370     0.0005700
  H        2.4001700    -1.8548790     0.0010060
units angstrom
no_reorient  #important for SAPT in psi4, default
symmetry c1  #important for SAPT in psi4, default
}

set PROPERTIES_ORIGIN ["COM"]
properties('MP2/aug-cc-pvtz', properties = ['dipole'])
--------------------------------------------------------------------------

    Molecular point group: c1
  Charge       = 0
  Multiplicity = 1
  Basis Set: AUG-CC-PVTZ
    Blend: AUG-CC-PVTZ
  Basis Set: (AUG-CC-PVTZ AUX)
    Blend: AUG-CC-PVTZ-JKFIT

    Orbital Energies [Eh]
    ---------------------

    Doubly Occupied:

       1A    -20.510501     2A    -15.632388     3A    -15.629457
       4A    -15.547427     5A    -11.384594     6A    -11.376616
       7A    -11.310506     8A    -11.233279     9A     -1.388229
      10A     -1.323707    11A     -1.240131    12A     -1.195079
      13A     -1.057131    14A     -0.907688    15A     -0.881635
      16A     -0.784277    17A     -0.750282    18A     -0.722636
      19A     -0.688938    20A     -0.638523    21A     -0.635005
      22A     -0.620426    23A     -0.568616    24A     -0.546857
      25A     -0.460616    26A     -0.448916    27A     -0.440183
      28A     -0.413490    29A     -0.324690

  @DF-RHF Final Energy:  -392.74338060838380

   => Energetics <=

    Nuclear Repulsion Energy =            354.6808993969361836
    One-Electron Energy =               -1237.5249176757313307
    Two-Electron Energy =                 490.1006376704113450
    Total Energy =                       -392.7433806083838022
  Basis Set: (AUG-CC-PVTZ AUX)
    Blend: AUG-CC-PVTZ-RI
    Molecular point group: c1

    Geometry (in Angstrom), charge = 0, multiplicity = 1:

       Center              X                  Y                   Z               Mass
    ------------   -----------------  -----------------  -----------------  -----------------
         O           -2.169547094657    -1.162912955311    -0.025074373997    15.994914619570
         N            0.090434905343    -0.903849955311    -0.025235373997    14.003074004430
         N            2.418390905343    -0.842894955311    -0.025740373997    14.003074004430
         N           -1.333407294657     1.007488244689     0.175009626003    14.003074004430
         C            1.234527905343    -0.172247955311    -0.025339373997    12.000000000000
         C            1.102518905343     1.203304044689    -0.025297373997    12.000000000000
         C           -1.233961094657    -0.370487955311    -0.025054373997    12.000000000000
         C           -0.211816094657     1.706478044689    -0.025157373997    12.000000000000
         H            0.114547905343    -1.920125955311    -0.025428373997     1.007825032230
         H            1.966392905343     1.856473044689    -0.025370373997     1.007825032230
         H           -0.344056094657     2.789677044689    -0.024996373997     1.007825032230
         H            3.287438905343    -0.332015955311    -0.024638373997     1.007825032230
         H            2.464091905343    -1.850257955311    -0.024202373997     1.007825032230

  Basis Set: AUG-CC-PVTZ
    Blend: AUG-CC-PVTZ
  Basis Set: (AUG-CC-PVTZ AUX)
    Blend: AUG-CC-PVTZ-JKFIT
	 Reference Energy          =    -392.7433806083838022 [Eh]
	 Singles Energy            =      -0.0000000000000000 [Eh]
	 Same-Spin Energy          =      -0.4072735803142498 [Eh]
	 Opposite-Spin Energy      =      -1.2153342927623485 [Eh]
	 Correlation Energy        =      -1.6226078730765983 [Eh]
	 Total Energy              =    -394.3659884814604197 [Eh]

	 ================> DF-SCS-MP2 Energies <==================
	-----------------------------------------------------------
	 SCS Same-Spin Scale       =       0.3333333333333333 [-]
	 SCS Opposite-Spin Scale   =       1.2000000000000000 [-]
	 SCS Same-Spin Energy      =      -0.1357578601047499 [Eh]
	 SCS Opposite-Spin Energy  =      -1.4584011513148181 [Eh]
	 SCS Correlation Energy    =      -1.5941590114195681 [Eh]
	 SCS Total Energy          =    -394.3375396198033513 [Eh]
	-----------------------------------------------------------

  Dipole Moment: [D]
     X:     8.1374      Y:    -0.9044      Z:    -0.2568     Total:     8.1915

*** Psi4 exiting successfully. Buy a developer a beer!
