                               Psi4 1.3.2 release

  ==> Input File <==

--------------------------------------------------------------------------
#psi4
#
memory 32 gb

molecule  {
0 1
  O       -2.2334690    -1.1675340     0.0001340
  N        0.0265130    -0.9084710    -0.0000270
  N        2.3544690    -0.8475160    -0.0005320
  N       -1.3973212     1.0028602     0.3002180
  C        1.1706060    -0.1768690    -0.0001310
  C        1.0385970     1.1986830    -0.0000890
  C       -1.2978830    -0.3751090     0.0001540
  C       -0.2757380     1.7018570     0.0000510
  H        0.0506260    -1.9247470    -0.0002200
  H        1.9024710     1.8518520    -0.0001620
  H       -0.4079780     2.7850560     0.0002120
  H        3.2235170    -0.3366370     0.0005700
  H        2.4001700    -1.8548790     0.0010060
units angstrom
no_reorient  #important for SAPT in psi4, default
symmetry c1  #important for SAPT in psi4, default
}

set PROPERTIES_ORIGIN ["COM"]
properties('MP2/aug-cc-pvtz', properties = ['dipole'])
--------------------------------------------------------------------------

    Molecular point group: c1
  Charge       = 0
  Multiplicity = 1
  Basis Set: AUG-CC-PVTZ
    Blend: AUG-CC-PVTZ
  Basis Set: (AUG-CC-PVTZ AUX)
    Blend: AUG-CC-PVTZ-JKFIT

    Orbital Energies [Eh]
    ---------------------

    Doubly Occupied:

       1A    -20.512016     2A    -15.632778     3A    -15.630038
       4A    -15.549545     5A    -11.385116     6A    -11.377728
       7A    -11.312404     8A    -11.234138     9A     -1.387789
      10A     -1.324156    11A     -1.237559    12A     -1.189557
      13A     -1.056528    14A     -0.906037    15A     -0.879257
      16A     -0.784238    17A     -0.747433    18A     -0.723457
      19A     -0.685754    20A     -0.638165    21A     -0.633518
      22A     -0.620642    23A     -0.567618    24A     -0.545711
      25A     -0.461719    26A     -0.449064    27A     -0.438745
      28A     -0.411223    29A     -0.323509

  @DF-RHF Final Energy:  -392.73307904062523

   => Energetics <=

    Nuclear Repulsion Energy =            354.0596721542020759
    One-Electron Energy =               -1236.2946182833356943
    Two-Electron Energy =                 489.5018670885083907
    Total Energy =                       -392.7330790406252277
  Basis Set: (AUG-CC-PVTZ AUX)
    Blend: AUG-CC-PVTZ-RI
    Molecular point group: c1

    Geometry (in Angstrom), charge = 0, multiplicity = 1:

       Center              X                  Y                   Z               Mass
    ------------   -----------------  -----------------  -----------------  -----------------
         O           -2.169548103494    -1.162912072578    -0.037684841106    15.994914619570
         N            0.090433896506    -0.903849072578    -0.037845841106    14.003074004430
         N            2.418389896506    -0.842894072578    -0.038350841106    14.003074004430
         N           -1.333400303494     1.007482127422     0.262399158894    14.003074004430
         C            1.234526896506    -0.172247072578    -0.037949841106    12.000000000000
         C            1.102517896506     1.203304927422    -0.037907841106    12.000000000000
         C           -1.233962103494    -0.370487072578    -0.037664841106    12.000000000000
         C           -0.211817103494     1.706478927422    -0.037767841106    12.000000000000
         H            0.114546896506    -1.920125072578    -0.038038841106     1.007825032230
         H            1.966391896506     1.856473927422    -0.037980841106     1.007825032230
         H           -0.344057103494     2.789677927422    -0.037606841106     1.007825032230
         H            3.287437896506    -0.332015072578    -0.037248841106     1.007825032230
         H            2.464090896506    -1.850257072578    -0.036812841106     1.007825032230

  Basis Set: AUG-CC-PVTZ
    Blend: AUG-CC-PVTZ
  Basis Set: (AUG-CC-PVTZ AUX)
    Blend: AUG-CC-PVTZ-JKFIT
	 Reference Energy          =    -392.7330790406252277 [Eh]
	 Singles Energy            =      -0.0000000000000000 [Eh]
	 Same-Spin Energy          =      -0.4078274085228842 [Eh]
	 Opposite-Spin Energy      =      -1.2170164683846358 [Eh]
	 Correlation Energy        =      -1.6248438769075202 [Eh]
	 Total Energy              =    -394.3579229175327328 [Eh]

	 ================> DF-SCS-MP2 Energies <==================
	-----------------------------------------------------------
	 SCS Same-Spin Scale       =       0.3333333333333333 [-]
	 SCS Opposite-Spin Scale   =       1.2000000000000000 [-]
	 SCS Same-Spin Energy      =      -0.1359424695076281 [Eh]
	 SCS Opposite-Spin Energy  =      -1.4604197620615629 [Eh]
	 SCS Correlation Energy    =      -1.5963622315691910 [Eh]
	 SCS Total Energy          =    -394.3294412721944013 [Eh]
	-----------------------------------------------------------

  Dipole Moment: [D]
     X:     8.1326      Y:    -0.9477      Z:    -0.3855     Total:     8.1967

*** Psi4 exiting successfully. Buy a developer a beer!
