                               Psi4 1.3.2 release

  ==> Input File <==

--------------------------------------------------------------------------
#psi4
#
memory 32 gb

molecule  {
0 1
  O       -2.2334690    -1.1675340     0.0001340
  N        0.0265130    -0.9084710    -0.0000270
  N        2.3544690    -0.8475160    -0.0005320
  N       -1.3973450     1.0028810     0.0002180
  C        1.1706060    -0.1768690    -0.0001310
  C        1.0385970     1.1986830    -0.0000890
  C       -1.2978830    -0.3751090     0.0001540
  C       -0.2757380     1.7018570     0.0000510
  H        0.0506260    -1.9247470    -0.0002200
  H        1.9024710     1.8518520    -0.0001620
  H       -0.4079780     2.7850560     0.0002120
  H        3.2235170    -0.3366370     0.0005700
  H        2.4002312    -1.8549696    -0.1989940
units angstrom
no_reorient  #important for SAPT in psi4, default
symmetry c1  #important for SAPT in psi4, default
}

set PROPERTIES_ORIGIN ["COM"]
properties('MP2/aug-cc-pvtz', properties = ['dipole'])
--------------------------------------------------------------------------

    Molecular point group: c1
  Charge       = 0
  Multiplicity = 1
  Basis Set: AUG-CC-PVTZ
    Blend: AUG-CC-PVTZ
  Basis Set: (AUG-CC-PVTZ AUX)
    Blend: AUG-CC-PVTZ-JKFIT

    Orbital Energies [Eh]
    ---------------------

    Doubly Occupied:

       1A    -20.509356     2A    -15.632032     3A    -15.630146
       4A    -15.546036     5A    -11.383822     6A    -11.375743
       7A    -11.309044     8A    -11.232849     9A     -1.388672
      10A     -1.322594    11A     -1.241891    12A     -1.198621
      13A     -1.057041    14A     -0.908750    15A     -0.883407
      16A     -0.780657    17A     -0.751836    18A     -0.721829
      19A     -0.689820    20A     -0.639636    21A     -0.634833
      22A     -0.620251    23A     -0.569591    24A     -0.547058
      25A     -0.460308    26A     -0.447781    27A     -0.442111
      28A     -0.415531    29A     -0.325920

  @DF-RHF Final Energy:  -392.75025673365178

   => Energetics <=

    Nuclear Repulsion Energy =            355.1034226001945626
    One-Electron Energy =               -1238.3730279279891420
    Two-Electron Energy =                 490.5193485941427980
    Total Energy =                       -392.7502567336517814
  Basis Set: (AUG-CC-PVTZ AUX)
    Blend: AUG-CC-PVTZ-RI
    Molecular point group: c1

    Geometry (in Angstrom), charge = 0, multiplicity = 1:

       Center              X                  Y                   Z               Mass
    ------------   -----------------  -----------------  -----------------  -----------------
         O           -2.169545657652    -1.162913873273     0.001961753714    15.994914619570
         N            0.090436342348    -0.903850873273     0.001800753714    14.003074004430
         N            2.418392342348    -0.842895873273     0.001295753714    14.003074004430
         N           -1.333421657652     1.007501126727     0.002045753714    14.003074004430
         C            1.234529342348    -0.172248873273     0.001696753714    12.000000000000
         C            1.102520342348     1.203303126727     0.001738753714    12.000000000000
         C           -1.233959657652    -0.370488873273     0.001981753714    12.000000000000
         C           -0.211814657652     1.706477126727     0.001878753714    12.000000000000
         H            0.114549342348    -1.920126873273     0.001607753714     1.007825032230
         H            1.966394342348     1.856472126727     0.001665753714     1.007825032230
         H           -0.344054657652     2.789676126727     0.002039753714     1.007825032230
         H            3.287440342348    -0.332016873273     0.002397753714     1.007825032230
         H            2.464154542348    -1.850349473273    -0.197166246286     1.007825032230

  Basis Set: AUG-CC-PVTZ
    Blend: AUG-CC-PVTZ
  Basis Set: (AUG-CC-PVTZ AUX)
    Blend: AUG-CC-PVTZ-JKFIT
	 Reference Energy          =    -392.7502567336517814 [Eh]
	 Singles Energy            =      -0.0000000000000000 [Eh]
	 Same-Spin Energy          =      -0.4069778143366058 [Eh]
	 Opposite-Spin Energy      =      -1.2144436548266038 [Eh]
	 Correlation Energy        =      -1.6214214691632096 [Eh]
	 Total Energy              =    -394.3716782028150192 [Eh]

	 ================> DF-SCS-MP2 Energies <==================
	-----------------------------------------------------------
	 SCS Same-Spin Scale       =       0.3333333333333333 [-]
	 SCS Opposite-Spin Scale   =       1.2000000000000000 [-]
	 SCS Same-Spin Energy      =      -0.1356592714455353 [Eh]
	 SCS Opposite-Spin Energy  =      -1.4573323857919245 [Eh]
	 SCS Correlation Energy    =      -1.5929916572374598 [Eh]
	 SCS Total Energy          =    -394.3432483908892436 [Eh]
	-----------------------------------------------------------

  Dipole Moment: [D]
     X:     8.1132      Y:    -0.8369      Z:    -0.2953     Total:     8.1616

*** Psi4 exiting successfully. Buy a developer a beer!
