                               Psi4 1.3.2 release

  ==> Input File <==

--------------------------------------------------------------------------
#psi4
#
memory 32 gb

molecule  {
0 1
  O       -2.2334690    -1.1675340     0.0001340
  N        0.0265130    -0.9084710    -0.0000270
  N        2.3544690    -0.8475160    -0.0005320
  N       -1.3973450     1.0028810     0.0002180
  C        1.1706060    -0.1768690    -0.0001310
  C        1.0386079     1.1986792     0.0499110
  C       -1.2978830    -0.3751090     0.0001540
  C       -0.2757380     1.7018570     0.0000510
  H        0.0506260    -1.9247470    -0.0002200
  H        1.9024710     1.8518520    -0.0001620
  H       -0.4079780     2.7850560     0.0002120
  H        3.2235170    -0.3366370     0.0005700
  H        2.4001700    -1.8548790     0.0010060
units angstrom
no_reorient  #important for SAPT in psi4, default
symmetry c1  #important for SAPT in psi4, default
}

set PROPERTIES_ORIGIN ["COM"]
properties('MP2/aug-cc-pvtz', properties = ['dipole'])
--------------------------------------------------------------------------

    Molecular point group: c1
  Charge       = 0
  Multiplicity = 1
  Basis Set: AUG-CC-PVTZ
    Blend: AUG-CC-PVTZ
  Basis Set: (AUG-CC-PVTZ AUX)
    Blend: AUG-CC-PVTZ-JKFIT

    Orbital Energies [Eh]
    ---------------------

    Doubly Occupied:

       1A    -20.509407     2A    -15.632114     3A    -15.629067
       4A    -15.545732     5A    -11.384367     6A    -11.375753
       7A    -11.308993     8A    -11.232732     9A     -1.388750
      10A     -1.323394    11A     -1.242856    12A     -1.199030
      13A     -1.057347    14A     -0.909424    15A     -0.883530
      16A     -0.784363    17A     -0.752740    18A     -0.722025
      19A     -0.691230    20A     -0.638634    21A     -0.636368
      22A     -0.619888    23A     -0.569174    24A     -0.547778
      25A     -0.460272    26A     -0.447545    27A     -0.442041
      28A     -0.415315    29A     -0.325710

  @DF-RHF Final Energy:  -392.75076165639524

   => Energetics <=

    Nuclear Repulsion Energy =            355.1633128734303568
    One-Electron Energy =               -1238.4769945352563809
    Two-Electron Energy =                 490.5629200054307262
    Total Energy =                       -392.7507616563952411
  Basis Set: (AUG-CC-PVTZ AUX)
    Blend: AUG-CC-PVTZ-RI
    Molecular point group: c1

    Geometry (in Angstrom), charge = 0, multiplicity = 1:

       Center              X                  Y                   Z               Mass
    ------------   -----------------  -----------------  -----------------  -----------------
         O           -2.169546280122    -1.162914284905    -0.005256739273    15.994914619570
         N            0.090435719878    -0.903851284905    -0.005417739273    14.003074004430
         N            2.418391719878    -0.842896284905    -0.005922739273    14.003074004430
         N           -1.333422280122     1.007500715095    -0.005172739273    14.003074004430
         C            1.234528719878    -0.172249284905    -0.005521739273    12.000000000000
         C            1.102530619878     1.203298915095     0.044520260727    12.000000000000
         C           -1.233960280122    -0.370489284905    -0.005236739273    12.000000000000
         C           -0.211815280122     1.706476715095    -0.005339739273    12.000000000000
         H            0.114548719878    -1.920127284905    -0.005610739273     1.007825032230
         H            1.966393719878     1.856471715095    -0.005552739273     1.007825032230
         H           -0.344055280122     2.789675715095    -0.005178739273     1.007825032230
         H            3.287439719878    -0.332017284905    -0.004820739273     1.007825032230
         H            2.464092719878    -1.850259284905    -0.004384739273     1.007825032230

  Basis Set: AUG-CC-PVTZ
    Blend: AUG-CC-PVTZ
  Basis Set: (AUG-CC-PVTZ AUX)
    Blend: AUG-CC-PVTZ-JKFIT
	 Reference Energy          =    -392.7507616563952411 [Eh]
	 Singles Energy            =      -0.0000000000000000 [Eh]
	 Same-Spin Energy          =      -0.4068537352136128 [Eh]
	 Opposite-Spin Energy      =      -1.2141000939947684 [Eh]
	 Correlation Energy        =      -1.6209538292083812 [Eh]
	 Total Energy              =    -394.3717154856036018 [Eh]

	 ================> DF-SCS-MP2 Energies <==================
	-----------------------------------------------------------
	 SCS Same-Spin Scale       =       0.3333333333333333 [-]
	 SCS Opposite-Spin Scale   =       1.2000000000000000 [-]
	 SCS Same-Spin Energy      =      -0.1356179117378709 [Eh]
	 SCS Opposite-Spin Energy  =      -1.4569201127937219 [Eh]
	 SCS Correlation Energy    =      -1.5925380245315928 [Eh]
	 SCS Total Energy          =    -394.3432996809268616 [Eh]
	-----------------------------------------------------------

  Dipole Moment: [D]
     X:     8.1324      Y:    -0.8750      Z:    -0.0490     Total:     8.1795

*** Psi4 exiting successfully. Buy a developer a beer!
