                               Psi4 1.3.2 release

  ==> Input File <==

--------------------------------------------------------------------------
#psi4
#
memory 32 gb

molecule  {
0 1
  O       -2.2334690    -1.1675340     0.0001340
  N        0.0265130    -0.9084710    -0.0000270
  N        2.3544690    -0.8475160    -0.0005320
  N       -1.3973450     1.0028810     0.0002180
  C        1.1706060    -0.1768690    -0.0001310
  C        1.0385970     1.1986830    -0.0000890
  C       -1.2978830    -0.3751090     0.0001540
  C       -0.2757380     1.7018570     0.0000510
  H        0.0506638    -1.9247865     0.2997800
  H        1.9024710     1.8518520    -0.0001620
  H       -0.4079780     2.7850560     0.0002120
  H        3.2235170    -0.3366370     0.0005700
  H        2.4001700    -1.8548790     0.0010060
units angstrom
no_reorient  #important for SAPT in psi4, default
symmetry c1  #important for SAPT in psi4, default
}

set PROPERTIES_ORIGIN ["COM"]
properties('MP2/aug-cc-pvtz', properties = ['dipole'])
--------------------------------------------------------------------------

    Molecular point group: c1
  Charge       = 0
  Multiplicity = 1
  Basis Set: AUG-CC-PVTZ
    Blend: AUG-CC-PVTZ
  Basis Set: (AUG-CC-PVTZ AUX)
    Blend: AUG-CC-PVTZ-JKFIT

    Orbital Energies [Eh]
    ---------------------

    Doubly Occupied:

       1A    -20.509603     2A    -15.633971     3A    -15.628614
       4A    -15.545724     5A    -11.383437     6A    -11.375392
       7A    -11.309215     8A    -11.232674     9A     -1.387630
      10A     -1.322208    11A     -1.242449    12A     -1.196118
      13A     -1.056737    14A     -0.906524    15A     -0.882736
      16A     -0.780279    17A     -0.750131    18A     -0.717135
      19A     -0.690778    20A     -0.642294    21A     -0.631867
      22A     -0.617513    23A     -0.568180    24A     -0.547600
      25A     -0.460442    26A     -0.448327    27A     -0.441636
      28A     -0.414384    29A     -0.325760

  @DF-RHF Final Energy:  -392.74612206171406

   => Energetics <=

    Nuclear Repulsion Energy =            354.9733216406403926
    One-Electron Energy =               -1238.1401692533024743
    Two-Electron Energy =                 490.4207255509480206
    Total Energy =                       -392.7461220617140611
  Basis Set: (AUG-CC-PVTZ AUX)
    Blend: AUG-CC-PVTZ-RI
    Molecular point group: c1

    Geometry (in Angstrom), charge = 0, multiplicity = 1:

       Center              X                  Y                   Z               Mass
    ------------   -----------------  -----------------  -----------------  -----------------
         O           -2.169545445275    -1.162914337055    -0.002576230023    15.994914619570
         N            0.090436554725    -0.903851337055    -0.002737230023    14.003074004430
         N            2.418392554725    -0.842896337055    -0.003242230023    14.003074004430
         N           -1.333421445275     1.007500662945    -0.002492230023    14.003074004430
         C            1.234529554725    -0.172249337055    -0.002841230023    12.000000000000
         C            1.102520554725     1.203302662945    -0.002799230023    12.000000000000
         C           -1.233959445275    -0.370489337055    -0.002556230023    12.000000000000
         C           -0.211814445275     1.706476662945    -0.002659230023    12.000000000000
         H            0.114587354725    -1.920166837055     0.297069769977     1.007825032230
         H            1.966394554725     1.856471662945    -0.002872230023     1.007825032230
         H           -0.344054445275     2.789675662945    -0.002498230023     1.007825032230
         H            3.287440554725    -0.332017337055    -0.002140230023     1.007825032230
         H            2.464093554725    -1.850259337055    -0.001704230023     1.007825032230

  Basis Set: AUG-CC-PVTZ
    Blend: AUG-CC-PVTZ
  Basis Set: (AUG-CC-PVTZ AUX)
    Blend: AUG-CC-PVTZ-JKFIT
	 Reference Energy          =    -392.7461220617140611 [Eh]
	 Singles Energy            =      -0.0000000000000000 [Eh]
	 Same-Spin Energy          =      -0.4072129995834638 [Eh]
	 Opposite-Spin Energy      =      -1.2150108687747299 [Eh]
	 Correlation Energy        =      -1.6222238683581938 [Eh]
	 Total Energy              =    -394.3683459300722802 [Eh]

	 ================> DF-SCS-MP2 Energies <==================
	-----------------------------------------------------------
	 SCS Same-Spin Scale       =       0.3333333333333333 [-]
	 SCS Opposite-Spin Scale   =       1.2000000000000000 [-]
	 SCS Same-Spin Energy      =      -0.1357376665278213 [Eh]
	 SCS Opposite-Spin Energy  =      -1.4580130425296758 [Eh]
	 SCS Correlation Energy    =      -1.5937507090574972 [Eh]
	 SCS Total Energy          =    -394.3398727707715352 [Eh]
	-----------------------------------------------------------

  Dipole Moment: [D]
     X:     8.1123      Y:    -0.8284      Z:     0.3814     Total:     8.1634

*** Psi4 exiting successfully. Buy a developer a beer!
