                               Psi4 1.3.2 release

  ==> Input File <==

--------------------------------------------------------------------------
#psi4
#
memory 32 gb

molecule  {
0 1
  O       -2.2334690    -1.1675340     0.0001340
  N        0.0265130    -0.9084710    -0.0000270
  N        2.3544690    -0.8475160    -0.0005320
  N       -1.3973450     1.0028810     0.0002180
  C        1.1706060    -0.1768690    -0.0001310
  C        1.0385970     1.1986830    -0.0000890
  C       -1.2978830    -0.3751090     0.0001540
  C       -0.2757380     1.7018570     0.0000510
  H        0.0506260    -1.9247470    -0.0002200
  H        1.9024611     1.8518541    -0.1001620
  H       -0.4079780     2.7850560     0.0002120
  H        3.2235170    -0.3366370     0.0005700
  H        2.4001700    -1.8548790     0.0010060
units angstrom
no_reorient  #important for SAPT in psi4, default
symmetry c1  #important for SAPT in psi4, default
}

set PROPERTIES_ORIGIN ["COM"]
properties('MP2/aug-cc-pvtz', properties = ['dipole'])
--------------------------------------------------------------------------

    Molecular point group: c1
  Charge       = 0
  Multiplicity = 1
  Basis Set: AUG-CC-PVTZ
    Blend: AUG-CC-PVTZ
  Basis Set: (AUG-CC-PVTZ AUX)
    Blend: AUG-CC-PVTZ-JKFIT

    Orbital Energies [Eh]
    ---------------------

    Doubly Occupied:

       1A    -20.509391     2A    -15.632132     3A    -15.629045
       4A    -15.545747     5A    -11.384276     6A    -11.375747
       7A    -11.308913     8A    -11.232899     9A     -1.388757
      10A     -1.323411    11A     -1.242873    12A     -1.199041
      13A     -1.057443    14A     -0.909568    15A     -0.883455
      16A     -0.784381    17A     -0.752550    18A     -0.721981
      19A     -0.691322    20A     -0.639287    21A     -0.635793
      22A     -0.619616    23A     -0.569046    24A     -0.547841
      25A     -0.460185    26A     -0.447602    27A     -0.442043
      28A     -0.415395    29A     -0.325679

  @DF-RHF Final Energy:  -392.75083279389042

   => Energetics <=

    Nuclear Repulsion Energy =            355.1741685261069961
    One-Electron Energy =               -1238.4991595926458103
    Two-Electron Energy =                 490.5741582726483898
    Total Energy =                       -392.7508327938904245
  Basis Set: (AUG-CC-PVTZ AUX)
    Blend: AUG-CC-PVTZ-RI
    Molecular point group: c1

    Geometry (in Angstrom), charge = 0, multiplicity = 1:

       Center              X                  Y                   Z               Mass
    ------------   -----------------  -----------------  -----------------  -----------------
         O           -2.169545012351    -1.162914714615     0.001054156966    15.994914619570
         N            0.090436987649    -0.903851714615     0.000893156966    14.003074004430
         N            2.418392987649    -0.842896714615     0.000388156966    14.003074004430
         N           -1.333421012351     1.007500285385     0.001138156966    14.003074004430
         C            1.234529987649    -0.172249714615     0.000789156966    12.000000000000
         C            1.102520987649     1.203302285385     0.000831156966    12.000000000000
         C           -1.233959012351    -0.370489714615     0.001074156966    12.000000000000
         C           -0.211814012351     1.706476285385     0.000971156966    12.000000000000
         H            0.114549987649    -1.920127714615     0.000700156966     1.007825032230
         H            1.966385087649     1.856473385385    -0.099241843034     1.007825032230
         H           -0.344054012351     2.789675285385     0.001132156966     1.007825032230
         H            3.287440987649    -0.332017714615     0.001490156966     1.007825032230
         H            2.464093987649    -1.850259714615     0.001926156966     1.007825032230

  Basis Set: AUG-CC-PVTZ
    Blend: AUG-CC-PVTZ
  Basis Set: (AUG-CC-PVTZ AUX)
    Blend: AUG-CC-PVTZ-JKFIT
	 Reference Energy          =    -392.7508327938904245 [Eh]
	 Singles Energy            =      -0.0000000000000000 [Eh]
	 Same-Spin Energy          =      -0.4068589258837345 [Eh]
	 Opposite-Spin Energy      =      -1.2141033906523955 [Eh]
	 Correlation Energy        =      -1.6209623165361300 [Eh]
	 Total Energy              =    -394.3717951104265467 [Eh]

	 ================> DF-SCS-MP2 Energies <==================
	-----------------------------------------------------------
	 SCS Same-Spin Scale       =       0.3333333333333333 [-]
	 SCS Opposite-Spin Scale   =       1.2000000000000000 [-]
	 SCS Same-Spin Energy      =      -0.1356196419612448 [Eh]
	 SCS Opposite-Spin Energy  =      -1.4569240687828746 [Eh]
	 SCS Correlation Energy    =      -1.5925437107441194 [Eh]
	 SCS Total Energy          =    -394.3433765046345343 [Eh]
	-----------------------------------------------------------

  Dipole Moment: [D]
     X:     8.1303      Y:    -0.8765      Z:    -0.0811     Total:     8.1778

*** Psi4 exiting successfully. Buy a developer a beer!
