                               Psi4 1.3.2 release

  ==> Input File <==

--------------------------------------------------------------------------
#psi4
#
memory 32 gb

molecule  {
0 1
  O       -2.2334690    -1.1675340     0.0001340
  N        0.0265130    -0.9084710    -0.0000270
  N        2.3544690    -0.8475160    -0.0005320
  N       -1.3973450     1.0028810     0.0002180
  C        1.1706060    -0.1768690    -0.0001310
  C        1.0385970     1.1986830    -0.0000890
  C       -1.2978830    -0.3751090     0.0001540
  C       -0.2757380     1.7018570     0.0000510
  H        0.0506260    -1.9247470    -0.0002200
  H        1.9024412     1.8518582    -0.3001620
  H       -0.4079780     2.7850560     0.0002120
  H        3.2235170    -0.3366370     0.0005700
  H        2.4001700    -1.8548790     0.0010060
units angstrom
no_reorient  #important for SAPT in psi4, default
symmetry c1  #important for SAPT in psi4, default
}

set PROPERTIES_ORIGIN ["COM"]
properties('MP2/aug-cc-pvtz', properties = ['dipole'])
--------------------------------------------------------------------------

    Molecular point group: c1
  Charge       = 0
  Multiplicity = 1
  Basis Set: AUG-CC-PVTZ
    Blend: AUG-CC-PVTZ
  Basis Set: (AUG-CC-PVTZ AUX)
    Blend: AUG-CC-PVTZ-JKFIT

    Orbital Energies [Eh]
    ---------------------

    Doubly Occupied:

       1A    -20.510322     2A    -15.632739     3A    -15.629423
       4A    -15.546358     5A    -11.384967     6A    -11.376456
       7A    -11.309261     8A    -11.235547     9A     -1.389465
      10A     -1.323919    11A     -1.243360    12A     -1.199499
      13A     -1.056545    14A     -0.909860    15A     -0.883172
      16A     -0.784376    17A     -0.750538    18A     -0.721879
      19A     -0.691623    20A     -0.641245    21A     -0.633515
      22A     -0.614775    23A     -0.566518    24A     -0.547847
      25A     -0.460146    26A     -0.447926    27A     -0.442402
      28A     -0.415840    29A     -0.326134

  @DF-RHF Final Energy:  -392.74645583443805

   => Energetics <=

    Nuclear Repulsion Energy =            355.0342039446573494
    One-Electron Energy =               -1238.2100040652396729
    Two-Electron Energy =                 490.4293442861443282
    Total Energy =                       -392.7464558344380521
  Basis Set: (AUG-CC-PVTZ AUX)
    Blend: AUG-CC-PVTZ-RI
    Molecular point group: c1

    Geometry (in Angstrom), charge = 0, multiplicity = 1:

       Center              X                  Y                   Z               Mass
    ------------   -----------------  -----------------  -----------------  -----------------
         O           -2.169544831739    -1.162914751827     0.002869350461    15.994914619570
         N            0.090437168261    -0.903851751827     0.002708350461    14.003074004430
         N            2.418393168261    -0.842896751827     0.002203350461    14.003074004430
         N           -1.333420831739     1.007500248173     0.002953350461    14.003074004430
         C            1.234530168261    -0.172249751827     0.002604350461    12.000000000000
         C            1.102521168261     1.203302248173     0.002646350461    12.000000000000
         C           -1.233958831739    -0.370489751827     0.002889350461    12.000000000000
         C           -0.211813831739     1.706476248173     0.002786350461    12.000000000000
         H            0.114550168261    -1.920127751827     0.002515350461     1.007825032230
         H            1.966365368261     1.856477448173    -0.297426649539     1.007825032230
         H           -0.344053831739     2.789675248173     0.002947350461     1.007825032230
         H            3.287441168261    -0.332017751827     0.003305350461     1.007825032230
         H            2.464094168261    -1.850259751827     0.003741350461     1.007825032230

  Basis Set: AUG-CC-PVTZ
    Blend: AUG-CC-PVTZ
  Basis Set: (AUG-CC-PVTZ AUX)
    Blend: AUG-CC-PVTZ-JKFIT
	 Reference Energy          =    -392.7464558344380521 [Eh]
	 Singles Energy            =      -0.0000000000000000 [Eh]
	 Same-Spin Energy          =      -0.4069454767472940 [Eh]
	 Opposite-Spin Energy      =      -1.2143467127444516 [Eh]
	 Correlation Energy        =      -1.6212921894917456 [Eh]
	 Total Energy              =    -394.3677480239297779 [Eh]

	 ================> DF-SCS-MP2 Energies <==================
	-----------------------------------------------------------
	 SCS Same-Spin Scale       =       0.3333333333333333 [-]
	 SCS Opposite-Spin Scale   =       1.2000000000000000 [-]
	 SCS Same-Spin Energy      =      -0.1356484922490980 [Eh]
	 SCS Opposite-Spin Energy  =      -1.4572160552933420 [Eh]
	 SCS Correlation Energy    =      -1.5928645475424399 [Eh]
	 SCS Total Energy          =    -394.3393203819804853 [Eh]
	-----------------------------------------------------------

  Dipole Moment: [D]
     X:     8.0627      Y:    -0.9361      Z:    -0.2435     Total:     8.1205

*** Psi4 exiting successfully. Buy a developer a beer!
