                               Psi4 1.3.2 release

  ==> Input File <==

--------------------------------------------------------------------------
#psi4
#
memory 32 gb

molecule  {
0 1
  O       -2.2334690    -1.1675340     0.0001340
  N        0.0265130    -0.9084710    -0.0000270
  N        2.3544690    -0.8475160    -0.0005320
  N       -1.3973252     1.0028637     0.2502180
  C        1.1706060    -0.1768690    -0.0001310
  C        1.0385970     1.1986830    -0.0000890
  C       -1.2978830    -0.3751090     0.0001540
  C       -0.2757380     1.7018570     0.0000510
  H        0.0506260    -1.9247470    -0.0002200
  H        1.9024710     1.8518520    -0.0001620
  H       -0.4079780     2.7850560     0.0002120
  H        3.2235170    -0.3366370     0.0005700
  H        2.4001700    -1.8548790     0.0010060
units angstrom
no_reorient  #important for SAPT in psi4, default
symmetry c1  #important for SAPT in psi4, default
}

set PROPERTIES_ORIGIN ["COM"]
properties('MP2/aug-cc-pvtz', properties = ['dipole'])
--------------------------------------------------------------------------

    Molecular point group: c1
  Charge       = 0
  Multiplicity = 1
  Basis Set: AUG-CC-PVTZ
    Blend: AUG-CC-PVTZ
  Basis Set: (AUG-CC-PVTZ AUX)
    Blend: AUG-CC-PVTZ-JKFIT

    Orbital Energies [Eh]
    ---------------------

    Doubly Occupied:

       1A    -20.511186     2A    -15.632567     3A    -15.629717
       4A    -15.548391     5A    -11.384827     6A    -11.377129
       7A    -11.311380     8A    -11.233671     9A     -1.388018
      10A     -1.323909    11A     -1.238875    12A     -1.192673
      13A     -1.056868    14A     -0.906868    15A     -0.880564
      16A     -0.784247    17A     -0.748950    18A     -0.723003
      19A     -0.687535    20A     -0.638383    21A     -0.634280
      22A     -0.620534    23A     -0.568183    24A     -0.546332
      25A     -0.461060    26A     -0.449114    27A     -0.439480
      28A     -0.412464    29A     -0.324159

  @DF-RHF Final Energy:  -392.73879578130141

   => Energetics <=

    Nuclear Repulsion Energy =            354.3989353164947147
    One-Electron Energy =               -1236.9667291972832572
    Two-Electron Energy =                 489.8289980994870803
    Total Energy =                       -392.7387957813014054
  Basis Set: (AUG-CC-PVTZ AUX)
    Blend: AUG-CC-PVTZ-RI
    Molecular point group: c1

    Geometry (in Angstrom), charge = 0, multiplicity = 1:

       Center              X                  Y                   Z               Mass
    ------------   -----------------  -----------------  -----------------  -----------------
         O           -2.169547599076    -1.162912513945    -0.031379607552    15.994914619570
         N            0.090434400924    -0.903849513945    -0.031540607552    14.003074004430
         N            2.418390400924    -0.842894513945    -0.032045607552    14.003074004430
         N           -1.333403799076     1.007485186055     0.218704392448    14.003074004430
         C            1.234527400924    -0.172247513945    -0.031644607552    12.000000000000
         C            1.102518400924     1.203304486055    -0.031602607552    12.000000000000
         C           -1.233961599076    -0.370487513945    -0.031359607552    12.000000000000
         C           -0.211816599076     1.706478486055    -0.031462607552    12.000000000000
         H            0.114547400924    -1.920125513945    -0.031733607552     1.007825032230
         H            1.966392400924     1.856473486055    -0.031675607552     1.007825032230
         H           -0.344056599076     2.789677486055    -0.031301607552     1.007825032230
         H            3.287438400924    -0.332015513945    -0.030943607552     1.007825032230
         H            2.464091400924    -1.850257513945    -0.030507607552     1.007825032230

  Basis Set: AUG-CC-PVTZ
    Blend: AUG-CC-PVTZ
  Basis Set: (AUG-CC-PVTZ AUX)
    Blend: AUG-CC-PVTZ-JKFIT
	 Reference Energy          =    -392.7387957813014054 [Eh]
	 Singles Energy            =      -0.0000000000000000 [Eh]
	 Same-Spin Energy          =      -0.4075202864930085 [Eh]
	 Opposite-Spin Energy      =      -1.2160808624743029 [Eh]
	 Correlation Energy        =      -1.6236011489673114 [Eh]
	 Total Energy              =    -394.3623969302687442 [Eh]

	 ================> DF-SCS-MP2 Energies <==================
	-----------------------------------------------------------
	 SCS Same-Spin Scale       =       0.3333333333333333 [-]
	 SCS Opposite-Spin Scale   =       1.2000000000000000 [-]
	 SCS Same-Spin Energy      =      -0.1358400954976695 [Eh]
	 SCS Opposite-Spin Energy  =      -1.4592970349691634 [Eh]
	 SCS Correlation Energy    =      -1.5951371304668329 [Eh]
	 SCS Total Energy          =    -394.3339329117682155 [Eh]
	-----------------------------------------------------------

  Dipole Moment: [D]
     X:     8.1356      Y:    -0.9240      Z:    -0.3214     Total:     8.1942

*** Psi4 exiting successfully. Buy a developer a beer!
