                               Psi4 1.3.2 release

  ==> Input File <==

--------------------------------------------------------------------------
#psi4
#
memory 32 gb

molecule  {
0 1
  O       -2.2334690    -1.1675340     0.0001340
  N        0.0265130    -0.9084710    -0.0000270
  N        2.3544690    -0.8475160    -0.0005320
  N       -1.3973450     1.0028810     0.0002180
  C        1.1706060    -0.1768690    -0.0001310
  C        1.0385970     1.1986830    -0.0000890
  C       -1.2978830    -0.3751090     0.0001540
  C       -0.2757380     1.7018570     0.0000510
  H        0.0506260    -1.9247470    -0.0002200
  H        1.9024660     1.8518530    -0.0501620
  H       -0.4079780     2.7850560     0.0002120
  H        3.2235170    -0.3366370     0.0005700
  H        2.4001700    -1.8548790     0.0010060
units angstrom
no_reorient  #important for SAPT in psi4, default
symmetry c1  #important for SAPT in psi4, default
}

set PROPERTIES_ORIGIN ["COM"]
properties('MP2/aug-cc-pvtz', properties = ['dipole'])
--------------------------------------------------------------------------

    Molecular point group: c1
  Charge       = 0
  Multiplicity = 1
  Basis Set: AUG-CC-PVTZ
    Blend: AUG-CC-PVTZ
  Basis Set: (AUG-CC-PVTZ AUX)
    Blend: AUG-CC-PVTZ-JKFIT

    Orbital Energies [Eh]
    ---------------------

    Doubly Occupied:

       1A    -20.509301     2A    -15.632074     3A    -15.629008
       4A    -15.545689     5A    -11.384211     6A    -11.375679
       7A    -11.308882     8A    -11.232646     9A     -1.388689
      10A     -1.323363    11A     -1.242827    12A     -1.198998
      13A     -1.057536    14A     -0.909542    15A     -0.883489
      16A     -0.784389    17A     -0.752765    18A     -0.721992
      19A     -0.691294    20A     -0.638764    21A     -0.636414
      22A     -0.620052    23A     -0.569251    24A     -0.547834
      25A     -0.460192    26A     -0.447568    27A     -0.442009
      28A     -0.415352    29A     -0.325637

  @DF-RHF Final Energy:  -392.75118107214428

   => Energetics <=

    Nuclear Repulsion Energy =            355.1878254609516716
    One-Electron Energy =               -1238.5271132136440428
    Two-Electron Energy =                 490.5881066805480941
    Total Energy =                       -392.7511810721442771
  Basis Set: (AUG-CC-PVTZ AUX)
    Blend: AUG-CC-PVTZ-RI
    Molecular point group: c1

    Geometry (in Angstrom), charge = 0, multiplicity = 1:

       Center              X                  Y                   Z               Mass
    ------------   -----------------  -----------------  -----------------  -----------------
         O           -2.169545056823    -1.162914704632     0.000600358593    15.994914619570
         N            0.090436943177    -0.903851704632     0.000439358593    14.003074004430
         N            2.418392943177    -0.842896704632    -0.000065641407    14.003074004430
         N           -1.333421056823     1.007500295368     0.000684358593    14.003074004430
         C            1.234529943177    -0.172249704632     0.000335358593    12.000000000000
         C            1.102520943177     1.203302295368     0.000377358593    12.000000000000
         C           -1.233959056823    -0.370489704632     0.000620358593    12.000000000000
         C           -0.211814056823     1.706476295368     0.000517358593    12.000000000000
         H            0.114549943177    -1.920127704632     0.000246358593     1.007825032230
         H            1.966389943177     1.856472295368    -0.049695641407     1.007825032230
         H           -0.344054056823     2.789675295368     0.000678358593     1.007825032230
         H            3.287440943177    -0.332017704632     0.001036358593     1.007825032230
         H            2.464093943177    -1.850259704632     0.001472358593     1.007825032230

  Basis Set: AUG-CC-PVTZ
    Blend: AUG-CC-PVTZ
  Basis Set: (AUG-CC-PVTZ AUX)
    Blend: AUG-CC-PVTZ-JKFIT
	 Reference Energy          =    -392.7511810721442771 [Eh]
	 Singles Energy            =      -0.0000000000000000 [Eh]
	 Same-Spin Energy          =      -0.4068508267179988 [Eh]
	 Opposite-Spin Energy      =      -1.2140929137242096 [Eh]
	 Correlation Energy        =      -1.6209437404422085 [Eh]
	 Total Energy              =    -394.3721248125864918 [Eh]

	 ================> DF-SCS-MP2 Energies <==================
	-----------------------------------------------------------
	 SCS Same-Spin Scale       =       0.3333333333333333 [-]
	 SCS Opposite-Spin Scale   =       1.2000000000000000 [-]
	 SCS Same-Spin Energy      =      -0.1356169422393329 [Eh]
	 SCS Opposite-Spin Energy  =      -1.4569114964690515 [Eh]
	 SCS Correlation Energy    =      -1.5925284387083845 [Eh]
	 SCS Total Energy          =    -394.3437095108526478 [Eh]
	-----------------------------------------------------------

  Dipole Moment: [D]
     X:     8.1369      Y:    -0.8707      Z:    -0.0391     Total:     8.1834

*** Psi4 exiting successfully. Buy a developer a beer!
