                               Psi4 1.3.2 release

  ==> Input File <==

--------------------------------------------------------------------------
#psi4
#
memory 32 gb

molecule  {
0 1
  O       -2.2334690    -1.1675340     0.0001340
  N        0.0265130    -0.9084710    -0.0000270
  N        2.3544690    -0.8475160    -0.0005320
  N       -1.3973450     1.0028810     0.0002180
  C        1.1706060    -0.1768690    -0.0001310
  C        1.0386298     1.1986716     0.1499110
  C       -1.2978830    -0.3751090     0.0001540
  C       -0.2757380     1.7018570     0.0000510
  H        0.0506260    -1.9247470    -0.0002200
  H        1.9024710     1.8518520    -0.0001620
  H       -0.4079780     2.7850560     0.0002120
  H        3.2235170    -0.3366370     0.0005700
  H        2.4001700    -1.8548790     0.0010060
units angstrom
no_reorient  #important for SAPT in psi4, default
symmetry c1  #important for SAPT in psi4, default
}

set PROPERTIES_ORIGIN ["COM"]
properties('MP2/aug-cc-pvtz', properties = ['dipole'])
--------------------------------------------------------------------------

    Molecular point group: c1
  Charge       = 0
  Multiplicity = 1
  Basis Set: AUG-CC-PVTZ
    Blend: AUG-CC-PVTZ
  Basis Set: (AUG-CC-PVTZ AUX)
    Blend: AUG-CC-PVTZ-JKFIT

    Orbital Energies [Eh]
    ---------------------

    Doubly Occupied:

       1A    -20.510492     2A    -15.632587     3A    -15.629644
       4A    -15.546234     5A    -11.385766     6A    -11.376518
       7A    -11.309940     8A    -11.234101     9A     -1.389415
      10A     -1.323777    11A     -1.243218    12A     -1.199399
      13A     -1.055584    14A     -0.908587    15A     -0.883767
      16A     -0.784165    17A     -0.752010    18A     -0.722266
      19A     -0.690798    20A     -0.639214    21A     -0.634155
      22A     -0.617506    23A     -0.567940    24A     -0.547313
      25A     -0.460886    26A     -0.447503    27A     -0.442384
      28A     -0.415102    29A     -0.326418

  @DF-RHF Final Energy:  -392.74644969365886

   => Energetics <=

    Nuclear Repulsion Energy =            354.9325756587396654
    One-Electron Energy =               -1238.0046719691151793
    Two-Electron Energy =                 490.3256466167166536
    Total Energy =                       -392.7464496936588603
  Basis Set: (AUG-CC-PVTZ AUX)
    Blend: AUG-CC-PVTZ-RI
    Molecular point group: c1

    Geometry (in Angstrom), charge = 0, multiplicity = 1:

       Center              X                  Y                   Z               Mass
    ------------   -----------------  -----------------  -----------------  -----------------
         O           -2.169548646768    -1.162913463603    -0.016063338256    15.994914619570
         N            0.090433353232    -0.903850463603    -0.016224338256    14.003074004430
         N            2.418389353232    -0.842895463603    -0.016729338256    14.003074004430
         N           -1.333424646768     1.007501536397    -0.015979338256    14.003074004430
         C            1.234526353232    -0.172248463603    -0.016328338256    12.000000000000
         C            1.102550153232     1.203292136397     0.133713661744    12.000000000000
         C           -1.233962646768    -0.370488463603    -0.016043338256    12.000000000000
         C           -0.211817646768     1.706477536397    -0.016146338256    12.000000000000
         H            0.114546353232    -1.920126463603    -0.016417338256     1.007825032230
         H            1.966391353232     1.856472536397    -0.016359338256     1.007825032230
         H           -0.344057646768     2.789676536397    -0.015985338256     1.007825032230
         H            3.287437353232    -0.332016463603    -0.015627338256     1.007825032230
         H            2.464090353232    -1.850258463603    -0.015191338256     1.007825032230

  Basis Set: AUG-CC-PVTZ
    Blend: AUG-CC-PVTZ
  Basis Set: (AUG-CC-PVTZ AUX)
    Blend: AUG-CC-PVTZ-JKFIT
	 Reference Energy          =    -392.7464496936588603 [Eh]
	 Singles Energy            =      -0.0000000000000000 [Eh]
	 Same-Spin Energy          =      -0.4069016757704777 [Eh]
	 Opposite-Spin Energy      =      -1.2143741319034711 [Eh]
	 Correlation Energy        =      -1.6212758076739489 [Eh]
	 Total Energy              =    -394.3677255013328136 [Eh]

	 ================> DF-SCS-MP2 Energies <==================
	-----------------------------------------------------------
	 SCS Same-Spin Scale       =       0.3333333333333333 [-]
	 SCS Opposite-Spin Scale   =       1.2000000000000000 [-]
	 SCS Same-Spin Energy      =      -0.1356338919234926 [Eh]
	 SCS Opposite-Spin Energy  =      -1.4572489582841652 [Eh]
	 SCS Correlation Energy    =      -1.5928828502076577 [Eh]
	 SCS Total Energy          =    -394.3393325438665329 [Eh]
	-----------------------------------------------------------

  Dipole Moment: [D]
     X:     8.0796      Y:    -0.9246      Z:    -0.1557     Total:     8.1338

*** Psi4 exiting successfully. Buy a developer a beer!
