                               Psi4 1.3.2 release

  ==> Input File <==

--------------------------------------------------------------------------
#psi4
#
memory 32 gb

molecule  {
0 1
  O       -2.2334690    -1.1675340     0.0001340
  N        0.0265130    -0.9084710    -0.0000270
  N        2.3544690    -0.8475160    -0.0005320
  N       -1.3973450     1.0028810     0.0002180
  C        1.1706060    -0.1768690    -0.0001310
  C        1.0385970     1.1986830    -0.0000890
  C       -1.2978830    -0.3751090     0.0001540
  C       -0.2757380     1.7018570     0.0000510
  H        0.0506260    -1.9247470    -0.0002200
  H        1.9024462     1.8518571    -0.2501620
  H       -0.4079780     2.7850560     0.0002120
  H        3.2235170    -0.3366370     0.0005700
  H        2.4001700    -1.8548790     0.0010060
units angstrom
no_reorient  #important for SAPT in psi4, default
symmetry c1  #important for SAPT in psi4, default
}

set PROPERTIES_ORIGIN ["COM"]
properties('MP2/aug-cc-pvtz', properties = ['dipole'])
--------------------------------------------------------------------------

    Molecular point group: c1
  Charge       = 0
  Multiplicity = 1
  Basis Set: AUG-CC-PVTZ
    Blend: AUG-CC-PVTZ
  Basis Set: (AUG-CC-PVTZ AUX)
    Blend: AUG-CC-PVTZ-JKFIT

    Orbital Energies [Eh]
    ---------------------

    Doubly Occupied:

       1A    -20.510008     2A    -15.632532     3A    -15.629296
       4A    -15.546150     5A    -11.384730     6A    -11.376216
       7A    -11.309139     8A    -11.234649     9A     -1.389225
      10A     -1.323747    11A     -1.243194    12A     -1.199342
      13A     -1.056835    14A     -0.909757    15A     -0.883256
      16A     -0.784364    17A     -0.751173    18A     -0.721912
      19A     -0.691519    20A     -0.640830    21A     -0.633929
      22A     -0.616436    23A     -0.567455    24A     -0.547862
      25A     -0.460152    26A     -0.447822    27A     -0.442280
      28A     -0.415690    29A     -0.325977

  @DF-RHF Final Energy:  -392.74808503278695

   => Energetics <=

    Nuclear Repulsion Energy =            355.0811853574729184
    One-Electron Energy =               -1238.3075821540289780
    Two-Electron Energy =                 490.4783117637691134
    Total Energy =                       -392.7480850327869462
  Basis Set: (AUG-CC-PVTZ AUX)
    Blend: AUG-CC-PVTZ-RI
    Molecular point group: c1

    Geometry (in Angstrom), charge = 0, multiplicity = 1:

       Center              X                  Y                   Z               Mass
    ------------   -----------------  -----------------  -----------------  -----------------
         O           -2.169544877119    -1.162914741843     0.002415552087    15.994914619570
         N            0.090437122881    -0.903851741843     0.002254552087    14.003074004430
         N            2.418393122881    -0.842896741843     0.001749552087    14.003074004430
         N           -1.333420877119     1.007500258157     0.002499552087    14.003074004430
         C            1.234530122881    -0.172249741843     0.002150552087    12.000000000000
         C            1.102521122881     1.203302258157     0.002192552087    12.000000000000
         C           -1.233958877119    -0.370489741843     0.002435552087    12.000000000000
         C           -0.211813877119     1.706476258157     0.002332552087    12.000000000000
         H            0.114550122881    -1.920127741843     0.002061552087     1.007825032230
         H            1.966370322881     1.856476358157    -0.247880447913     1.007825032230
         H           -0.344053877119     2.789675258157     0.002493552087     1.007825032230
         H            3.287441122881    -0.332017741843     0.002851552087     1.007825032230
         H            2.464094122881    -1.850259741843     0.003287552087     1.007825032230

  Basis Set: AUG-CC-PVTZ
    Blend: AUG-CC-PVTZ
  Basis Set: (AUG-CC-PVTZ AUX)
    Blend: AUG-CC-PVTZ-JKFIT
	 Reference Energy          =    -392.7480850327869462 [Eh]
	 Singles Energy            =      -0.0000000000000000 [Eh]
	 Same-Spin Energy          =      -0.4069159263593036 [Eh]
	 Opposite-Spin Energy      =      -1.2142453856209268 [Eh]
	 Correlation Energy        =      -1.6211613119802304 [Eh]
	 Total Energy              =    -394.3692463447671912 [Eh]

	 ================> DF-SCS-MP2 Energies <==================
	-----------------------------------------------------------
	 SCS Same-Spin Scale       =       0.3333333333333333 [-]
	 SCS Opposite-Spin Scale   =       1.2000000000000000 [-]
	 SCS Same-Spin Energy      =      -0.1356386421197679 [Eh]
	 SCS Opposite-Spin Energy  =      -1.4570944627451121 [Eh]
	 SCS Correlation Energy    =      -1.5927331048648801 [Eh]
	 SCS Total Energy          =    -394.3408181376518087 [Eh]
	-----------------------------------------------------------

  Dipole Moment: [D]
     X:     8.0855      Y:    -0.9160      Z:    -0.2040     Total:     8.1398

*** Psi4 exiting successfully. Buy a developer a beer!
