                               Psi4 1.3.2 release

  ==> Input File <==

--------------------------------------------------------------------------
#psi4
#
memory 32 gb

molecule  {
0 1
  O       -2.2334690    -1.1675340     0.0001340
  N        0.0265130    -0.9084710    -0.0000270
  N        2.3544690    -0.8475160    -0.0005320
  N       -1.3973450     1.0028810     0.0002180
  C        1.1706060    -0.1768690    -0.0001310
  C        1.0385970     1.1986830    -0.0000890
  C       -1.2978830    -0.3751090     0.0001540
  C       -0.2757380     1.7018570     0.0000510
  H        0.0506260    -1.9247470    -0.0002200
  H        1.9024710     1.8518520    -0.0001620
  H       -0.4079780     2.7850560     0.0002120
  H        3.2235170    -0.3366370     0.0005700
  H        2.4002006    -1.8549243    -0.0989940
units angstrom
no_reorient  #important for SAPT in psi4, default
symmetry c1  #important for SAPT in psi4, default
}

set PROPERTIES_ORIGIN ["COM"]
properties('MP2/aug-cc-pvtz', properties = ['dipole'])
--------------------------------------------------------------------------

    Molecular point group: c1
  Charge       = 0
  Multiplicity = 1
  Basis Set: AUG-CC-PVTZ
    Blend: AUG-CC-PVTZ
  Basis Set: (AUG-CC-PVTZ AUX)
    Blend: AUG-CC-PVTZ-JKFIT

    Orbital Energies [Eh]
    ---------------------

    Doubly Occupied:

       1A    -20.509292     2A    -15.632049     3A    -15.629284
       4A    -15.545761     5A    -11.384096     6A    -11.375678
       7A    -11.308915     8A    -11.232633     9A     -1.388667
      10A     -1.323152    11A     -1.242574    12A     -1.198893
      13A     -1.057431    14A     -0.909330    15A     -0.883476
      16A     -0.783425    17A     -0.752601    18A     -0.721953
      19A     -0.690939    20A     -0.638927    21A     -0.636102
      22A     -0.620210    23A     -0.569390    24A     -0.547633
      25A     -0.460222    26A     -0.447613    27A     -0.442024
      28A     -0.415386    29A     -0.325697

  @DF-RHF Final Energy:  -392.75109014326034

   => Energetics <=

    Nuclear Repulsion Energy =            355.1699361684362088
    One-Electron Energy =               -1238.4953410113180325
    Two-Electron Energy =                 490.5743146996215387
    Total Energy =                       -392.7510901432603418
  Basis Set: (AUG-CC-PVTZ AUX)
    Blend: AUG-CC-PVTZ-RI
    Molecular point group: c1

    Geometry (in Angstrom), charge = 0, multiplicity = 1:

       Center              X                  Y                   Z               Mass
    ------------   -----------------  -----------------  -----------------  -----------------
         O           -2.169545379928    -1.162914284414     0.001054156966    15.994914619570
         N            0.090436620072    -0.903851284414     0.000893156966    14.003074004430
         N            2.418392620072    -0.842896284414     0.000388156966    14.003074004430
         N           -1.333421379928     1.007500715586     0.001138156966    14.003074004430
         C            1.234529620072    -0.172249284414     0.000789156966    12.000000000000
         C            1.102520620072     1.203302715586     0.000831156966    12.000000000000
         C           -1.233959379928    -0.370489284414     0.001074156966    12.000000000000
         C           -0.211814379928     1.706476715586     0.000971156966    12.000000000000
         H            0.114549620072    -1.920127284414     0.000700156966     1.007825032230
         H            1.966394620072     1.856471715586     0.000758156966     1.007825032230
         H           -0.344054379928     2.789675715586     0.001132156966     1.007825032230
         H            3.287440620072    -0.332017284414     0.001490156966     1.007825032230
         H            2.464124220072    -1.850304584414    -0.098073843034     1.007825032230

  Basis Set: AUG-CC-PVTZ
    Blend: AUG-CC-PVTZ
  Basis Set: (AUG-CC-PVTZ AUX)
    Blend: AUG-CC-PVTZ-JKFIT
	 Reference Energy          =    -392.7510901432603418 [Eh]
	 Singles Energy            =      -0.0000000000000000 [Eh]
	 Same-Spin Energy          =      -0.4068804265249888 [Eh]
	 Opposite-Spin Energy      =      -1.2141766387014195 [Eh]
	 Correlation Energy        =      -1.6210570652264082 [Eh]
	 Total Energy              =    -394.3721472084867514 [Eh]

	 ================> DF-SCS-MP2 Energies <==================
	-----------------------------------------------------------
	 SCS Same-Spin Scale       =       0.3333333333333333 [-]
	 SCS Opposite-Spin Scale   =       1.2000000000000000 [-]
	 SCS Same-Spin Energy      =      -0.1356268088416629 [Eh]
	 SCS Opposite-Spin Energy  =      -1.4570119664417034 [Eh]
	 SCS Correlation Energy    =      -1.5926387752833664 [Eh]
	 SCS Total Energy          =    -394.3437289185437180 [Eh]
	-----------------------------------------------------------

  Dipole Moment: [D]
     X:     8.1327      Y:    -0.8609      Z:    -0.1475     Total:     8.1794

*** Psi4 exiting successfully. Buy a developer a beer!
