                               Psi4 1.3.2 release

  ==> Input File <==

--------------------------------------------------------------------------
#psi4
#
memory 32 gb

molecule  {
0 1
  O       -2.2334690    -1.1675340     0.0001340
  N        0.0265130    -0.9084710    -0.0000270
  N        2.3544690    -0.8475160    -0.0005320
  N       -1.3973410     1.0028775     0.0502180
  C        1.1706060    -0.1768690    -0.0001310
  C        1.0385970     1.1986830    -0.0000890
  C       -1.2978830    -0.3751090     0.0001540
  C       -0.2757380     1.7018570     0.0000510
  H        0.0506260    -1.9247470    -0.0002200
  H        1.9024710     1.8518520    -0.0001620
  H       -0.4079780     2.7850560     0.0002120
  H        3.2235170    -0.3366370     0.0005700
  H        2.4001700    -1.8548790     0.0010060
units angstrom
no_reorient  #important for SAPT in psi4, default
symmetry c1  #important for SAPT in psi4, default
}

set PROPERTIES_ORIGIN ["COM"]
properties('MP2/aug-cc-pvtz', properties = ['dipole'])
--------------------------------------------------------------------------

    Molecular point group: c1
  Charge       = 0
  Multiplicity = 1
  Basis Set: AUG-CC-PVTZ
    Blend: AUG-CC-PVTZ
  Basis Set: (AUG-CC-PVTZ AUX)
    Blend: AUG-CC-PVTZ-JKFIT

    Orbital Energies [Eh]
    ---------------------

    Doubly Occupied:

       1A    -20.509348     2A    -15.632076     3A    -15.629025
       4A    -15.545781     5A    -11.384214     6A    -11.375718
       7A    -11.308978     8A    -11.232608     9A     -1.388637
      10A     -1.323369    11A     -1.242626    12A     -1.198755
      13A     -1.057541    14A     -0.909402    15A     -0.883386
      16A     -0.784382    17A     -0.752672    18A     -0.722035
      19A     -0.691144    20A     -0.638530    21A     -0.636572
      22A     -0.620211    23A     -0.569277    24A     -0.547769
      25A     -0.460203    26A     -0.447705    27A     -0.441839
      28A     -0.415222    29A     -0.325566

  @DF-RHF Final Energy:  -392.75080938139246

   => Energetics <=

    Nuclear Repulsion Energy =            355.1599974012172538
    One-Electron Energy =               -1238.4724288689160403
    Two-Electron Energy =                 490.5616220863063859
    Total Energy =                       -392.7508093813924575
  Basis Set: (AUG-CC-PVTZ AUX)
    Blend: AUG-CC-PVTZ-RI
    Molecular point group: c1

    Geometry (in Angstrom), charge = 0, multiplicity = 1:

       Center              X                  Y                   Z               Mass
    ------------   -----------------  -----------------  -----------------  -----------------
         O           -2.169545606622    -1.162914254189    -0.006158673335    15.994914619570
         N            0.090436393378    -0.903851254189    -0.006319673335    14.003074004430
         N            2.418392393378    -0.842896254189    -0.006824673335    14.003074004430
         N           -1.333417606622     1.007497245811     0.043925326665    14.003074004430
         C            1.234529393378    -0.172249254189    -0.006423673335    12.000000000000
         C            1.102520393378     1.203302745811    -0.006381673335    12.000000000000
         C           -1.233959606622    -0.370489254189    -0.006138673335    12.000000000000
         C           -0.211814606622     1.706476745811    -0.006241673335    12.000000000000
         H            0.114549393378    -1.920127254189    -0.006512673335     1.007825032230
         H            1.966394393378     1.856471745811    -0.006454673335     1.007825032230
         H           -0.344054606622     2.789675745811    -0.006080673335     1.007825032230
         H            3.287440393378    -0.332017254189    -0.005722673335     1.007825032230
         H            2.464093393378    -1.850259254189    -0.005286673335     1.007825032230

  Basis Set: AUG-CC-PVTZ
    Blend: AUG-CC-PVTZ
  Basis Set: (AUG-CC-PVTZ AUX)
    Blend: AUG-CC-PVTZ-JKFIT
	 Reference Energy          =    -392.7508093813924575 [Eh]
	 Singles Energy            =      -0.0000000000000000 [Eh]
	 Same-Spin Energy          =      -0.4068741693143212 [Eh]
	 Opposite-Spin Energy      =      -1.2141629101985225 [Eh]
	 Correlation Energy        =      -1.6210370795128437 [Eh]
	 Total Energy              =    -394.3718464609053171 [Eh]

	 ================> DF-SCS-MP2 Energies <==================
	-----------------------------------------------------------
	 SCS Same-Spin Scale       =       0.3333333333333333 [-]
	 SCS Opposite-Spin Scale   =       1.2000000000000000 [-]
	 SCS Same-Spin Energy      =      -0.1356247231047737 [Eh]
	 SCS Opposite-Spin Energy  =      -1.4569954922382269 [Eh]
	 SCS Correlation Energy    =      -1.5926202153430007 [Eh]
	 SCS Total Energy          =    -394.3434295967354615 [Eh]
	-----------------------------------------------------------

  Dipole Moment: [D]
     X:     8.1390      Y:    -0.8710      Z:    -0.0619     Total:     8.1857

*** Psi4 exiting successfully. Buy a developer a beer!
