                               Psi4 1.3.2 release

  ==> Input File <==

--------------------------------------------------------------------------
#psi4
#
memory 32 gb

molecule  {
0 1
  O       -2.2334690    -1.1675340     0.0001340
  N        0.0265130    -0.9084710    -0.0000270
  N        2.3544690    -0.8475160    -0.0005320
  N       -1.3973450     1.0028810     0.0002180
  C        1.1706060    -0.1768690    -0.0001310
  C        1.0385970     1.1986830    -0.0000890
  C       -1.2978830    -0.3751090     0.0001540
  C       -0.2757380     1.7018570     0.0000510
  H        0.0506449    -1.9247668     0.1497800
  H        1.9024710     1.8518520    -0.0001620
  H       -0.4079780     2.7850560     0.0002120
  H        3.2235170    -0.3366370     0.0005700
  H        2.4001700    -1.8548790     0.0010060
units angstrom
no_reorient  #important for SAPT in psi4, default
symmetry c1  #important for SAPT in psi4, default
}

set PROPERTIES_ORIGIN ["COM"]
properties('MP2/aug-cc-pvtz', properties = ['dipole'])
--------------------------------------------------------------------------

    Molecular point group: c1
  Charge       = 0
  Multiplicity = 1
  Basis Set: AUG-CC-PVTZ
    Blend: AUG-CC-PVTZ
  Basis Set: (AUG-CC-PVTZ AUX)
    Blend: AUG-CC-PVTZ-JKFIT

    Orbital Energies [Eh]
    ---------------------

    Doubly Occupied:

       1A    -20.509363     2A    -15.632554     3A    -15.628903
       4A    -15.545683     5A    -11.383991     6A    -11.375587
       7A    -11.308962     8A    -11.232590     9A     -1.388390
      10A     -1.323049    11A     -1.242714    12A     -1.198227
      13A     -1.057344    14A     -0.908708    15A     -0.883301
      16A     -0.783222    17A     -0.752123    18A     -0.720871
      19A     -0.691166    20A     -0.640340    21A     -0.634533
      22A     -0.619585    23A     -0.569053    24A     -0.547774
      25A     -0.460256    26A     -0.447789    27A     -0.441888
      28A     -0.415088    29A     -0.325660

  @DF-RHF Final Energy:  -392.75021342273340

   => Energetics <=

    Nuclear Repulsion Energy =            355.1357020612698534
    One-Electron Energy =               -1238.4344046408714348
    Two-Electron Energy =                 490.5484891568681860
    Total Energy =                       -392.7502134227333954
  Basis Set: (AUG-CC-PVTZ AUX)
    Blend: AUG-CC-PVTZ-RI
    Molecular point group: c1

    Geometry (in Angstrom), charge = 0, multiplicity = 1:

       Center              X                  Y                   Z               Mass
    ------------   -----------------  -----------------  -----------------  -----------------
         O           -2.169545273739    -1.162914515851    -0.001214834902    15.994914619570
         N            0.090436726261    -0.903851515851    -0.001375834902    14.003074004430
         N            2.418392726261    -0.842896515851    -0.001880834902    14.003074004430
         N           -1.333421273739     1.007500484149    -0.001130834902    14.003074004430
         C            1.234529726261    -0.172249515851    -0.001479834902    12.000000000000
         C            1.102520726261     1.203302484149    -0.001437834902    12.000000000000
         C           -1.233959273739    -0.370489515851    -0.001194834902    12.000000000000
         C           -0.211814273739     1.706476484149    -0.001297834902    12.000000000000
         H            0.114568626261    -1.920147315851     0.148431165098     1.007825032230
         H            1.966394726261     1.856471484149    -0.001510834902     1.007825032230
         H           -0.344054273739     2.789675484149    -0.001136834902     1.007825032230
         H            3.287440726261    -0.332017515851    -0.000778834902     1.007825032230
         H            2.464093726261    -1.850259515851    -0.000342834902     1.007825032230

  Basis Set: AUG-CC-PVTZ
    Blend: AUG-CC-PVTZ
  Basis Set: (AUG-CC-PVTZ AUX)
    Blend: AUG-CC-PVTZ-JKFIT
	 Reference Energy          =    -392.7502134227333954 [Eh]
	 Singles Energy            =      -0.0000000000000000 [Eh]
	 Same-Spin Energy          =      -0.4069404541757191 [Eh]
	 Opposite-Spin Energy      =      -1.2143151226982585 [Eh]
	 Correlation Energy        =      -1.6212555768739776 [Eh]
	 Total Energy              =    -394.3714689996073730 [Eh]

	 ================> DF-SCS-MP2 Energies <==================
	-----------------------------------------------------------
	 SCS Same-Spin Scale       =       0.3333333333333333 [-]
	 SCS Opposite-Spin Scale   =       1.2000000000000000 [-]
	 SCS Same-Spin Energy      =      -0.1356468180585730 [Eh]
	 SCS Opposite-Spin Energy  =      -1.4571781472379102 [Eh]
	 SCS Correlation Energy    =      -1.5928249652964832 [Eh]
	 SCS Total Energy          =    -394.3430383880298677 [Eh]
	-----------------------------------------------------------

  Dipole Moment: [D]
     X:     8.1322      Y:    -0.8584      Z:     0.1936     Total:     8.1796

*** Psi4 exiting successfully. Buy a developer a beer!
