                               Psi4 1.3.2 release

  ==> Input File <==

--------------------------------------------------------------------------
#psi4
#
memory 32 gb

molecule  {
0 1
  O       -2.2334690    -1.1675340     0.0001340
  N        0.0265130    -0.9084710    -0.0000270
  N        2.3544690    -0.8475160    -0.0005320
  N       -1.3973371     1.0028741     0.1002180
  C        1.1706060    -0.1768690    -0.0001310
  C        1.0385970     1.1986830    -0.0000890
  C       -1.2978830    -0.3751090     0.0001540
  C       -0.2757380     1.7018570     0.0000510
  H        0.0506260    -1.9247470    -0.0002200
  H        1.9024710     1.8518520    -0.0001620
  H       -0.4079780     2.7850560     0.0002120
  H        3.2235170    -0.3366370     0.0005700
  H        2.4001700    -1.8548790     0.0010060
units angstrom
no_reorient  #important for SAPT in psi4, default
symmetry c1  #important for SAPT in psi4, default
}

set PROPERTIES_ORIGIN ["COM"]
properties('MP2/aug-cc-pvtz', properties = ['dipole'])
--------------------------------------------------------------------------

    Molecular point group: c1
  Charge       = 0
  Multiplicity = 1
  Basis Set: AUG-CC-PVTZ
    Blend: AUG-CC-PVTZ
  Basis Set: (AUG-CC-PVTZ AUX)
    Blend: AUG-CC-PVTZ-JKFIT

    Orbital Energies [Eh]
    ---------------------

    Doubly Occupied:

       1A    -20.509579     2A    -15.632140     3A    -15.629111
       4A    -15.546114     5A    -11.384289     6A    -11.375902
       7A    -11.309291     8A    -11.232744     9A     -1.388549
      10A     -1.323437    11A     -1.242085    12A     -1.198056
      13A     -1.057462    14A     -0.909020    15A     -0.883041
      16A     -0.784355    17A     -0.752178    18A     -0.722154
      19A     -0.690717    20A     -0.638574    21A     -0.636199
      22A     -0.620257    23A     -0.569150    24A     -0.547583
      25A     -0.460245    26A     -0.448081    27A     -0.441421
      28A     -0.414874    29A     -0.325392

  @DF-RHF Final Energy:  -392.74934654560286

   => Energetics <=

    Nuclear Repulsion Energy =            355.0632242782940011
    One-Electron Energy =               -1238.2811433503682110
    Two-Electron Energy =                 490.4685725264713483
    Total Energy =                       -392.7493465456028616
  Basis Set: (AUG-CC-PVTZ AUX)
    Blend: AUG-CC-PVTZ-RI
    Molecular point group: c1

    Geometry (in Angstrom), charge = 0, multiplicity = 1:

       Center              X                  Y                   Z               Mass
    ------------   -----------------  -----------------  -----------------  -----------------
         O           -2.169546098430    -1.162913825433    -0.012463906889    15.994914619570
         N            0.090435901570    -0.903850825433    -0.012624906889    14.003074004430
         N            2.418391901570    -0.842895825433    -0.013129906889    14.003074004430
         N           -1.333414198430     1.007494274567     0.087620093111    14.003074004430
         C            1.234528901570    -0.172248825433    -0.012728906889    12.000000000000
         C            1.102519901570     1.203303174567    -0.012686906889    12.000000000000
         C           -1.233960098430    -0.370488825433    -0.012443906889    12.000000000000
         C           -0.211815098430     1.706477174567    -0.012546906889    12.000000000000
         H            0.114548901570    -1.920126825433    -0.012817906889     1.007825032230
         H            1.966393901570     1.856472174567    -0.012759906889     1.007825032230
         H           -0.344055098430     2.789676174567    -0.012385906889     1.007825032230
         H            3.287439901570    -0.332016825433    -0.012027906889     1.007825032230
         H            2.464092901570    -1.850258825433    -0.011591906889     1.007825032230

  Basis Set: AUG-CC-PVTZ
    Blend: AUG-CC-PVTZ
  Basis Set: (AUG-CC-PVTZ AUX)
    Blend: AUG-CC-PVTZ-JKFIT
	 Reference Energy          =    -392.7493465456028616 [Eh]
	 Singles Energy            =      -0.0000000000000000 [Eh]
	 Same-Spin Energy          =      -0.4069526689068516 [Eh]
	 Opposite-Spin Energy      =      -1.2143860345666257 [Eh]
	 Correlation Energy        =      -1.6213387034734774 [Eh]
	 Total Energy              =    -394.3706852490763595 [Eh]

	 ================> DF-SCS-MP2 Energies <==================
	-----------------------------------------------------------
	 SCS Same-Spin Scale       =       0.3333333333333333 [-]
	 SCS Opposite-Spin Scale   =       1.2000000000000000 [-]
	 SCS Same-Spin Energy      =      -0.1356508896356172 [Eh]
	 SCS Opposite-Spin Energy  =      -1.4572632414799509 [Eh]
	 SCS Correlation Energy    =      -1.5929141311155681 [Eh]
	 SCS Total Energy          =    -394.3422606767184107 [Eh]
	-----------------------------------------------------------

  Dipole Moment: [D]
     X:     8.1389      Y:    -0.8777      Z:    -0.1269     Total:     8.1870

*** Psi4 exiting successfully. Buy a developer a beer!
