                               Psi4 1.3.2 release

  ==> Input File <==

--------------------------------------------------------------------------
#psi4
#
memory 32 gb

molecule  {
0 1
  O       -2.2334690    -1.1675340     0.0001340
  N        0.0265130    -0.9084710    -0.0000270
  N        2.3544690    -0.8475160    -0.0005320
  N       -1.3973450     1.0028810     0.0002180
  C        1.1706060    -0.1768690    -0.0001310
  C        1.0385970     1.1986830    -0.0000890
  C       -1.2978830    -0.3751090     0.0001540
  C       -0.2757380     1.7018570     0.0000510
  H        0.0506260    -1.9247470    -0.0002200
  H        1.9024710     1.8518520    -0.0001620
  H       -0.4079780     2.7850560     0.0002120
  H        3.2235170    -0.3366370     0.0005700
  H        2.4001853    -1.8549017    -0.0489940
units angstrom
no_reorient  #important for SAPT in psi4, default
symmetry c1  #important for SAPT in psi4, default
}

set PROPERTIES_ORIGIN ["COM"]
properties('MP2/aug-cc-pvtz', properties = ['dipole'])
--------------------------------------------------------------------------

    Molecular point group: c1
  Charge       = 0
  Multiplicity = 1
  Basis Set: AUG-CC-PVTZ
    Blend: AUG-CC-PVTZ
  Basis Set: (AUG-CC-PVTZ AUX)
    Blend: AUG-CC-PVTZ-JKFIT

    Orbital Energies [Eh]
    ---------------------

    Doubly Occupied:

       1A    -20.509276     2A    -15.632053     3A    -15.629067
       4A    -15.545692     5A    -11.384167     6A    -11.375661
       7A    -11.308882     8A    -11.232579     9A     -1.388666
      10A     -1.323298    11A     -1.242752    12A     -1.198961
      13A     -1.057533    14A     -0.909483    15A     -0.883494
      16A     -0.784154    17A     -0.752781    18A     -0.721985
      19A     -0.691203    20A     -0.638631    21A     -0.636537
      22A     -0.620198    23A     -0.569336    24A     -0.547782
      25A     -0.460201    26A     -0.447570    27A     -0.442003
      28A     -0.415349    29A     -0.325641

  @DF-RHF Final Energy:  -392.75124729382742

   => Energetics <=

    Nuclear Repulsion Energy =            355.1868474941770728
    One-Electron Energy =               -1238.5263189855979817
    Two-Electron Energy =                 490.5882241975934903
    Total Energy =                       -392.7512472938274186
  Basis Set: (AUG-CC-PVTZ AUX)
    Blend: AUG-CC-PVTZ-RI
    Molecular point group: c1

    Geometry (in Angstrom), charge = 0, multiplicity = 1:

       Center              X                  Y                   Z               Mass
    ------------   -----------------  -----------------  -----------------  -----------------
         O           -2.169545241065    -1.162914489531     0.000600358593    15.994914619570
         N            0.090436758935    -0.903851489531     0.000439358593    14.003074004430
         N            2.418392758935    -0.842896489531    -0.000065641407    14.003074004430
         N           -1.333421241065     1.007500510469     0.000684358593    14.003074004430
         C            1.234529758935    -0.172249489531     0.000335358593    12.000000000000
         C            1.102520758935     1.203302510469     0.000377358593    12.000000000000
         C           -1.233959241065    -0.370489489531     0.000620358593    12.000000000000
         C           -0.211814241065     1.706476510469     0.000517358593    12.000000000000
         H            0.114549758935    -1.920127489531     0.000246358593     1.007825032230
         H            1.966394758935     1.856471510469     0.000304358593     1.007825032230
         H           -0.344054241065     2.789675510469     0.000678358593     1.007825032230
         H            3.287440758935    -0.332017489531     0.001036358593     1.007825032230
         H            2.464109058935    -1.850282189531    -0.048527641407     1.007825032230

  Basis Set: AUG-CC-PVTZ
    Blend: AUG-CC-PVTZ
  Basis Set: (AUG-CC-PVTZ AUX)
    Blend: AUG-CC-PVTZ-JKFIT
	 Reference Energy          =    -392.7512472938274186 [Eh]
	 Singles Energy            =      -0.0000000000000000 [Eh]
	 Same-Spin Energy          =      -0.4068560898883682 [Eh]
	 Opposite-Spin Energy      =      -1.2141113700907287 [Eh]
	 Correlation Energy        =      -1.6209674599790969 [Eh]
	 Total Energy              =    -394.3722147538065315 [Eh]

	 ================> DF-SCS-MP2 Energies <==================
	-----------------------------------------------------------
	 SCS Same-Spin Scale       =       0.3333333333333333 [-]
	 SCS Opposite-Spin Scale   =       1.2000000000000000 [-]
	 SCS Same-Spin Energy      =      -0.1356186966294561 [Eh]
	 SCS Opposite-Spin Energy  =      -1.4569336441088743 [Eh]
	 SCS Correlation Energy    =      -1.5925523407383304 [Eh]
	 SCS Total Energy          =    -394.3437996345657552 [Eh]
	-----------------------------------------------------------

  Dipole Moment: [D]
     X:     8.1375      Y:    -0.8669      Z:    -0.0724     Total:     8.1839

*** Psi4 exiting successfully. Buy a developer a beer!
