                               Psi4 1.3.2 release

  ==> Input File <==

--------------------------------------------------------------------------
#psi4
#
memory 32 gb

molecule  {
0 1
  C        0.0000000     0.4159560     0.0000000
  H       -0.3340900     1.4603970     0.0000000
  N        1.2245270     0.0209870     0.0000000
  H        1.8415280     0.8339110     0.0000000
  N       -1.0366190    -0.4720110    -0.0500000
  H       -0.8260900    -1.4592660     0.0000000
  H       -1.9967030    -0.1736100     0.0000000
units angstrom
no_reorient  #important for SAPT in psi4, default
symmetry c1  #important for SAPT in psi4, default
}

set PROPERTIES_ORIGIN ["COM"]
properties('MP2/aug-cc-pvtz', properties = ['dipole'])
--------------------------------------------------------------------------

    Molecular point group: c1
  Charge       = 0
  Multiplicity = 1
  Basis Set: AUG-CC-PVTZ
    Blend: AUG-CC-PVTZ
  Basis Set: (AUG-CC-PVTZ AUX)
    Blend: AUG-CC-PVTZ-JKFIT

    Orbital Energies [Eh]
    ---------------------

    Doubly Occupied:

       1A    -15.577999     2A    -15.524160     3A    -11.317978
       4A     -1.253806     5A     -1.135934     6A     -0.828245
       7A     -0.742135     8A     -0.633675     9A     -0.617718
      10A     -0.525681    11A     -0.423073    12A     -0.361433

  @DF-RHF Final Energy:  -149.14309251835266

   => Energetics <=

    Nuclear Repulsion Energy =             71.9325698084997072
    One-Electron Energy =                -344.2676490853337441
    Two-Electron Energy =                 123.1919867584813773
    Total Energy =                       -149.1430925183526597
  Basis Set: (AUG-CC-PVTZ AUX)
    Blend: AUG-CC-PVTZ-RI
    Molecular point group: c1

    Geometry (in Angstrom), charge = 0, multiplicity = 1:

       Center              X                  Y                   Z               Mass
    ------------   -----------------  -----------------  -----------------  -----------------
         C           -0.029648446719     0.430889715528     0.015899052507    12.000000000000
         H           -0.363738446719     1.475330715528     0.015899052507     1.007825032230
         N            1.194878553281     0.035920715528     0.015899052507    14.003074004430
         H            1.811879553281     0.848844715528     0.015899052507     1.007825032230
         N           -1.066267446719    -0.457077284472    -0.034100947493    14.003074004430
         H           -0.855738446719    -1.444332284472     0.015899052507     1.007825032230
         H           -2.026351446719    -0.158676284472     0.015899052507     1.007825032230

  Basis Set: AUG-CC-PVTZ
    Blend: AUG-CC-PVTZ
  Basis Set: (AUG-CC-PVTZ AUX)
    Blend: AUG-CC-PVTZ-JKFIT
	 Reference Energy          =    -149.1430925183526597 [Eh]
	 Singles Energy            =      -0.0000000000000000 [Eh]
	 Same-Spin Energy          =      -0.1518871783236205 [Eh]
	 Opposite-Spin Energy      =      -0.4923606488832614 [Eh]
	 Correlation Energy        =      -0.6442478272068819 [Eh]
	 Total Energy              =    -149.7873403455595280 [Eh]

	 ================> DF-SCS-MP2 Energies <==================
	-----------------------------------------------------------
	 SCS Same-Spin Scale       =       0.3333333333333333 [-]
	 SCS Opposite-Spin Scale   =       1.2000000000000000 [-]
	 SCS Same-Spin Energy      =      -0.0506290594412068 [Eh]
	 SCS Opposite-Spin Energy  =      -0.5908327786599136 [Eh]
	 SCS Correlation Energy    =      -0.6414618381011205 [Eh]
	 SCS Total Energy          =    -149.7845543564537820 [Eh]
	-----------------------------------------------------------

  Dipole Moment: [D]
     X:    -2.5502      Y:     1.1393      Z:     0.1406     Total:     2.7966

*** Psi4 exiting successfully. Buy a developer a beer!
