                               Psi4 1.3.2 release

  ==> Input File <==

--------------------------------------------------------------------------
#psi4
#
memory 32 gb

molecule  {
0 1
  C        0.0000000     0.4159560     0.0000000
  H       -0.3340900     1.4603970     0.0000000
  N        1.2245270     0.0209870     0.0000000
  H        1.8415280     0.8339110     0.0000000
  N       -1.0366190    -0.4720110    -0.3000000
  H       -0.8260900    -1.4592660     0.0000000
  H       -1.9967030    -0.1736100     0.0000000
units angstrom
no_reorient  #important for SAPT in psi4, default
symmetry c1  #important for SAPT in psi4, default
}

set PROPERTIES_ORIGIN ["COM"]
properties('MP2/aug-cc-pvtz', properties = ['dipole'])
--------------------------------------------------------------------------

    Molecular point group: c1
  Charge       = 0
  Multiplicity = 1
  Basis Set: AUG-CC-PVTZ
    Blend: AUG-CC-PVTZ
  Basis Set: (AUG-CC-PVTZ AUX)
    Blend: AUG-CC-PVTZ-JKFIT

    Orbital Energies [Eh]
    ---------------------

    Doubly Occupied:

       1A    -15.585887     2A    -15.534978     3A    -11.320258
       4A     -1.246412     5A     -1.134186     6A     -0.816545
       7A     -0.724546     8A     -0.622228     9A     -0.607407
      10A     -0.523486    11A     -0.428043    12A     -0.374696

  @DF-RHF Final Energy:  -149.13480461425428

   => Energetics <=

    Nuclear Repulsion Energy =             71.1532545738107700
    One-Electron Energy =                -342.7387745606353633
    Two-Electron Energy =                 122.4507153725702864
    Total Energy =                       -149.1348046142542785
  Basis Set: (AUG-CC-PVTZ AUX)
    Blend: AUG-CC-PVTZ-RI
    Molecular point group: c1

    Geometry (in Angstrom), charge = 0, multiplicity = 1:

       Center              X                  Y                   Z               Mass
    ------------   -----------------  -----------------  -----------------  -----------------
         C           -0.029648446719     0.430889715528     0.095394315043    12.000000000000
         H           -0.363738446719     1.475330715528     0.095394315043     1.007825032230
         N            1.194878553281     0.035920715528     0.095394315043    14.003074004430
         H            1.811879553281     0.848844715528     0.095394315043     1.007825032230
         N           -1.066267446719    -0.457077284472    -0.204605684957    14.003074004430
         H           -0.855738446719    -1.444332284472     0.095394315043     1.007825032230
         H           -2.026351446719    -0.158676284472     0.095394315043     1.007825032230

  Basis Set: AUG-CC-PVTZ
    Blend: AUG-CC-PVTZ
  Basis Set: (AUG-CC-PVTZ AUX)
    Blend: AUG-CC-PVTZ-JKFIT
	 Reference Energy          =    -149.1348046142542785 [Eh]
	 Singles Energy            =      -0.0000000000000000 [Eh]
	 Same-Spin Energy          =      -0.1520496865088783 [Eh]
	 Opposite-Spin Energy      =      -0.4946245067064678 [Eh]
	 Correlation Energy        =      -0.6466741932153461 [Eh]
	 Total Energy              =    -149.7814788074696253 [Eh]

	 ================> DF-SCS-MP2 Energies <==================
	-----------------------------------------------------------
	 SCS Same-Spin Scale       =       0.3333333333333333 [-]
	 SCS Opposite-Spin Scale   =       1.2000000000000000 [-]
	 SCS Same-Spin Energy      =      -0.0506832288362928 [Eh]
	 SCS Opposite-Spin Energy  =      -0.5935494080477614 [Eh]
	 SCS Correlation Energy    =      -0.6442326368840541 [Eh]
	 SCS Total Energy          =    -149.7790372511383339 [Eh]
	-----------------------------------------------------------

  Dipole Moment: [D]
     X:    -2.1799      Y:     1.2611      Z:     0.8051     Total:     2.6440

*** Psi4 exiting successfully. Buy a developer a beer!
