                               Psi4 1.3.2 release

  ==> Input File <==

--------------------------------------------------------------------------
#psi4
#
memory 32 gb

molecule  {
0 1
  C        0.0000000     0.4159560     0.0000000
  H       -0.3340900     1.4603970     0.0000000
  N        1.2245270     0.0209870     0.0000000
  H        1.8415280     0.8339110     0.0000000
  N       -1.0366190    -0.4720110     0.0000000
  H       -0.8260900    -1.4592660     0.0000000
  H       -1.9967030    -0.1736100    -0.2000000
units angstrom
no_reorient  #important for SAPT in psi4, default
symmetry c1  #important for SAPT in psi4, default
}

set PROPERTIES_ORIGIN ["COM"]
properties('MP2/aug-cc-pvtz', properties = ['dipole'])
--------------------------------------------------------------------------

    Molecular point group: c1
  Charge       = 0
  Multiplicity = 1
  Basis Set: AUG-CC-PVTZ
    Blend: AUG-CC-PVTZ
  Basis Set: (AUG-CC-PVTZ AUX)
    Blend: AUG-CC-PVTZ-JKFIT

    Orbital Energies [Eh]
    ---------------------

    Doubly Occupied:

       1A    -15.579181     2A    -15.524556     3A    -11.317726
       4A     -1.253027     5A     -1.134685     6A     -0.827588
       7A     -0.738057     8A     -0.633856     9A     -0.616476
      10A     -0.524615    11A     -0.423360    12A     -0.361777

  @DF-RHF Final Energy:  -149.14217922904982

   => Energetics <=

    Nuclear Repulsion Energy =             71.8728321292292378
    One-Electron Energy =                -344.1602149739512129
    Two-Electron Energy =                 123.1452036156721164
    Total Energy =                       -149.1421792290498161
  Basis Set: (AUG-CC-PVTZ AUX)
    Blend: AUG-CC-PVTZ-RI
    Molecular point group: c1

    Geometry (in Angstrom), charge = 0, multiplicity = 1:

       Center              X                  Y                   Z               Mass
    ------------   -----------------  -----------------  -----------------  -----------------
         C           -0.029648446719     0.430889715528     0.004577127308    12.000000000000
         H           -0.363738446719     1.475330715528     0.004577127308     1.007825032230
         N            1.194878553281     0.035920715528     0.004577127308    14.003074004430
         H            1.811879553281     0.848844715528     0.004577127308     1.007825032230
         N           -1.066267446719    -0.457077284472     0.004577127308    14.003074004430
         H           -0.855738446719    -1.444332284472     0.004577127308     1.007825032230
         H           -2.026351446719    -0.158676284472    -0.195422872692     1.007825032230

  Basis Set: AUG-CC-PVTZ
    Blend: AUG-CC-PVTZ
  Basis Set: (AUG-CC-PVTZ AUX)
    Blend: AUG-CC-PVTZ-JKFIT
	 Reference Energy          =    -149.1421792290498161 [Eh]
	 Singles Energy            =      -0.0000000000000000 [Eh]
	 Same-Spin Energy          =      -0.1519538126803013 [Eh]
	 Opposite-Spin Energy      =      -0.4926007908251251 [Eh]
	 Correlation Energy        =      -0.6445546035054264 [Eh]
	 Total Energy              =    -149.7867338325552282 [Eh]

	 ================> DF-SCS-MP2 Energies <==================
	-----------------------------------------------------------
	 SCS Same-Spin Scale       =       0.3333333333333333 [-]
	 SCS Opposite-Spin Scale   =       1.2000000000000000 [-]
	 SCS Same-Spin Energy      =      -0.0506512708934338 [Eh]
	 SCS Opposite-Spin Energy  =      -0.5911209489901501 [Eh]
	 SCS Correlation Energy    =      -0.6417722198835839 [Eh]
	 SCS Total Energy          =    -149.7839514489334078 [Eh]
	-----------------------------------------------------------

  Dipole Moment: [D]
     X:    -2.5224      Y:     1.1366      Z:    -0.3171     Total:     2.7847

*** Psi4 exiting successfully. Buy a developer a beer!
