                               Psi4 1.3.2 release

  ==> Input File <==

--------------------------------------------------------------------------
#psi4
#
memory 32 gb

molecule  {
0 1
  C        0.0000000     0.4159560     0.0000000
  H       -0.3340900     1.4603970     0.0000000
  N        1.2245270     0.0209870     0.0000000
  H        1.8415280     0.8339110     0.0000000
  N       -1.0366190    -0.4720110    -0.1000000
  H       -0.8260900    -1.4592660     0.0000000
  H       -1.9967030    -0.1736100     0.0000000
units angstrom
no_reorient  #important for SAPT in psi4, default
symmetry c1  #important for SAPT in psi4, default
}

set PROPERTIES_ORIGIN ["COM"]
properties('MP2/aug-cc-pvtz', properties = ['dipole'])
--------------------------------------------------------------------------

    Molecular point group: c1
  Charge       = 0
  Multiplicity = 1
  Basis Set: AUG-CC-PVTZ
    Blend: AUG-CC-PVTZ
  Basis Set: (AUG-CC-PVTZ AUX)
    Blend: AUG-CC-PVTZ-JKFIT

    Orbital Energies [Eh]
    ---------------------

    Doubly Occupied:

       1A    -15.578588     2A    -15.525215     3A    -11.318173
       4A     -1.253104     5A     -1.135883     6A     -0.827068
       7A     -0.740256     8A     -0.632507     9A     -0.617250
      10A     -0.525421    11A     -0.423600    12A     -0.362659

  @DF-RHF Final Energy:  -149.14267835775291

   => Energetics <=

    Nuclear Repulsion Energy =             71.8631697453007234
    One-Electron Energy =                -344.1322464855724093
    Two-Electron Energy =                 123.1263983825187438
    Total Energy =                       -149.1426783577529136
  Basis Set: (AUG-CC-PVTZ AUX)
    Blend: AUG-CC-PVTZ-RI
    Molecular point group: c1

    Geometry (in Angstrom), charge = 0, multiplicity = 1:

       Center              X                  Y                   Z               Mass
    ------------   -----------------  -----------------  -----------------  -----------------
         C           -0.029648446719     0.430889715528     0.031798105014    12.000000000000
         H           -0.363738446719     1.475330715528     0.031798105014     1.007825032230
         N            1.194878553281     0.035920715528     0.031798105014    14.003074004430
         H            1.811879553281     0.848844715528     0.031798105014     1.007825032230
         N           -1.066267446719    -0.457077284472    -0.068201894986    14.003074004430
         H           -0.855738446719    -1.444332284472     0.031798105014     1.007825032230
         H           -2.026351446719    -0.158676284472     0.031798105014     1.007825032230

  Basis Set: AUG-CC-PVTZ
    Blend: AUG-CC-PVTZ
  Basis Set: (AUG-CC-PVTZ AUX)
    Blend: AUG-CC-PVTZ-JKFIT
	 Reference Energy          =    -149.1426783577529136 [Eh]
	 Singles Energy            =      -0.0000000000000000 [Eh]
	 Same-Spin Energy          =      -0.1518929244073648 [Eh]
	 Opposite-Spin Energy      =      -0.4925448305082512 [Eh]
	 Correlation Energy        =      -0.6444377549156159 [Eh]
	 Total Energy              =    -149.7871161126685422 [Eh]

	 ================> DF-SCS-MP2 Energies <==================
	-----------------------------------------------------------
	 SCS Same-Spin Scale       =       0.3333333333333333 [-]
	 SCS Opposite-Spin Scale   =       1.2000000000000000 [-]
	 SCS Same-Spin Energy      =      -0.0506309748024549 [Eh]
	 SCS Opposite-Spin Energy  =      -0.5910537966099013 [Eh]
	 SCS Correlation Energy    =      -0.6416847714123562 [Eh]
	 SCS Total Energy          =    -149.7843631291652571 [Eh]
	-----------------------------------------------------------

  Dipole Moment: [D]
     X:    -2.5147      Y:     1.1507      Z:     0.2802     Total:     2.7796

*** Psi4 exiting successfully. Buy a developer a beer!
