                               Psi4 1.3.2 release

  ==> Input File <==

--------------------------------------------------------------------------
#psi4
#
memory 32 gb

molecule  {
0 1
  C        0.0000000     0.4159560     0.0000000
  H       -0.3340900     1.4603970     0.0000000
  N        1.2245270     0.0209870     0.0000000
  H        1.8415280     0.8339110     0.0000000
  N       -1.0366190    -0.4720110    -0.1500000
  H       -0.8260900    -1.4592660     0.0000000
  H       -1.9967030    -0.1736100     0.0000000
units angstrom
no_reorient  #important for SAPT in psi4, default
symmetry c1  #important for SAPT in psi4, default
}

set PROPERTIES_ORIGIN ["COM"]
properties('MP2/aug-cc-pvtz', properties = ['dipole'])
--------------------------------------------------------------------------

    Molecular point group: c1
  Charge       = 0
  Multiplicity = 1
  Basis Set: AUG-CC-PVTZ
    Blend: AUG-CC-PVTZ
  Basis Set: (AUG-CC-PVTZ AUX)
    Blend: AUG-CC-PVTZ-JKFIT

    Orbital Energies [Eh]
    ---------------------

    Doubly Occupied:

       1A    -15.579612     2A    -15.526915     3A    -11.318497
       4A     -1.251965     5A     -1.135753     6A     -0.825186
       7A     -0.737294     8A     -0.630623     9A     -0.616300
      10A     -0.525020    11A     -0.424432    12A     -0.364666

  @DF-RHF Final Energy:  -149.14185232980171

   => Energetics <=

    Nuclear Repulsion Energy =             71.7486334409286997
    One-Electron Energy =                -343.9084467116913970
    Two-Electron Energy =                 123.0179609409610038
    Total Energy =                       -149.1418523298016794
  Basis Set: (AUG-CC-PVTZ AUX)
    Blend: AUG-CC-PVTZ-RI
    Molecular point group: c1

    Geometry (in Angstrom), charge = 0, multiplicity = 1:

       Center              X                  Y                   Z               Mass
    ------------   -----------------  -----------------  -----------------  -----------------
         C           -0.029648446719     0.430889715528     0.047697157521    12.000000000000
         H           -0.363738446719     1.475330715528     0.047697157521     1.007825032230
         N            1.194878553281     0.035920715528     0.047697157521    14.003074004430
         H            1.811879553281     0.848844715528     0.047697157521     1.007825032230
         N           -1.066267446719    -0.457077284472    -0.102302842479    14.003074004430
         H           -0.855738446719    -1.444332284472     0.047697157521     1.007825032230
         H           -2.026351446719    -0.158676284472     0.047697157521     1.007825032230

  Basis Set: AUG-CC-PVTZ
    Blend: AUG-CC-PVTZ
  Basis Set: (AUG-CC-PVTZ AUX)
    Blend: AUG-CC-PVTZ-JKFIT
	 Reference Energy          =    -149.1418523298017078 [Eh]
	 Singles Energy            =      -0.0000000000000000 [Eh]
	 Same-Spin Energy          =      -0.1519056368219896 [Eh]
	 Opposite-Spin Energy      =      -0.4928549193389657 [Eh]
	 Correlation Energy        =      -0.6447605561609553 [Eh]
	 Total Energy              =    -149.7866128859626542 [Eh]

	 ================> DF-SCS-MP2 Energies <==================
	-----------------------------------------------------------
	 SCS Same-Spin Scale       =       0.3333333333333333 [-]
	 SCS Opposite-Spin Scale   =       1.2000000000000000 [-]
	 SCS Same-Spin Energy      =      -0.0506352122739965 [Eh]
	 SCS Opposite-Spin Energy  =      -0.5914259032067588 [Eh]
	 SCS Correlation Energy    =      -0.6420611154807554 [Eh]
	 SCS Total Energy          =    -149.7839134452824510 [Eh]
	-----------------------------------------------------------

  Dipole Moment: [D]
     X:    -2.4573      Y:     1.1693      Z:     0.4175     Total:     2.7531

*** Psi4 exiting successfully. Buy a developer a beer!
