                               Psi4 1.3.2 release

  ==> Input File <==

--------------------------------------------------------------------------
#psi4
#
memory 32 gb

molecule  {
0 1
  C        0.0000000     0.4159560     0.0000000
  H       -0.3340900     1.4603970     0.0000000
  N        1.2245270     0.0209870     0.0000000
  H        1.8415280     0.8339110     0.0000000
  N       -1.0366190    -0.4720110     0.0000000
  H       -0.8260900    -1.4592660     0.0000000
  H       -1.9967030    -0.1736100    -0.1000000
units angstrom
no_reorient  #important for SAPT in psi4, default
symmetry c1  #important for SAPT in psi4, default
}

set PROPERTIES_ORIGIN ["COM"]
properties('MP2/aug-cc-pvtz', properties = ['dipole'])
--------------------------------------------------------------------------

    Molecular point group: c1
  Charge       = 0
  Multiplicity = 1
  Basis Set: AUG-CC-PVTZ
    Blend: AUG-CC-PVTZ
  Basis Set: (AUG-CC-PVTZ AUX)
    Blend: AUG-CC-PVTZ-JKFIT

    Orbital Energies [Eh]
    ---------------------

    Doubly Occupied:

       1A    -15.578155     2A    -15.523995     3A    -11.317864
       4A     -1.253777     5A     -1.135624     6A     -0.828366
       7A     -0.741569     8A     -0.634012     9A     -0.617531
      10A     -0.525476    11A     -0.423012    12A     -0.361213

  @DF-RHF Final Energy:  -149.14301334415231

   => Energetics <=

    Nuclear Repulsion Energy =             71.9346670400600487
    One-Electron Energy =                -344.2741721120186753
    Two-Electron Energy =                 123.1964917278063041
    Total Energy =                       -149.1430133441523367
  Basis Set: (AUG-CC-PVTZ AUX)
    Blend: AUG-CC-PVTZ-RI
    Molecular point group: c1

    Geometry (in Angstrom), charge = 0, multiplicity = 1:

       Center              X                  Y                   Z               Mass
    ------------   -----------------  -----------------  -----------------  -----------------
         C           -0.029648446719     0.430889715528     0.002288563654    12.000000000000
         H           -0.363738446719     1.475330715528     0.002288563654     1.007825032230
         N            1.194878553281     0.035920715528     0.002288563654    14.003074004430
         H            1.811879553281     0.848844715528     0.002288563654     1.007825032230
         N           -1.066267446719    -0.457077284472     0.002288563654    14.003074004430
         H           -0.855738446719    -1.444332284472     0.002288563654     1.007825032230
         H           -2.026351446719    -0.158676284472    -0.097711436346     1.007825032230

  Basis Set: AUG-CC-PVTZ
    Blend: AUG-CC-PVTZ
  Basis Set: (AUG-CC-PVTZ AUX)
    Blend: AUG-CC-PVTZ-JKFIT
	 Reference Energy          =    -149.1430133441523083 [Eh]
	 Singles Energy            =      -0.0000000000000000 [Eh]
	 Same-Spin Energy          =      -0.1519025756162465 [Eh]
	 Opposite-Spin Energy      =      -0.4923740643440255 [Eh]
	 Correlation Energy        =      -0.6442766399602721 [Eh]
	 Total Energy              =    -149.7872899841125900 [Eh]

	 ================> DF-SCS-MP2 Energies <==================
	-----------------------------------------------------------
	 SCS Same-Spin Scale       =       0.3333333333333333 [-]
	 SCS Opposite-Spin Scale   =       1.2000000000000000 [-]
	 SCS Same-Spin Energy      =      -0.0506341918720822 [Eh]
	 SCS Opposite-Spin Energy  =      -0.5908488772128306 [Eh]
	 SCS Correlation Energy    =      -0.6414830690849128 [Eh]
	 SCS Total Energy          =    -149.7844964132372070 [Eh]
	-----------------------------------------------------------

  Dipole Moment: [D]
     X:    -2.5521      Y:     1.1357      Z:    -0.1603     Total:     2.7980

*** Psi4 exiting successfully. Buy a developer a beer!
