                               Psi4 1.3.2 release

  ==> Input File <==

--------------------------------------------------------------------------
#psi4
#
memory 32 gb

molecule  {
0 1
  C        0.0000000     0.4159560     0.0000000
  H       -0.3340900     1.4603970     0.0000000
  N        1.2245270     0.0209870     0.0000000
  H        1.8415280     0.8339110     0.0000000
  N       -1.0366190    -0.4720110     0.0000000
  H       -0.8260900    -1.4592660     0.0000000
  H       -1.9967030    -0.1736100    -0.2500000
units angstrom
no_reorient  #important for SAPT in psi4, default
symmetry c1  #important for SAPT in psi4, default
}

set PROPERTIES_ORIGIN ["COM"]
properties('MP2/aug-cc-pvtz', properties = ['dipole'])
--------------------------------------------------------------------------

    Molecular point group: c1
  Charge       = 0
  Multiplicity = 1
  Basis Set: AUG-CC-PVTZ
    Blend: AUG-CC-PVTZ
  Basis Set: (AUG-CC-PVTZ AUX)
    Blend: AUG-CC-PVTZ-JKFIT

    Orbital Energies [Eh]
    ---------------------

    Doubly Occupied:

       1A    -15.579936     2A    -15.524962     3A    -11.317631
       4A     -1.252506     5A     -1.134011     6A     -0.827058
       7A     -0.735540     8A     -0.633752     9A     -0.615612
      10A     -0.523993    11A     -0.423613    12A     -0.362186

  @DF-RHF Final Energy:  -149.14135368442226

   => Energetics <=

    Nuclear Repulsion Energy =             71.8279726685155993
    One-Electron Energy =                -344.0770542502855847
    Two-Electron Energy =                 123.1077278973477434
    Total Energy =                       -149.1413536844222563
  Basis Set: (AUG-CC-PVTZ AUX)
    Blend: AUG-CC-PVTZ-RI
    Molecular point group: c1

    Geometry (in Angstrom), charge = 0, multiplicity = 1:

       Center              X                  Y                   Z               Mass
    ------------   -----------------  -----------------  -----------------  -----------------
         C           -0.029648446719     0.430889715528     0.005721409135    12.000000000000
         H           -0.363738446719     1.475330715528     0.005721409135     1.007825032230
         N            1.194878553281     0.035920715528     0.005721409135    14.003074004430
         H            1.811879553281     0.848844715528     0.005721409135     1.007825032230
         N           -1.066267446719    -0.457077284472     0.005721409135    14.003074004430
         H           -0.855738446719    -1.444332284472     0.005721409135     1.007825032230
         H           -2.026351446719    -0.158676284472    -0.244278590865     1.007825032230

  Basis Set: AUG-CC-PVTZ
    Blend: AUG-CC-PVTZ
  Basis Set: (AUG-CC-PVTZ AUX)
    Blend: AUG-CC-PVTZ-JKFIT
	 Reference Energy          =    -149.1413536844222563 [Eh]
	 Singles Energy            =      -0.0000000000000000 [Eh]
	 Same-Spin Energy          =      -0.1519923345723622 [Eh]
	 Opposite-Spin Energy      =      -0.4927730031496246 [Eh]
	 Correlation Energy        =      -0.6447653377219869 [Eh]
	 Total Energy              =    -149.7861190221442484 [Eh]

	 ================> DF-SCS-MP2 Energies <==================
	-----------------------------------------------------------
	 SCS Same-Spin Scale       =       0.3333333333333333 [-]
	 SCS Opposite-Spin Scale   =       1.2000000000000000 [-]
	 SCS Same-Spin Energy      =      -0.0506641115241207 [Eh]
	 SCS Opposite-Spin Energy  =      -0.5913276037795495 [Eh]
	 SCS Correlation Energy    =      -0.6419917153036703 [Eh]
	 SCS Total Energy          =    -149.7833453997259312 [Eh]
	-----------------------------------------------------------

  Dipole Moment: [D]
     X:    -2.5008      Y:     1.1373      Z:    -0.3933     Total:     2.7752

*** Psi4 exiting successfully. Buy a developer a beer!
