                               Psi4 1.3.2 release

  ==> Input File <==

--------------------------------------------------------------------------
#psi4
#
memory 32 gb

molecule  {
0 1
  C        0.0000000     0.4159560     0.0000000
  H       -0.3340900     1.4603970     0.0000000
  N        1.2245270     0.0209870     0.0000000
  H        1.8415280     0.8339110     0.0000000
  N       -1.0366190    -0.4720110     0.0000000
  H       -0.8260900    -1.4592660     0.0000000
  H       -1.9967030    -0.1736100    -0.3000000
units angstrom
no_reorient  #important for SAPT in psi4, default
symmetry c1  #important for SAPT in psi4, default
}

set PROPERTIES_ORIGIN ["COM"]
properties('MP2/aug-cc-pvtz', properties = ['dipole'])
--------------------------------------------------------------------------

    Molecular point group: c1
  Charge       = 0
  Multiplicity = 1
  Basis Set: AUG-CC-PVTZ
    Blend: AUG-CC-PVTZ
  Basis Set: (AUG-CC-PVTZ AUX)
    Blend: AUG-CC-PVTZ-JKFIT

    Orbital Energies [Eh]
    ---------------------

    Doubly Occupied:

       1A    -15.580842     2A    -15.525443     3A    -11.317522
       4A     -1.251915     5A     -1.133222     6A     -0.826464
       7A     -0.732603     8A     -0.633642     9A     -0.614472
      10A     -0.523256    11A     -0.423913    12A     -0.362672

  @DF-RHF Final Energy:  -149.14014017306633

   => Energetics <=

    Nuclear Repulsion Energy =             71.7748053996776179
    One-Electron Energy =                -343.9779616255564179
    Two-Electron Energy =                 123.0630160528124719
    Total Energy =                       -149.1401401730662997
  Basis Set: (AUG-CC-PVTZ AUX)
    Blend: AUG-CC-PVTZ-RI
    Molecular point group: c1

    Geometry (in Angstrom), charge = 0, multiplicity = 1:

       Center              X                  Y                   Z               Mass
    ------------   -----------------  -----------------  -----------------  -----------------
         C           -0.029648446719     0.430889715528     0.006865690962    12.000000000000
         H           -0.363738446719     1.475330715528     0.006865690962     1.007825032230
         N            1.194878553281     0.035920715528     0.006865690962    14.003074004430
         H            1.811879553281     0.848844715528     0.006865690962     1.007825032230
         N           -1.066267446719    -0.457077284472     0.006865690962    14.003074004430
         H           -0.855738446719    -1.444332284472     0.006865690962     1.007825032230
         H           -2.026351446719    -0.158676284472    -0.293134309038     1.007825032230

  Basis Set: AUG-CC-PVTZ
    Blend: AUG-CC-PVTZ
  Basis Set: (AUG-CC-PVTZ AUX)
    Blend: AUG-CC-PVTZ-JKFIT
	 Reference Energy          =    -149.1401401730663281 [Eh]
	 Singles Energy            =      -0.0000000000000000 [Eh]
	 Same-Spin Energy          =      -0.1520393471202713 [Eh]
	 Opposite-Spin Energy      =      -0.4929851514281909 [Eh]
	 Correlation Energy        =      -0.6450244985484622 [Eh]
	 Total Energy              =    -149.7851646716147798 [Eh]

	 ================> DF-SCS-MP2 Energies <==================
	-----------------------------------------------------------
	 SCS Same-Spin Scale       =       0.3333333333333333 [-]
	 SCS Opposite-Spin Scale   =       1.2000000000000000 [-]
	 SCS Same-Spin Energy      =      -0.0506797823734238 [Eh]
	 SCS Opposite-Spin Energy  =      -0.5915821817138290 [Eh]
	 SCS Correlation Energy    =      -0.6422619640872528 [Eh]
	 SCS Total Energy          =    -149.7824021371535821 [Eh]
	-----------------------------------------------------------

  Dipole Moment: [D]
     X:    -2.4751      Y:     1.1381      Z:    -0.4675     Total:     2.7640

*** Psi4 exiting successfully. Buy a developer a beer!
