                               Psi4 1.3.2 release

  ==> Input File <==

--------------------------------------------------------------------------
#psi4
#
memory 32 gb

molecule  {
0 1
  C        0.0000000     0.4159560     0.0000000
  H       -0.3340900     1.4603970     0.0000000
  N        1.2245270     0.0209870     0.0000000
  H        1.8415280     0.8339110     0.0000000
  N       -1.0366190    -0.4720110    -0.2000000
  H       -0.8260900    -1.4592660     0.0000000
  H       -1.9967030    -0.1736100     0.0000000
units angstrom
no_reorient  #important for SAPT in psi4, default
symmetry c1  #important for SAPT in psi4, default
}

set PROPERTIES_ORIGIN ["COM"]
properties('MP2/aug-cc-pvtz', properties = ['dipole'])
--------------------------------------------------------------------------

    Molecular point group: c1
  Charge       = 0
  Multiplicity = 1
  Basis Set: AUG-CC-PVTZ
    Blend: AUG-CC-PVTZ
  Basis Set: (AUG-CC-PVTZ AUX)
    Blend: AUG-CC-PVTZ-JKFIT

    Orbital Energies [Eh]
    ---------------------

    Doubly Occupied:

       1A    -15.581128     2A    -15.529180     3A    -11.318951
       4A     -1.250429     5A     -1.135483     6A     -0.822709
       7A     -0.733487     8A     -0.628149     9A     -0.614592
      10A     -0.524524    11A     -0.425506    12A     -0.367395

  @DF-RHF Final Energy:  -149.14042601756620

   => Energetics <=

    Nuclear Repulsion Energy =             71.5906004315276618
    One-Electron Energy =                -343.5989909759729812
    Two-Electron Energy =                 122.8679645268791205
    Total Energy =                       -149.1404260175661989
  Basis Set: (AUG-CC-PVTZ AUX)
    Blend: AUG-CC-PVTZ-RI
    Molecular point group: c1

    Geometry (in Angstrom), charge = 0, multiplicity = 1:

       Center              X                  Y                   Z               Mass
    ------------   -----------------  -----------------  -----------------  -----------------
         C           -0.029648446719     0.430889715528     0.063596210028    12.000000000000
         H           -0.363738446719     1.475330715528     0.063596210028     1.007825032230
         N            1.194878553281     0.035920715528     0.063596210028    14.003074004430
         H            1.811879553281     0.848844715528     0.063596210028     1.007825032230
         N           -1.066267446719    -0.457077284472    -0.136403789972    14.003074004430
         H           -0.855738446719    -1.444332284472     0.063596210028     1.007825032230
         H           -2.026351446719    -0.158676284472     0.063596210028     1.007825032230

  Basis Set: AUG-CC-PVTZ
    Blend: AUG-CC-PVTZ
  Basis Set: (AUG-CC-PVTZ AUX)
    Blend: AUG-CC-PVTZ-JKFIT
	 Reference Energy          =    -149.1404260175661989 [Eh]
	 Singles Energy            =      -0.0000000000000000 [Eh]
	 Same-Spin Energy          =      -0.1519303763521347 [Eh]
	 Opposite-Spin Energy      =      -0.4932971533080679 [Eh]
	 Correlation Energy        =      -0.6452275296602026 [Eh]
	 Total Energy              =    -149.7856535472263886 [Eh]

	 ================> DF-SCS-MP2 Energies <==================
	-----------------------------------------------------------
	 SCS Same-Spin Scale       =       0.3333333333333333 [-]
	 SCS Opposite-Spin Scale   =       1.2000000000000000 [-]
	 SCS Same-Spin Energy      =      -0.0506434587840449 [Eh]
	 SCS Opposite-Spin Energy  =      -0.5919565839696815 [Eh]
	 SCS Correlation Energy    =      -0.6426000427537264 [Eh]
	 SCS Total Energy          =    -149.7830260603199122 [Eh]
	-----------------------------------------------------------

  Dipole Moment: [D]
     X:    -2.3802      Y:     1.1944      Z:     0.5516     Total:     2.7197

*** Psi4 exiting successfully. Buy a developer a beer!
