                               Psi4 1.3.2 release

  ==> Input File <==

--------------------------------------------------------------------------
#psi4
#
memory 32 gb

molecule  {
0 1
  C        0.0000000     0.4159560     0.0000000
  H       -0.3340900     1.4603970     0.0000000
  N        1.2245270     0.0209870     0.0000000
  H        1.8415280     0.8339110     0.0000000
  N       -1.0366190    -0.4720110    -0.2500000
  H       -0.8260900    -1.4592660     0.0000000
  H       -1.9967030    -0.1736100     0.0000000
units angstrom
no_reorient  #important for SAPT in psi4, default
symmetry c1  #important for SAPT in psi4, default
}

set PROPERTIES_ORIGIN ["COM"]
properties('MP2/aug-cc-pvtz', properties = ['dipole'])
--------------------------------------------------------------------------

    Molecular point group: c1
  Charge       = 0
  Multiplicity = 1
  Basis Set: AUG-CC-PVTZ
    Blend: AUG-CC-PVTZ
  Basis Set: (AUG-CC-PVTZ AUX)
    Blend: AUG-CC-PVTZ-JKFIT

    Orbital Energies [Eh]
    ---------------------

    Doubly Occupied:

       1A    -15.583199     2A    -15.531905     3A    -11.319536
       4A     -1.248555     5A     -1.134992     6A     -0.819776
       7A     -0.729130     8A     -0.625291     9A     -0.611744
      10A     -0.523991    11A     -0.426739    12A     -0.370771

  @DF-RHF Final Energy:  -149.13816359239087

   => Energetics <=

    Nuclear Repulsion Energy =             71.3912595021430008
    One-Electron Energy =                -343.2075854018939935
    Two-Electron Energy =                 122.6781623073601395
    Total Energy =                       -149.1381635923908675
  Basis Set: (AUG-CC-PVTZ AUX)
    Blend: AUG-CC-PVTZ-RI
    Molecular point group: c1

    Geometry (in Angstrom), charge = 0, multiplicity = 1:

       Center              X                  Y                   Z               Mass
    ------------   -----------------  -----------------  -----------------  -----------------
         C           -0.029648446719     0.430889715528     0.079495262536    12.000000000000
         H           -0.363738446719     1.475330715528     0.079495262536     1.007825032230
         N            1.194878553281     0.035920715528     0.079495262536    14.003074004430
         H            1.811879553281     0.848844715528     0.079495262536     1.007825032230
         N           -1.066267446719    -0.457077284472    -0.170504737464    14.003074004430
         H           -0.855738446719    -1.444332284472     0.079495262536     1.007825032230
         H           -2.026351446719    -0.158676284472     0.079495262536     1.007825032230

  Basis Set: AUG-CC-PVTZ
    Blend: AUG-CC-PVTZ
  Basis Set: (AUG-CC-PVTZ AUX)
    Blend: AUG-CC-PVTZ-JKFIT
	 Reference Energy          =    -149.1381635923908675 [Eh]
	 Singles Energy            =      -0.0000000000000000 [Eh]
	 Same-Spin Energy          =      -0.1519748965773159 [Eh]
	 Opposite-Spin Energy      =      -0.4938820393567706 [Eh]
	 Correlation Energy        =      -0.6458569359340864 [Eh]
	 Total Energy              =    -149.7840205283249588 [Eh]

	 ================> DF-SCS-MP2 Energies <==================
	-----------------------------------------------------------
	 SCS Same-Spin Scale       =       0.3333333333333333 [-]
	 SCS Opposite-Spin Scale   =       1.2000000000000000 [-]
	 SCS Same-Spin Energy      =      -0.0506582988591053 [Eh]
	 SCS Opposite-Spin Energy  =      -0.5926584472281247 [Eh]
	 SCS Correlation Energy    =      -0.6433167460872300 [Eh]
	 SCS Total Energy          =    -149.7814803384781044 [Eh]
	-----------------------------------------------------------

  Dipole Moment: [D]
     X:    -2.2866      Y:     1.2254      Z:     0.6812     Total:     2.6822

*** Psi4 exiting successfully. Buy a developer a beer!
