                               Psi4 1.3.2 release

  ==> Input File <==

--------------------------------------------------------------------------
#psi4
#
memory 32 gb

molecule  {
0 1
  C        0.0000000     0.4159560     0.0000000
  H       -0.3340900     1.4603970     0.0000000
  N        1.2245270     0.0209870     0.0000000
  H        1.8415280     0.8339110     0.0000000
  N       -1.0366190    -0.4720110     0.0000000
  H       -0.8260900    -1.4592660     0.0000000
  H       -1.9967030    -0.1736100    -0.0500000
units angstrom
no_reorient  #important for SAPT in psi4, default
symmetry c1  #important for SAPT in psi4, default
}

set PROPERTIES_ORIGIN ["COM"]
properties('MP2/aug-cc-pvtz', properties = ['dipole'])
--------------------------------------------------------------------------

    Molecular point group: c1
  Charge       = 0
  Multiplicity = 1
  Basis Set: AUG-CC-PVTZ
    Blend: AUG-CC-PVTZ
  Basis Set: (AUG-CC-PVTZ AUX)
    Blend: AUG-CC-PVTZ-JKFIT

    Orbital Energies [Eh]
    ---------------------

    Doubly Occupied:

       1A    -15.577895     2A    -15.523851     3A    -11.317901
       4A     -1.253976     5A     -1.135866     6A     -0.828575
       7A     -0.742475     8A     -0.634055     9A     -0.617777
      10A     -0.525697    11A     -0.422923    12A     -0.361068

  @DF-RHF Final Energy:  -149.14316946452740

   => Energetics <=

    Nuclear Repulsion Energy =             71.9505041260033948
    One-Electron Energy =                -344.3032330373246737
    Two-Electron Energy =                 123.2095594467938611
    Total Energy =                       -149.1431694645274035
  Basis Set: (AUG-CC-PVTZ AUX)
    Blend: AUG-CC-PVTZ-RI
    Molecular point group: c1

    Geometry (in Angstrom), charge = 0, multiplicity = 1:

       Center              X                  Y                   Z               Mass
    ------------   -----------------  -----------------  -----------------  -----------------
         C           -0.029648446719     0.430889715528     0.001144281827    12.000000000000
         H           -0.363738446719     1.475330715528     0.001144281827     1.007825032230
         N            1.194878553281     0.035920715528     0.001144281827    14.003074004430
         H            1.811879553281     0.848844715528     0.001144281827     1.007825032230
         N           -1.066267446719    -0.457077284472     0.001144281827    14.003074004430
         H           -0.855738446719    -1.444332284472     0.001144281827     1.007825032230
         H           -2.026351446719    -0.158676284472    -0.048855718173     1.007825032230

  Basis Set: AUG-CC-PVTZ
    Blend: AUG-CC-PVTZ
  Basis Set: (AUG-CC-PVTZ AUX)
    Blend: AUG-CC-PVTZ-JKFIT
	 Reference Energy          =    -149.1431694645274035 [Eh]
	 Singles Energy            =      -0.0000000000000000 [Eh]
	 Same-Spin Energy          =      -0.1518898217540840 [Eh]
	 Opposite-Spin Energy      =      -0.4923180819031182 [Eh]
	 Correlation Energy        =      -0.6442079036572022 [Eh]
	 Total Energy              =    -149.7873773681845933 [Eh]

	 ================> DF-SCS-MP2 Energies <==================
	-----------------------------------------------------------
	 SCS Same-Spin Scale       =       0.3333333333333333 [-]
	 SCS Opposite-Spin Scale   =       1.2000000000000000 [-]
	 SCS Same-Spin Energy      =      -0.0506299405846947 [Eh]
	 SCS Opposite-Spin Energy  =      -0.5907816982837418 [Eh]
	 SCS Correlation Energy    =      -0.6414116388684366 [Eh]
	 SCS Total Energy          =    -149.7845811033958512 [Eh]
	-----------------------------------------------------------

  Dipole Moment: [D]
     X:    -2.5597      Y:     1.1355      Z:    -0.0804     Total:     2.8014

*** Psi4 exiting successfully. Buy a developer a beer!
