                               Psi4 1.3.2 release

  ==> Input File <==

--------------------------------------------------------------------------
#psi4
#
memory 32 gb

molecule  {
0 1
  O        0.0723890     1.0222580     0.5077940
  C       -0.7418240    -1.0387750     0.1269710
  C        0.6659334    -1.0860449     0.0656062
  C       -1.0714850     0.2632460     0.3951280
  C        1.1400710     0.1773790     0.3033030
  C       -2.3562760     1.0018630     0.5198060
  C        2.4737694     0.8348226     0.3466542
  C       -1.6830070    -2.1819480    -0.0885940
  C        1.5125100    -2.3214750    -0.1762480
  C       -2.8486430     1.5569180    -0.8246800
  C        2.8130920     1.5744450    -0.9510270
  H        3.2336060     0.0303330     0.5193890
  H        2.5305840     1.4962520     1.1974230
  H       -2.2159340     1.8224920     1.2344330
  H       -3.1130010     0.3316860     0.9491040
  H       -1.4229750    -3.0387300     0.5441040
  H       -2.7119990    -1.8902510     0.1457090
  H       -1.6650160    -2.5262940    -1.1310850
  H        2.5139960    -2.0634500    -0.5387900
  H        1.6307130    -2.9166200     0.7385330
  H        1.0429930    -2.9642660    -0.9286680
  H        2.8128660     0.8932150    -1.8063400
  H        3.7971100     2.0487280    -0.8855010
  H        2.0638530     2.3513280    -1.1313670
  H       -2.0994070     2.2298930    -1.2537260
  H       -3.7828960     2.1123340    -0.7007770
  H       -3.0218850     0.7415120    -1.5334270
units angstrom
no_reorient  #important for SAPT in psi4, default
symmetry c1  #important for SAPT in psi4, default
}

set PROPERTIES_ORIGIN ["COM"]
properties('MP2/aug-cc-pvtz', properties = ['dipole'])
--------------------------------------------------------------------------

    Molecular point group: c1
  Charge       = 0
  Multiplicity = 1
  Basis Set: AUG-CC-PVTZ
    Blend: AUG-CC-PVTZ
  Basis Set: (AUG-CC-PVTZ AUX)
    Blend: AUG-CC-PVTZ-JKFIT

    Orbital Energies [Eh]
    ---------------------

    Doubly Occupied:

       1A    -20.598389     2A    -11.269538     3A    -11.268577
       4A    -11.230723     5A    -11.229993     6A    -11.223577
       7A    -11.223260     8A    -11.215646     9A    -11.215484
      10A    -11.214674    11A    -11.213756    12A     -1.430162
      13A     -1.100899    14A     -1.078603    15A     -1.036822
      16A     -0.988360    17A     -0.932802    18A     -0.927233
      19A     -0.870521    20A     -0.815531    21A     -0.748161
      22A     -0.725725    23A     -0.658283    24A     -0.627374
      25A     -0.611875    26A     -0.608707    27A     -0.585902
      28A     -0.583754    29A     -0.567299    30A     -0.554827
      31A     -0.548369    32A     -0.534416    33A     -0.527109
      34A     -0.523600    35A     -0.519510    36A     -0.506292
      37A     -0.495035    38A     -0.492484    39A     -0.480510
      40A     -0.471601    41A     -0.363927    42A     -0.277760

  @DF-RHF Final Energy:  -463.00989552960073

   => Energetics <=

    Nuclear Repulsion Energy =            629.8725054169914301
    One-Electron Energy =               -1877.5706601893357401
    Two-Electron Energy =                 784.6882592427436975
    Total Energy =                       -463.0098955296007261
  Basis Set: (AUG-CC-PVTZ AUX)
    Blend: AUG-CC-PVTZ-RI
    Molecular point group: c1

    Geometry (in Angstrom), charge = 0, multiplicity = 1:

       Center              X                  Y                   Z               Mass
    ------------   -----------------  -----------------  -----------------  -----------------
         O            0.075038448305     1.019866732394     0.507081917241    15.994914619570
         C           -0.739174551695    -1.041166267606     0.126258917241    12.000000000000
         C            0.668582848305    -1.088436167606     0.064894117241    12.000000000000
         C           -1.068835551695     0.260854732394     0.394415917241    12.000000000000
         C            1.142720448305     0.174987732394     0.302590917241    12.000000000000
         C           -2.353626551695     0.999471732394     0.519093917241    12.000000000000
         C            2.476418848305     0.832431332394     0.345942117241    12.000000000000
         C           -1.680357551695    -2.184339267606    -0.089306082759    12.000000000000
         C            1.515159448305    -2.323866267606    -0.176960082759    12.000000000000
         C           -2.845993551695     1.554526732394    -0.825392082759    12.000000000000
         C            2.815741448305     1.572053732394    -0.951739082759    12.000000000000
         H            3.236255448305     0.027941732394     0.518676917241     1.007825032230
         H            2.533233448305     1.493860732394     1.196710917241     1.007825032230
         H           -2.213284551695     1.820100732394     1.233720917241     1.007825032230
         H           -3.110351551695     0.329294732394     0.948391917241     1.007825032230
         H           -1.420325551695    -3.041121267606     0.543391917241     1.007825032230
         H           -2.709349551695    -1.892642267606     0.144996917241     1.007825032230
         H           -1.662366551695    -2.528685267606    -1.131797082759     1.007825032230
         H            2.516645448305    -2.065841267606    -0.539502082759     1.007825032230
         H            1.633362448305    -2.919011267606     0.737820917241     1.007825032230
         H            1.045642448305    -2.966657267606    -0.929380082759     1.007825032230
         H            2.815515448305     0.890823732394    -1.807052082759     1.007825032230
         H            3.799759448305     2.046336732394    -0.886213082759     1.007825032230
         H            2.066502448305     2.348936732394    -1.132079082759     1.007825032230
         H           -2.096757551695     2.227501732394    -1.254438082759     1.007825032230
         H           -3.780246551695     2.109942732394    -0.701489082759     1.007825032230
         H           -3.019235551695     0.739120732394    -1.534139082759     1.007825032230

  Basis Set: AUG-CC-PVTZ
    Blend: AUG-CC-PVTZ
  Basis Set: (AUG-CC-PVTZ AUX)
    Blend: AUG-CC-PVTZ-JKFIT
	 Reference Energy          =    -463.0098955296007261 [Eh]
	 Singles Energy            =      -0.0000000000000000 [Eh]
	 Same-Spin Energy          =      -0.4974290908847379 [Eh]
	 Opposite-Spin Energy      =      -1.6674975637445815 [Eh]
	 Correlation Energy        =      -2.1649266546293191 [Eh]
	 Total Energy              =    -465.1748221842300381 [Eh]

	 ================> DF-SCS-MP2 Energies <==================
	-----------------------------------------------------------
	 SCS Same-Spin Scale       =       0.3333333333333333 [-]
	 SCS Opposite-Spin Scale   =       1.2000000000000000 [-]
	 SCS Same-Spin Energy      =      -0.1658096969615793 [Eh]
	 SCS Opposite-Spin Energy  =      -2.0009970764934977 [Eh]
	 SCS Correlation Energy    =      -2.1668067734550771 [Eh]
	 SCS Total Energy          =    -465.1767023030557766 [Eh]
	-----------------------------------------------------------

  Dipole Moment: [D]
     X:    -0.0433      Y:    -0.6296      Z:    -0.2129     Total:     0.6660

*** Psi4 exiting successfully. Buy a developer a beer!
