                               Psi4 1.3.2 release

  ==> Input File <==

--------------------------------------------------------------------------
#psi4
#
memory 32 gb

molecule  {
0 1
  O        0.0723890     1.0222580     0.5077940
  C       -0.7418240    -1.0387750     0.1269710
  C        0.6214884    -1.0697404     0.0724109
  C       -1.0714850     0.2632460     0.3951280
  C        1.1400710     0.1773790     0.3033030
  C       -2.3562760     1.0018630     0.5198060
  C        2.4502690     0.8796922     0.3580773
  C       -1.6830070    -2.1819480    -0.0885940
  C        1.5125100    -2.3214750    -0.1762480
  C       -2.8486430     1.5569180    -0.8246800
  C        2.8130920     1.5744450    -0.9510270
  H        3.2336060     0.0303330     0.5193890
  H        2.5305840     1.4962520     1.1974230
  H       -2.2159340     1.8224920     1.2344330
  H       -3.1130010     0.3316860     0.9491040
  H       -1.4229750    -3.0387300     0.5441040
  H       -2.7119990    -1.8902510     0.1457090
  H       -1.6650160    -2.5262940    -1.1310850
  H        2.5139960    -2.0634500    -0.5387900
  H        1.6307130    -2.9166200     0.7385330
  H        1.0429930    -2.9642660    -0.9286680
  H        2.8128660     0.8932150    -1.8063400
  H        3.7971100     2.0487280    -0.8855010
  H        2.0638530     2.3513280    -1.1313670
  H       -2.0994070     2.2298930    -1.2537260
  H       -3.7828960     2.1123340    -0.7007770
  H       -3.0218850     0.7415120    -1.5334270
units angstrom
no_reorient  #important for SAPT in psi4, default
symmetry c1  #important for SAPT in psi4, default
}

set PROPERTIES_ORIGIN ["COM"]
properties('MP2/aug-cc-pvtz', properties = ['dipole'])
--------------------------------------------------------------------------

    Molecular point group: c1
  Charge       = 0
  Multiplicity = 1
  Basis Set: AUG-CC-PVTZ
    Blend: AUG-CC-PVTZ
  Basis Set: (AUG-CC-PVTZ AUX)
    Blend: AUG-CC-PVTZ-JKFIT

    Orbital Energies [Eh]
    ---------------------

    Doubly Occupied:

       1A    -20.598102     2A    -11.269578     3A    -11.267105
       4A    -11.232730     5A    -11.229829     6A    -11.224464
       7A    -11.223890     8A    -11.215553     9A    -11.214991
      10A    -11.214842    11A    -11.210573    12A     -1.431411
      13A     -1.106590    14A     -1.078074    15A     -1.038054
      16A     -0.985163    17A     -0.934435    18A     -0.925799
      19A     -0.871450    20A     -0.816125    21A     -0.745844
      22A     -0.734098    23A     -0.660054    24A     -0.627907
      25A     -0.614346    26A     -0.606236    27A     -0.585521
      28A     -0.582511    29A     -0.566947    30A     -0.552611
      31A     -0.546378    32A     -0.536922    33A     -0.528035
      34A     -0.527337    35A     -0.512186    36A     -0.509257
      37A     -0.493500    38A     -0.492281    39A     -0.477145
      40A     -0.469364    41A     -0.370781    42A     -0.275338

  @DF-RHF Final Energy:  -462.99646861448491

   => Energetics <=

    Nuclear Repulsion Energy =            630.5049236177834473
    One-Electron Energy =               -1878.7960676051625342
    Two-Electron Energy =                 785.2946753728942895
    Total Energy =                       -462.9964686144849111
  Basis Set: (AUG-CC-PVTZ AUX)
    Blend: AUG-CC-PVTZ-RI
    Molecular point group: c1

    Geometry (in Angstrom), charge = 0, multiplicity = 1:

       Center              X                  Y                   Z               Mass
    ------------   -----------------  -----------------  -----------------  -----------------
         O            0.080398323291     1.015041011618     0.505644016673    15.994914619570
         C           -0.733814676709    -1.045991988382     0.124821016673    12.000000000000
         C            0.629497723291    -1.076957388382     0.070260916673    12.000000000000
         C           -1.063475676709     0.256029011618     0.392978016673    12.000000000000
         C            1.148080323291     0.170162011618     0.301153016673    12.000000000000
         C           -2.348266676709     0.994646011618     0.517656016673    12.000000000000
         C            2.458278323291     0.872475211618     0.355927316673    12.000000000000
         C           -1.674997676709    -2.189164988382    -0.090743983327    12.000000000000
         C            1.520519323291    -2.328691988382    -0.178397983327    12.000000000000
         C           -2.840633676709     1.549701011618    -0.826829983327    12.000000000000
         C            2.821101323291     1.567228011618    -0.953176983327    12.000000000000
         H            3.241615323291     0.023116011618     0.517239016673     1.007825032230
         H            2.538593323291     1.489035011618     1.195273016673     1.007825032230
         H           -2.207924676709     1.815275011618     1.232283016673     1.007825032230
         H           -3.104991676709     0.324469011618     0.946954016673     1.007825032230
         H           -1.414965676709    -3.045946988382     0.541954016673     1.007825032230
         H           -2.703989676709    -1.897467988382     0.143559016673     1.007825032230
         H           -1.657006676709    -2.533510988382    -1.133234983327     1.007825032230
         H            2.522005323291    -2.070666988382    -0.540939983327     1.007825032230
         H            1.638722323291    -2.923836988382     0.736383016673     1.007825032230
         H            1.051002323291    -2.971482988382    -0.930817983327     1.007825032230
         H            2.820875323291     0.885998011618    -1.808489983327     1.007825032230
         H            3.805119323291     2.041511011618    -0.887650983327     1.007825032230
         H            2.071862323291     2.344111011618    -1.133516983327     1.007825032230
         H           -2.091397676709     2.222676011618    -1.255875983327     1.007825032230
         H           -3.774886676709     2.105117011618    -0.702926983327     1.007825032230
         H           -3.013875676709     0.734295011618    -1.535576983327     1.007825032230

  Basis Set: AUG-CC-PVTZ
    Blend: AUG-CC-PVTZ
  Basis Set: (AUG-CC-PVTZ AUX)
    Blend: AUG-CC-PVTZ-JKFIT
	 Reference Energy          =    -462.9964686144849111 [Eh]
	 Singles Energy            =      -0.0000000000000000 [Eh]
	 Same-Spin Energy          =      -0.4983477662183120 [Eh]
	 Opposite-Spin Energy      =      -1.6687782430241045 [Eh]
	 Correlation Energy        =      -2.1671260092424163 [Eh]
	 Total Energy              =    -465.1635946237273060 [Eh]

	 ================> DF-SCS-MP2 Energies <==================
	-----------------------------------------------------------
	 SCS Same-Spin Scale       =       0.3333333333333333 [-]
	 SCS Opposite-Spin Scale   =       1.2000000000000000 [-]
	 SCS Same-Spin Energy      =      -0.1661159220727706 [Eh]
	 SCS Opposite-Spin Energy  =      -2.0025338916289255 [Eh]
	 SCS Correlation Energy    =      -2.1686498137016961 [Eh]
	 SCS Total Energy          =    -465.1651184281865881 [Eh]
	-----------------------------------------------------------

  Dipole Moment: [D]
     X:    -0.0802      Y:    -0.5824      Z:    -0.2111     Total:     0.6247

*** Psi4 exiting successfully. Buy a developer a beer!
