                               Psi4 1.3.2 release

  ==> Input File <==

--------------------------------------------------------------------------
#psi4
#
memory 32 gb

molecule  {
0 1
  O        0.0723890     1.0222580     0.5077940
  C       -0.7418240    -1.0387750     0.1269710
  C        0.7336670    -1.1076096     0.0559448
  C       -1.0714850     0.2632460     0.3951280
  C        1.1400710     0.1773790     0.3033030
  C       -2.3562760     1.0018630     0.5198060
  C        2.5059649     0.7660338     0.3294249
  C       -1.6830070    -2.1819480    -0.0885940
  C        1.5125100    -2.3214750    -0.1762480
  C       -2.8486430     1.5569180    -0.8246800
  C        2.8130920     1.5744450    -0.9510270
  H        3.2336060     0.0303330     0.5193890
  H        2.5305840     1.4962520     1.1974230
  H       -2.2159340     1.8224920     1.2344330
  H       -3.1130010     0.3316860     0.9491040
  H       -1.4229750    -3.0387300     0.5441040
  H       -2.7119990    -1.8902510     0.1457090
  H       -1.6650160    -2.5262940    -1.1310850
  H        2.5139960    -2.0634500    -0.5387900
  H        1.6307130    -2.9166200     0.7385330
  H        1.0429930    -2.9642660    -0.9286680
  H        2.8128660     0.8932150    -1.8063400
  H        3.7971100     2.0487280    -0.8855010
  H        2.0638530     2.3513280    -1.1313670
  H       -2.0994070     2.2298930    -1.2537260
  H       -3.7828960     2.1123340    -0.7007770
  H       -3.0218850     0.7415120    -1.5334270
units angstrom
no_reorient  #important for SAPT in psi4, default
symmetry c1  #important for SAPT in psi4, default
}

set PROPERTIES_ORIGIN ["COM"]
properties('MP2/aug-cc-pvtz', properties = ['dipole'])
--------------------------------------------------------------------------

    Molecular point group: c1
  Charge       = 0
  Multiplicity = 1
  Basis Set: AUG-CC-PVTZ
    Blend: AUG-CC-PVTZ
  Basis Set: (AUG-CC-PVTZ AUX)
    Blend: AUG-CC-PVTZ-JKFIT

    Orbital Energies [Eh]
    ---------------------

    Doubly Occupied:

       1A    -20.599356     2A    -11.271571     3A    -11.269986
       4A    -11.230473     5A    -11.229078     6A    -11.222561
       7A    -11.222091     8A    -11.218392     9A    -11.216833
      10A    -11.215581    11A    -11.214966    12A     -1.429139
      13A     -1.096153    14A     -1.079267    15A     -1.035063
      16A     -0.993659    17A     -0.932413    18A     -0.927326
      19A     -0.869624    20A     -0.816337    21A     -0.751997
      22A     -0.714499    23A     -0.658822    24A     -0.627548
      25A     -0.613857    26A     -0.607756    27A     -0.589116
      28A     -0.583087    29A     -0.569200    30A     -0.557681
      31A     -0.552963    32A     -0.535427    33A     -0.531462
      34A     -0.523970    35A     -0.520858    36A     -0.509391
      37A     -0.494422    38A     -0.490683    39A     -0.484637
      40A     -0.456094    41A     -0.354768    42A     -0.281267

  @DF-RHF Final Energy:  -463.00705915673842

   => Energetics <=

    Nuclear Repulsion Energy =            629.0355811970898685
    One-Electron Energy =               -1875.8865359860396893
    Two-Electron Energy =                 783.8438956322113427
    Total Energy =                       -463.0070591567384781
  Basis Set: (AUG-CC-PVTZ AUX)
    Blend: AUG-CC-PVTZ-RI
    Molecular point group: c1

    Geometry (in Angstrom), charge = 0, multiplicity = 1:

       Center              X                  Y                   Z               Mass
    ------------   -----------------  -----------------  -----------------  -----------------
         O            0.067155538152     1.026994271043     0.509203190945    15.994914619570
         C           -0.747057461848    -1.034038728957     0.128380190945    12.000000000000
         C            0.728433538152    -1.102873328957     0.057353990945    12.000000000000
         C           -1.076718461848     0.267982271043     0.396537190945    12.000000000000
         C            1.134837538152     0.182115271043     0.304712190945    12.000000000000
         C           -2.361509461848     1.006599271043     0.521215190945    12.000000000000
         C            2.500731438152     0.770770071043     0.330834090945    12.000000000000
         C           -1.688240461848    -2.177211728957    -0.087184809055    12.000000000000
         C            1.507276538152    -2.316738728957    -0.174838809055    12.000000000000
         C           -2.853876461848     1.561654271043    -0.823270809055    12.000000000000
         C            2.807858538152     1.579181271043    -0.949617809055    12.000000000000
         H            3.228372538152     0.035069271043     0.520798190945     1.007825032230
         H            2.525350538152     1.500988271043     1.198832190945     1.007825032230
         H           -2.221167461848     1.827228271043     1.235842190945     1.007825032230
         H           -3.118234461848     0.336422271043     0.950513190945     1.007825032230
         H           -1.428208461848    -3.033993728957     0.545513190945     1.007825032230
         H           -2.717232461848    -1.885514728957     0.147118190945     1.007825032230
         H           -1.670249461848    -2.521557728957    -1.129675809055     1.007825032230
         H            2.508762538152    -2.058713728957    -0.537380809055     1.007825032230
         H            1.625479538152    -2.911883728957     0.739942190945     1.007825032230
         H            1.037759538152    -2.959529728957    -0.927258809055     1.007825032230
         H            2.807632538152     0.897951271043    -1.804930809055     1.007825032230
         H            3.791876538152     2.053464271043    -0.884091809055     1.007825032230
         H            2.058619538152     2.356064271043    -1.129957809055     1.007825032230
         H           -2.104640461848     2.234629271043    -1.252316809055     1.007825032230
         H           -3.788129461848     2.117070271043    -0.699367809055     1.007825032230
         H           -3.027118461848     0.746248271043    -1.532017809055     1.007825032230

  Basis Set: AUG-CC-PVTZ
    Blend: AUG-CC-PVTZ
  Basis Set: (AUG-CC-PVTZ AUX)
    Blend: AUG-CC-PVTZ-JKFIT
	 Reference Energy          =    -463.0070591567384213 [Eh]
	 Singles Energy            =      -0.0000000000000000 [Eh]
	 Same-Spin Energy          =      -0.4967054565184172 [Eh]
	 Opposite-Spin Energy      =      -1.6669278372112595 [Eh]
	 Correlation Energy        =      -2.1636332937296765 [Eh]
	 Total Energy              =    -465.1706924504680956 [Eh]

	 ================> DF-SCS-MP2 Energies <==================
	-----------------------------------------------------------
	 SCS Same-Spin Scale       =       0.3333333333333333 [-]
	 SCS Opposite-Spin Scale   =       1.2000000000000000 [-]
	 SCS Same-Spin Energy      =      -0.1655684855061391 [Eh]
	 SCS Opposite-Spin Energy  =      -2.0003134046535114 [Eh]
	 SCS Correlation Energy    =      -2.1658818901596506 [Eh]
	 SCS Total Energy          =    -465.1729410468980745 [Eh]
	-----------------------------------------------------------

  Dipole Moment: [D]
     X:    -0.0172      Y:    -0.6995      Z:    -0.2282     Total:     0.7360

*** Psi4 exiting successfully. Buy a developer a beer!
