                               Psi4 1.3.2 release

  ==> Input File <==

--------------------------------------------------------------------------
#psi4
#
memory 32 gb

molecule  {
0 1
  O        0.0723890     1.0222580     0.5077940
  C       -0.7418240    -1.0387750     0.1269710
  C        0.6883760    -1.0936210     0.0623120
  C       -1.0714850     0.2632460     0.3951280
  C        0.9849750     0.3001097     0.3330082
  C       -2.3562760     1.0018630     0.5198060
  C        2.4849120     0.8120840     0.3409220
  C       -1.6830070    -2.1819480    -0.0885940
  C        1.5125100    -2.3214750    -0.1762480
  C       -2.8486430     1.5569180    -0.8246800
  C        2.8130920     1.5744450    -0.9510270
  H        3.2336060     0.0303330     0.5193890
  H        2.5305840     1.4962520     1.1974230
  H       -2.2159340     1.8224920     1.2344330
  H       -3.1130010     0.3316860     0.9491040
  H       -1.4229750    -3.0387300     0.5441040
  H       -2.7119990    -1.8902510     0.1457090
  H       -1.6650160    -2.5262940    -1.1310850
  H        2.5139960    -2.0634500    -0.5387900
  H        1.6307130    -2.9166200     0.7385330
  H        1.0429930    -2.9642660    -0.9286680
  H        2.8128660     0.8932150    -1.8063400
  H        3.7971100     2.0487280    -0.8855010
  H        2.0638530     2.3513280    -1.1313670
  H       -2.0994070     2.2298930    -1.2537260
  H       -3.7828960     2.1123340    -0.7007770
  H       -3.0218850     0.7415120    -1.5334270
units angstrom
no_reorient  #important for SAPT in psi4, default
symmetry c1  #important for SAPT in psi4, default
}

set PROPERTIES_ORIGIN ["COM"]
properties('MP2/aug-cc-pvtz', properties = ['dipole'])
--------------------------------------------------------------------------

    Molecular point group: c1
  Charge       = 0
  Multiplicity = 1
  Basis Set: AUG-CC-PVTZ
    Blend: AUG-CC-PVTZ
  Basis Set: (AUG-CC-PVTZ AUX)
    Blend: AUG-CC-PVTZ-JKFIT

    Orbital Energies [Eh]
    ---------------------

    Doubly Occupied:

       1A    -20.631004     2A    -11.283812     3A    -11.257428
       4A    -11.232852     5A    -11.228582     6A    -11.223793
       7A    -11.221547     8A    -11.220591     9A    -11.215283
      10A    -11.212861    11A    -11.204644    12A     -1.537119
      13A     -1.104725    14A     -1.069835    15A     -1.030447
      16A     -0.983508    17A     -0.949015    18A     -0.929625
      19A     -0.862862    20A     -0.821093    21A     -0.772446
      22A     -0.728334    23A     -0.688022    24A     -0.664887
      25A     -0.610668    26A     -0.604423    27A     -0.598217
      28A     -0.577919    29A     -0.572204    30A     -0.553862
      31A     -0.548393    32A     -0.546596    33A     -0.533530
      34A     -0.530018    35A     -0.517189    36A     -0.506796
      37A     -0.494065    38A     -0.488423    39A     -0.479802
      40A     -0.430681    41A     -0.360277    42A     -0.263380

  @DF-RHF Final Energy:  -462.96399161250736

   => Energetics <=

    Nuclear Repulsion Energy =            631.7873905244184698
    One-Electron Energy =               -1880.9212483407670788
    Two-Electron Energy =                 786.1698662038412522
    Total Energy =                       -462.9639916125073569
  Basis Set: (AUG-CC-PVTZ AUX)
    Blend: AUG-CC-PVTZ-RI
    Molecular point group: c1

    Geometry (in Angstrom), charge = 0, multiplicity = 1:

       Center              X                  Y                   Z               Mass
    ------------   -----------------  -----------------  -----------------  -----------------
         O            0.084623831531     1.012576493368     0.505450669462    15.994914619570
         C           -0.729589168469    -1.048456506632     0.124627669462    12.000000000000
         C            0.700610831531    -1.103302506632     0.059968669462    12.000000000000
         C           -1.059250168469     0.253564493368     0.392784669462    12.000000000000
         C            0.997209831531     0.290428193368     0.330664869462    12.000000000000
         C           -2.344041168469     0.992181493368     0.517462669462    12.000000000000
         C            2.497146831531     0.802402493368     0.338578669462    12.000000000000
         C           -1.670772168469    -2.191629506632    -0.090937330538    12.000000000000
         C            1.524744831531    -2.331156506632    -0.178591330538    12.000000000000
         C           -2.836408168469     1.547236493368    -0.827023330538    12.000000000000
         C            2.825326831531     1.564763493368    -0.953370330538    12.000000000000
         H            3.245840831531     0.020651493368     0.517045669462     1.007825032230
         H            2.542818831531     1.486570493368     1.195079669462     1.007825032230
         H           -2.203699168469     1.812810493368     1.232089669462     1.007825032230
         H           -3.100766168469     0.322004493368     0.946760669462     1.007825032230
         H           -1.410740168469    -3.048411506632     0.541760669462     1.007825032230
         H           -2.699764168469    -1.899932506632     0.143365669462     1.007825032230
         H           -1.652781168469    -2.535975506632    -1.133428330538     1.007825032230
         H            2.526230831531    -2.073131506632    -0.541133330538     1.007825032230
         H            1.642947831531    -2.926301506632     0.736189669462     1.007825032230
         H            1.055227831531    -2.973947506632    -0.931011330538     1.007825032230
         H            2.825100831531     0.883533493368    -1.808683330538     1.007825032230
         H            3.809344831531     2.039046493368    -0.887844330538     1.007825032230
         H            2.076087831531     2.341646493368    -1.133710330538     1.007825032230
         H           -2.087172168469     2.220211493368    -1.256069330538     1.007825032230
         H           -3.770661168469     2.102652493368    -0.703120330538     1.007825032230
         H           -3.009650168469     0.731830493368    -1.535770330538     1.007825032230

  Basis Set: AUG-CC-PVTZ
    Blend: AUG-CC-PVTZ
  Basis Set: (AUG-CC-PVTZ AUX)
    Blend: AUG-CC-PVTZ-JKFIT
	 Reference Energy          =    -462.9639916125073569 [Eh]
	 Singles Energy            =      -0.0000000000000000 [Eh]
	 Same-Spin Energy          =      -0.4973907242446777 [Eh]
	 Opposite-Spin Energy      =      -1.6646202013493716 [Eh]
	 Correlation Energy        =      -2.1620109255940494 [Eh]
	 Total Energy              =    -465.1260025381014316 [Eh]

	 ================> DF-SCS-MP2 Energies <==================
	-----------------------------------------------------------
	 SCS Same-Spin Scale       =       0.3333333333333333 [-]
	 SCS Opposite-Spin Scale   =       1.2000000000000000 [-]
	 SCS Same-Spin Energy      =      -0.1657969080815592 [Eh]
	 SCS Opposite-Spin Energy  =      -1.9975442416192459 [Eh]
	 SCS Correlation Energy    =      -2.1633411497008050 [Eh]
	 SCS Total Energy          =    -465.1273327622081410 [Eh]
	-----------------------------------------------------------

  Dipole Moment: [D]
     X:    -0.2478      Y:    -0.3924      Z:    -0.1139     Total:     0.4779

*** Psi4 exiting successfully. Buy a developer a beer!
