                               Psi4 1.3.2 release

  ==> Input File <==

--------------------------------------------------------------------------
#psi4
#
memory 32 gb

molecule  {
0 1
  O        0.0723890     1.0222580     0.5077940
  C       -0.7418240    -1.0387750     0.1269710
  C        0.6883760    -1.0936210     0.0623120
  C       -1.0714850     0.2632460     0.3951280
  C        1.1400710     0.1773790     0.3033030
  C       -2.3562760     1.0018630     0.5198060
  C        2.4849120     0.8120840     0.3409220
  C       -1.6830070    -2.1819480    -0.0885940
  C        1.5125100    -2.3214750    -0.1762480
  C       -2.8486430     1.5569180    -0.8246800
  C        2.8130920     1.5744450    -0.9510270
  H        3.2336060     0.0303330     0.5193890
  H        2.5305840     1.4962520     1.1974230
  H       -2.2159340     1.8224920     1.2344330
  H       -3.1130010     0.3316860     0.9491040
  H       -1.4229750    -3.0387300     0.5441040
  H       -2.7119990    -1.8902510     0.1457090
  H       -1.6650160    -2.5262940    -1.1310850
  H        2.5139960    -2.0634500    -0.5387900
  H        1.6307130    -2.9166200     0.7385330
  H        1.0429930    -2.9642660    -0.9286680
  H        2.8128660     0.8932150    -1.8063400
  H        3.7971100     2.0487280    -0.8855010
  H        2.0638530     2.3513280    -1.1313670
  H       -2.0994070     2.2298930    -1.2537260
  H       -3.7828960     2.1123340    -0.7007770
  H       -3.0218850     0.7415120    -1.5334270
units angstrom
no_reorient  #important for SAPT in psi4, default
symmetry c1  #important for SAPT in psi4, default
}

set PROPERTIES_ORIGIN ["COM"]
properties('MP2/aug-cc-pvtz', properties = ['dipole'])
--------------------------------------------------------------------------

    Molecular point group: c1
  Charge       = 0
  Multiplicity = 1
  Basis Set: AUG-CC-PVTZ
    Blend: AUG-CC-PVTZ
  Basis Set: (AUG-CC-PVTZ AUX)
    Blend: AUG-CC-PVTZ-JKFIT

    Orbital Energies [Eh]
    ---------------------

    Doubly Occupied:

       1A    -20.598642     2A    -11.269632     3A    -11.269462
       4A    -11.230126     5A    -11.229989     6A    -11.223199
       7A    -11.222883     8A    -11.216228     9A    -11.215493
      10A    -11.215150    11A    -11.214668    12A     -1.429714
      13A     -1.098768    14A     -1.078881    15A     -1.036213
      16A     -0.990078    17A     -0.932339    18A     -0.927591
      19A     -0.870151    20A     -0.815572    21A     -0.749415
      22A     -0.721755    23A     -0.658028    24A     -0.627313
      25A     -0.611008    26A     -0.609738    27A     -0.586817
      28A     -0.583702    29A     -0.567728    30A     -0.555817
      31A     -0.549662    32A     -0.533433    33A     -0.527924
      34A     -0.523894    35A     -0.521387    36A     -0.505345
      37A     -0.495265    38A     -0.492530    39A     -0.483862
      40A     -0.467211    41A     -0.360728    42A     -0.278953

  @DF-RHF Final Energy:  -463.01201220028065

   => Energetics <=

    Nuclear Repulsion Energy =            629.5786685585522946
    One-Electron Energy =               -1876.9887671212363784
    Two-Electron Energy =                 784.3980863624035464
    Total Energy =                       -463.0120122002806511
  Basis Set: (AUG-CC-PVTZ AUX)
    Blend: AUG-CC-PVTZ-RI
    Molecular point group: c1

    Geometry (in Angstrom), charge = 0, multiplicity = 1:

       Center              X                  Y                   Z               Mass
    ------------   -----------------  -----------------  -----------------  -----------------
         O            0.072389078761     1.022258108443     0.507793965085    15.994914619570
         C           -0.741823921239    -1.038774891557     0.126970965085    12.000000000000
         C            0.688376078761    -1.093620891557     0.062311965085    12.000000000000
         C           -1.071484921239     0.263246108443     0.395127965085    12.000000000000
         C            1.140071078761     0.177379108443     0.303302965085    12.000000000000
         C           -2.356275921239     1.001863108443     0.519805965085    12.000000000000
         C            2.484912078761     0.812084108443     0.340921965085    12.000000000000
         C           -1.683006921239    -2.181947891557    -0.088594034915    12.000000000000
         C            1.512510078761    -2.321474891557    -0.176248034915    12.000000000000
         C           -2.848642921239     1.556918108443    -0.824680034915    12.000000000000
         C            2.813092078761     1.574445108443    -0.951027034915    12.000000000000
         H            3.233606078761     0.030333108443     0.519388965085     1.007825032230
         H            2.530584078761     1.496252108443     1.197422965085     1.007825032230
         H           -2.215933921239     1.822492108443     1.234432965085     1.007825032230
         H           -3.113000921239     0.331686108443     0.949103965085     1.007825032230
         H           -1.422974921239    -3.038729891557     0.544103965085     1.007825032230
         H           -2.711998921239    -1.890250891557     0.145708965085     1.007825032230
         H           -1.665015921239    -2.526293891557    -1.131085034915     1.007825032230
         H            2.513996078761    -2.063449891557    -0.538790034915     1.007825032230
         H            1.630713078761    -2.916619891557     0.738532965085     1.007825032230
         H            1.042993078761    -2.964265891557    -0.928668034915     1.007825032230
         H            2.812866078761     0.893215108443    -1.806340034915     1.007825032230
         H            3.797110078761     2.048728108443    -0.885501034915     1.007825032230
         H            2.063853078761     2.351328108443    -1.131367034915     1.007825032230
         H           -2.099406921239     2.229893108443    -1.253726034915     1.007825032230
         H           -3.782895921239     2.112334108443    -0.700777034915     1.007825032230
         H           -3.021884921239     0.741512108443    -1.533427034915     1.007825032230

  Basis Set: AUG-CC-PVTZ
    Blend: AUG-CC-PVTZ
  Basis Set: (AUG-CC-PVTZ AUX)
    Blend: AUG-CC-PVTZ-JKFIT
	 Reference Energy          =    -463.0120122002806511 [Eh]
	 Singles Energy            =      -0.0000000000000000 [Eh]
	 Same-Spin Energy          =      -0.4970988199916294 [Eh]
	 Opposite-Spin Energy      =      -1.6671244300762815 [Eh]
	 Correlation Energy        =      -2.1642232500679111 [Eh]
	 Total Energy              =    -465.1762354503485426 [Eh]

	 ================> DF-SCS-MP2 Energies <==================
	-----------------------------------------------------------
	 SCS Same-Spin Scale       =       0.3333333333333333 [-]
	 SCS Opposite-Spin Scale   =       1.2000000000000000 [-]
	 SCS Same-Spin Energy      =      -0.1656996066638765 [Eh]
	 SCS Opposite-Spin Energy  =      -2.0005493160915377 [Eh]
	 SCS Correlation Energy    =      -2.1662489227554143 [Eh]
	 SCS Total Energy          =    -465.1782611230360658 [Eh]
	-----------------------------------------------------------

  Dipole Moment: [D]
     X:    -0.0309      Y:    -0.6529      Z:    -0.2162     Total:     0.6884

*** Psi4 exiting successfully. Buy a developer a beer!
