                               Psi4 1.3.2 release

  ==> Input File <==

--------------------------------------------------------------------------
#psi4
#
memory 32 gb

molecule  {
0 1
  O        0.0723890     1.0222580     0.5077940
  C       -0.7418240    -1.0387750     0.1269710
  C        0.6883760    -1.0936210     0.0623120
  C       -1.0714850     0.2632460     0.3951280
  C        1.1744070     0.1086488     0.3160504
  C       -2.3562760     1.0018630     0.5198060
  C        2.4849120     0.8120840     0.3409220
  C       -1.6830070    -2.1819480    -0.0885940
  C        1.5125100    -2.3214750    -0.1762480
  C       -2.8486430     1.5569180    -0.8246800
  C        2.8130920     1.5744450    -0.9510270
  H        3.1909488    -0.0081031     0.5207359
  H        2.5305840     1.4962520     1.1974230
  H       -2.2159340     1.8224920     1.2344330
  H       -3.1130010     0.3316860     0.9491040
  H       -1.4229750    -3.0387300     0.5441040
  H       -2.7119990    -1.8902510     0.1457090
  H       -1.6650160    -2.5262940    -1.1310850
  H        2.5139960    -2.0634500    -0.5387900
  H        1.6307130    -2.9166200     0.7385330
  H        1.0429930    -2.9642660    -0.9286680
  H        2.8128660     0.8932150    -1.8063400
  H        3.7971100     2.0487280    -0.8855010
  H        2.0638530     2.3513280    -1.1313670
  H       -2.0994070     2.2298930    -1.2537260
  H       -3.7828960     2.1123340    -0.7007770
  H       -3.0218850     0.7415120    -1.5334270
units angstrom
no_reorient  #important for SAPT in psi4, default
symmetry c1  #important for SAPT in psi4, default
}

set PROPERTIES_ORIGIN ["COM"]
properties('MP2/aug-cc-pvtz', properties = ['dipole'])
--------------------------------------------------------------------------

    Molecular point group: c1
  Charge       = 0
  Multiplicity = 1
  Basis Set: AUG-CC-PVTZ
    Blend: AUG-CC-PVTZ
  Basis Set: (AUG-CC-PVTZ AUX)
    Blend: AUG-CC-PVTZ-JKFIT

    Orbital Energies [Eh]
    ---------------------

    Doubly Occupied:

       1A    -20.587005     2A    -11.272055     3A    -11.264960
       4A    -11.231000     5A    -11.229972     6A    -11.224422
       7A    -11.222769     8A    -11.216114     9A    -11.215934
      10A    -11.215393    11A    -11.213242    12A     -1.404808
      13A     -1.104172    14A     -1.077763    15A     -1.035990
      16A     -0.993165    17A     -0.935022    18A     -0.923112
      19A     -0.871605    20A     -0.818780    21A     -0.739077
      22A     -0.722053    23A     -0.651279    24A     -0.620810
      25A     -0.613442    26A     -0.607789    27A     -0.585768
      28A     -0.581157    29A     -0.565454    30A     -0.556616
      31A     -0.550071    32A     -0.533946    33A     -0.526287
      34A     -0.524098    35A     -0.516053    36A     -0.504811
      37A     -0.496469    38A     -0.493180    39A     -0.477055
      40A     -0.472959    41A     -0.366260    42A     -0.284787

  @DF-RHF Final Energy:  -463.00516374474910

   => Energetics <=

    Nuclear Repulsion Energy =            629.2709390936150839
    One-Electron Energy =               -1876.4588094163307233
    Two-Electron Energy =                 784.1827065779666555
    Total Energy =                       -463.0051637447490975
  Basis Set: (AUG-CC-PVTZ AUX)
    Blend: AUG-CC-PVTZ-RI
    Molecular point group: c1

    Geometry (in Angstrom), charge = 0, multiplicity = 1:

       Center              X                  Y                   Z               Mass
    ------------   -----------------  -----------------  -----------------  -----------------
         O            0.069963094494     1.027934538960     0.506779462569    15.994914619570
         C           -0.744249905506    -1.033098461040     0.125956462569    12.000000000000
         C            0.685950094494    -1.087944461040     0.061297462569    12.000000000000
         C           -1.073910905506     0.268922538960     0.394113462569    12.000000000000
         C            1.171981094494     0.114325338960     0.315035862569    12.000000000000
         C           -2.358701905506     1.007539538960     0.518791462569    12.000000000000
         C            2.482486094494     0.817760538960     0.339907462569    12.000000000000
         C           -1.685432905506    -2.176271461040    -0.089608537431    12.000000000000
         C            1.510084094494    -2.315798461040    -0.177262537431    12.000000000000
         C           -2.851068905506     1.562594538960    -0.825694537431    12.000000000000
         C            2.810666094494     1.580121538960    -0.952041537431    12.000000000000
         H            3.188522894494    -0.002426561040     0.519721362569     1.007825032230
         H            2.528158094494     1.501928538960     1.196408462569     1.007825032230
         H           -2.218359905506     1.828168538960     1.233418462569     1.007825032230
         H           -3.115426905506     0.337362538960     0.948089462569     1.007825032230
         H           -1.425400905506    -3.033053461040     0.543089462569     1.007825032230
         H           -2.714424905506    -1.884574461040     0.144694462569     1.007825032230
         H           -1.667441905506    -2.520617461040    -1.132099537431     1.007825032230
         H            2.511570094494    -2.057773461040    -0.539804537431     1.007825032230
         H            1.628287094494    -2.910943461040     0.737518462569     1.007825032230
         H            1.040567094494    -2.958589461040    -0.929682537431     1.007825032230
         H            2.810440094494     0.898891538960    -1.807354537431     1.007825032230
         H            3.794684094494     2.054404538960    -0.886515537431     1.007825032230
         H            2.061427094494     2.357004538960    -1.132381537431     1.007825032230
         H           -2.101832905506     2.235569538960    -1.254740537431     1.007825032230
         H           -3.785321905506     2.118010538960    -0.701791537431     1.007825032230
         H           -3.024310905506     0.747188538960    -1.534441537431     1.007825032230

  Basis Set: AUG-CC-PVTZ
    Blend: AUG-CC-PVTZ
  Basis Set: (AUG-CC-PVTZ AUX)
    Blend: AUG-CC-PVTZ-JKFIT
	 Reference Energy          =    -463.0051637447490975 [Eh]
	 Singles Energy            =      -0.0000000000000000 [Eh]
	 Same-Spin Energy          =      -0.4966509666320157 [Eh]
	 Opposite-Spin Energy      =      -1.6676091228937804 [Eh]
	 Correlation Energy        =      -2.1642600895257962 [Eh]
	 Total Energy              =    -465.1694238342748804 [Eh]

	 ================> DF-SCS-MP2 Energies <==================
	-----------------------------------------------------------
	 SCS Same-Spin Scale       =       0.3333333333333333 [-]
	 SCS Opposite-Spin Scale   =       1.2000000000000000 [-]
	 SCS Same-Spin Energy      =      -0.1655503222106719 [Eh]
	 SCS Opposite-Spin Energy  =      -2.0011309474725363 [Eh]
	 SCS Correlation Energy    =      -2.1666812696832083 [Eh]
	 SCS Total Energy          =    -465.1718450144322787 [Eh]
	-----------------------------------------------------------

  Dipole Moment: [D]
     X:     0.0431      Y:    -0.7519      Z:    -0.2746     Total:     0.8016

*** Psi4 exiting successfully. Buy a developer a beer!
