                               Psi4 1.3.2 release

  ==> Input File <==

--------------------------------------------------------------------------
#psi4
#
memory 32 gb

molecule  {
0 1
  O        0.0876687     1.0406516     0.5101644
  C       -0.7418240    -1.0387750     0.1269710
  C        0.6883760    -1.0936210     0.0623120
  C       -1.0714850     0.2632460     0.3951280
  C        1.1400710     0.1773790     0.3033030
  C       -2.3562760     1.0018630     0.5198060
  C        2.4736968     0.8350440     0.3455174
  C       -1.6830070    -2.1819480    -0.0885940
  C        1.5125100    -2.3214750    -0.1762480
  C       -2.8486430     1.5569180    -0.8246800
  C        2.8130920     1.5744450    -0.9510270
  H        3.2336060     0.0303330     0.5193890
  H        2.5305840     1.4962520     1.1974230
  H       -2.2159340     1.8224920     1.2344330
  H       -3.1130010     0.3316860     0.9491040
  H       -1.4229750    -3.0387300     0.5441040
  H       -2.7119990    -1.8902510     0.1457090
  H       -1.6650160    -2.5262940    -1.1310850
  H        2.5139960    -2.0634500    -0.5387900
  H        1.6307130    -2.9166200     0.7385330
  H        1.0429930    -2.9642660    -0.9286680
  H        2.8128660     0.8932150    -1.8063400
  H        3.7971100     2.0487280    -0.8855010
  H        2.0638530     2.3513280    -1.1313670
  H       -2.0994070     2.2298930    -1.2537260
  H       -3.7828960     2.1123340    -0.7007770
  H       -3.0218850     0.7415120    -1.5334270
units angstrom
no_reorient  #important for SAPT in psi4, default
symmetry c1  #important for SAPT in psi4, default
}

set PROPERTIES_ORIGIN ["COM"]
properties('MP2/aug-cc-pvtz', properties = ['dipole'])
--------------------------------------------------------------------------

    Molecular point group: c1
  Charge       = 0
  Multiplicity = 1
  Basis Set: AUG-CC-PVTZ
    Blend: AUG-CC-PVTZ
  Basis Set: (AUG-CC-PVTZ AUX)
    Blend: AUG-CC-PVTZ-JKFIT

    Orbital Energies [Eh]
    ---------------------

    Doubly Occupied:

       1A    -20.597821     2A    -11.270878     3A    -11.270314
       4A    -11.230202     5A    -11.229334     6A    -11.224671
       7A    -11.223153     8A    -11.218392     9A    -11.216405
      10A    -11.215313    11A    -11.214212    12A     -1.422227
      13A     -1.100266    14A     -1.077884    15A     -1.036168
      16A     -0.990790    17A     -0.933501    18A     -0.925895
      19A     -0.869612    20A     -0.814332    21A     -0.745795
      22A     -0.722967    23A     -0.656169    24A     -0.625008
      25A     -0.611677    26A     -0.608869    27A     -0.584751
      28A     -0.584045    29A     -0.567823    30A     -0.556433
      31A     -0.550150    32A     -0.533341    33A     -0.527964
      34A     -0.524835    35A     -0.522322    36A     -0.505807
      37A     -0.494677    38A     -0.492384    39A     -0.479281
      40A     -0.468988    41A     -0.362628    42A     -0.279273

  @DF-RHF Final Energy:  -463.00917198974685

   => Energetics <=

    Nuclear Repulsion Energy =            629.0670554661579672
    One-Electron Energy =               -1875.9793442946815958
    Two-Electron Energy =                 783.9031168387768957
    Total Energy =                       -463.0091719897468465
  Basis Set: (AUG-CC-PVTZ AUX)
    Blend: AUG-CC-PVTZ-RI
    Molecular point group: c1

    Geometry (in Angstrom), charge = 0, multiplicity = 1:

       Center              X                  Y                   Z               Mass
    ------------   -----------------  -----------------  -----------------  -----------------
         O            0.086946881484     1.036906483421     0.509552617286    15.994914619570
         C           -0.742545818516    -1.042520116579     0.126359217286    12.000000000000
         C            0.687654181484    -1.097366116579     0.061700217286    12.000000000000
         C           -1.072206818516     0.259500883421     0.394516217286    12.000000000000
         C            1.139349181484     0.173633883421     0.302691217286    12.000000000000
         C           -2.356997818516     0.998117883421     0.519194217286    12.000000000000
         C            2.472974981484     0.831298883421     0.344905617286    12.000000000000
         C           -1.683728818516    -2.185693116579    -0.089205782714    12.000000000000
         C            1.511788181484    -2.325220116579    -0.176859782714    12.000000000000
         C           -2.849364818516     1.553172883421    -0.825291782714    12.000000000000
         C            2.812370181484     1.570699883421    -0.951638782714    12.000000000000
         H            3.232884181484     0.026587883421     0.518777217286     1.007825032230
         H            2.529862181484     1.492506883421     1.196811217286     1.007825032230
         H           -2.216655818516     1.818746883421     1.233821217286     1.007825032230
         H           -3.113722818516     0.327940883421     0.948492217286     1.007825032230
         H           -1.423696818516    -3.042475116579     0.543492217286     1.007825032230
         H           -2.712720818516    -1.893996116579     0.145097217286     1.007825032230
         H           -1.665737818516    -2.530039116579    -1.131696782714     1.007825032230
         H            2.513274181484    -2.067195116579    -0.539401782714     1.007825032230
         H            1.629991181484    -2.920365116579     0.737921217286     1.007825032230
         H            1.042271181484    -2.968011116579    -0.929279782714     1.007825032230
         H            2.812144181484     0.889469883421    -1.806951782714     1.007825032230
         H            3.796388181484     2.044982883421    -0.886112782714     1.007825032230
         H            2.063131181484     2.347582883421    -1.131978782714     1.007825032230
         H           -2.100128818516     2.226147883421    -1.254337782714     1.007825032230
         H           -3.783617818516     2.108588883421    -0.701388782714     1.007825032230
         H           -3.022606818516     0.737766883421    -1.534038782714     1.007825032230

  Basis Set: AUG-CC-PVTZ
    Blend: AUG-CC-PVTZ
  Basis Set: (AUG-CC-PVTZ AUX)
    Blend: AUG-CC-PVTZ-JKFIT
	 Reference Energy          =    -463.0091719897468465 [Eh]
	 Singles Energy            =      -0.0000000000000000 [Eh]
	 Same-Spin Energy          =      -0.4972581198773312 [Eh]
	 Opposite-Spin Energy      =      -1.6680461510732836 [Eh]
	 Correlation Energy        =      -2.1653042709506147 [Eh]
	 Total Energy              =    -465.1744762606974746 [Eh]

	 ================> DF-SCS-MP2 Energies <==================
	-----------------------------------------------------------
	 SCS Same-Spin Scale       =       0.3333333333333333 [-]
	 SCS Opposite-Spin Scale   =       1.2000000000000000 [-]
	 SCS Same-Spin Energy      =      -0.1657527066257770 [Eh]
	 SCS Opposite-Spin Energy  =      -2.0016553812879403 [Eh]
	 SCS Correlation Energy    =      -2.1674080879137172 [Eh]
	 SCS Total Energy          =    -465.1765800776605602 [Eh]
	-----------------------------------------------------------

  Dipole Moment: [D]
     X:    -0.0923      Y:    -0.7186      Z:    -0.2275     Total:     0.7594

*** Psi4 exiting successfully. Buy a developer a beer!
