                               Psi4 1.3.2 release

  ==> Input File <==

--------------------------------------------------------------------------
#psi4
#
memory 32 gb

molecule  {
0 1
  O        0.0723890     1.0222580     0.5077940
  C       -0.7418240    -1.0387750     0.1269710
  C        0.6877337    -1.1058234     0.0596648
  C       -1.0714850     0.2632460     0.3951280
  C        1.1400710     0.1773790     0.3033030
  C       -2.3562760     1.0018630     0.5198060
  C        2.4849120     0.8120840     0.3409220
  C       -1.6728303    -2.1898550    -0.0906993
  C        1.5125100    -2.3214750    -0.1762480
  C       -2.8486430     1.5569180    -0.8246800
  C        2.8130920     1.5744450    -0.9510270
  H        3.2336060     0.0303330     0.5193890
  H        2.5305840     1.4962520     1.1974230
  H       -2.2159340     1.8224920     1.2344330
  H       -3.1130010     0.3316860     0.9491040
  H       -1.4229750    -3.0387300     0.5441040
  H       -2.7119990    -1.8902510     0.1457090
  H       -1.6650160    -2.5262940    -1.1310850
  H        2.5139960    -2.0634500    -0.5387900
  H        1.6307130    -2.9166200     0.7385330
  H        1.0429930    -2.9642660    -0.9286680
  H        2.8128660     0.8932150    -1.8063400
  H        3.7971100     2.0487280    -0.8855010
  H        2.0638530     2.3513280    -1.1313670
  H       -2.0994070     2.2298930    -1.2537260
  H       -3.7828960     2.1123340    -0.7007770
  H       -3.0218850     0.7415120    -1.5334270
units angstrom
no_reorient  #important for SAPT in psi4, default
symmetry c1  #important for SAPT in psi4, default
}

set PROPERTIES_ORIGIN ["COM"]
properties('MP2/aug-cc-pvtz', properties = ['dipole'])
--------------------------------------------------------------------------

    Molecular point group: c1
  Charge       = 0
  Multiplicity = 1
  Basis Set: AUG-CC-PVTZ
    Blend: AUG-CC-PVTZ
  Basis Set: (AUG-CC-PVTZ AUX)
    Blend: AUG-CC-PVTZ-JKFIT

    Orbital Energies [Eh]
    ---------------------

    Doubly Occupied:

       1A    -20.599620     2A    -11.271058     3A    -11.269755
       4A    -11.230128     5A    -11.229985     6A    -11.222941
       7A    -11.222526     8A    -11.216887     9A    -11.215543
      10A    -11.215405    11A    -11.214665    12A     -1.429817
      13A     -1.098862    14A     -1.078556    15A     -1.036261
      16A     -0.990592    17A     -0.932121    18A     -0.927569
      19A     -0.870059    20A     -0.814888    21A     -0.749139
      22A     -0.721777    23A     -0.658036    24A     -0.627303
      25A     -0.611130    26A     -0.609854    27A     -0.586838
      28A     -0.583821    29A     -0.569377    30A     -0.557534
      31A     -0.548939    32A     -0.532875    33A     -0.528010
      34A     -0.525257    35A     -0.521480    36A     -0.505302
      37A     -0.495068    38A     -0.492184    39A     -0.483928
      40A     -0.465791    41A     -0.360152    42A     -0.277534

  @DF-RHF Final Energy:  -463.01073524123262

   => Energetics <=

    Nuclear Repulsion Energy =            629.4224808619898113
    One-Electron Energy =               -1876.6692969543644267
    Two-Electron Energy =                 784.2360808511418782
    Total Energy =                       -463.0107352412326236
  Basis Set: (AUG-CC-PVTZ AUX)
    Blend: AUG-CC-PVTZ-RI
    Molecular point group: c1

    Geometry (in Angstrom), charge = 0, multiplicity = 1:

       Center              X                  Y                   Z               Mass
    ------------   -----------------  -----------------  -----------------  -----------------
         O            0.071636957321     1.023844439086     0.508168866195    15.994914619570
         C           -0.742576042679    -1.037188560914     0.127345866195    12.000000000000
         C            0.686981657321    -1.104236960914     0.060039666195    12.000000000000
         C           -1.072237042679     0.264832439086     0.395502866195    12.000000000000
         C            1.139318957321     0.178965439086     0.303677866195    12.000000000000
         C           -2.357028042679     1.003449439086     0.520180866195    12.000000000000
         C            2.484159957321     0.813670439086     0.341296866195    12.000000000000
         C           -1.673582342679    -2.188268560914    -0.090324433805    12.000000000000
         C            1.511757957321    -2.319888560914    -0.175873133805    12.000000000000
         C           -2.849395042679     1.558504439086    -0.824305133805    12.000000000000
         C            2.812339957321     1.576031439086    -0.950652133805    12.000000000000
         H            3.232853957321     0.031919439086     0.519763866195     1.007825032230
         H            2.529831957321     1.497838439086     1.197797866195     1.007825032230
         H           -2.216686042679     1.824078439086     1.234807866195     1.007825032230
         H           -3.113753042679     0.333272439086     0.949478866195     1.007825032230
         H           -1.423727042679    -3.037143560914     0.544478866195     1.007825032230
         H           -2.712751042679    -1.888664560914     0.146083866195     1.007825032230
         H           -1.665768042679    -2.524707560914    -1.130710133805     1.007825032230
         H            2.513243957321    -2.061863560914    -0.538415133805     1.007825032230
         H            1.629960957321    -2.915033560914     0.738907866195     1.007825032230
         H            1.042240957321    -2.962679560914    -0.928293133805     1.007825032230
         H            2.812113957321     0.894801439086    -1.805965133805     1.007825032230
         H            3.796357957321     2.050314439086    -0.885126133805     1.007825032230
         H            2.063100957321     2.352914439086    -1.130992133805     1.007825032230
         H           -2.100159042679     2.231479439086    -1.253351133805     1.007825032230
         H           -3.783648042679     2.113920439086    -0.700402133805     1.007825032230
         H           -3.022637042679     0.743098439086    -1.533052133805     1.007825032230

  Basis Set: AUG-CC-PVTZ
    Blend: AUG-CC-PVTZ
  Basis Set: (AUG-CC-PVTZ AUX)
    Blend: AUG-CC-PVTZ-JKFIT
	 Reference Energy          =    -463.0107352412326236 [Eh]
	 Singles Energy            =      -0.0000000000000000 [Eh]
	 Same-Spin Energy          =      -0.4974399929400786 [Eh]
	 Opposite-Spin Energy      =      -1.6676261535429773 [Eh]
	 Correlation Energy        =      -2.1650661464830558 [Eh]
	 Total Energy              =    -465.1758013877156941 [Eh]

	 ================> DF-SCS-MP2 Energies <==================
	-----------------------------------------------------------
	 SCS Same-Spin Scale       =       0.3333333333333333 [-]
	 SCS Opposite-Spin Scale   =       1.2000000000000000 [-]
	 SCS Same-Spin Energy      =      -0.1658133309800262 [Eh]
	 SCS Opposite-Spin Energy  =      -2.0011513842515725 [Eh]
	 SCS Correlation Energy    =      -2.1669647152315985 [Eh]
	 SCS Total Energy          =    -465.1776999564642097 [Eh]
	-----------------------------------------------------------

  Dipole Moment: [D]
     X:    -0.0224      Y:    -0.6574      Z:    -0.2156     Total:     0.6922

*** Psi4 exiting successfully. Buy a developer a beer!
