                               Psi4 1.3.2 release

  ==> Input File <==

--------------------------------------------------------------------------
#psi4
#
memory 32 gb

molecule  {
0 1
  O        0.0723890     1.0222580     0.5077940
  C       -0.7418240    -1.0387750     0.1269710
  C        0.6898556    -1.0447790     0.0729480
  C       -1.0714850     0.2632460     0.3951280
  C        1.1400710     0.1773790     0.3033030
  C       -2.3562760     1.0018630     0.5198060
  C        2.4849120     0.8120840     0.3409220
  C       -1.7229895    -2.1494555    -0.0800101
  C        1.5125100    -2.3214750    -0.1762480
  C       -2.8486430     1.5569180    -0.8246800
  C        2.8130920     1.5744450    -0.9510270
  H        3.2336060     0.0303330     0.5193890
  H        2.5305840     1.4962520     1.1974230
  H       -2.2159340     1.8224920     1.2344330
  H       -3.1130010     0.3316860     0.9491040
  H       -1.4229750    -3.0387300     0.5441040
  H       -2.7119990    -1.8902510     0.1457090
  H       -1.6650160    -2.5262940    -1.1310850
  H        2.5139960    -2.0634500    -0.5387900
  H        1.6307130    -2.9166200     0.7385330
  H        1.0429930    -2.9642660    -0.9286680
  H        2.8128660     0.8932150    -1.8063400
  H        3.7971100     2.0487280    -0.8855010
  H        2.0638530     2.3513280    -1.1313670
  H       -2.0994070     2.2298930    -1.2537260
  H       -3.7828960     2.1123340    -0.7007770
  H       -3.0218850     0.7415120    -1.5334270
units angstrom
no_reorient  #important for SAPT in psi4, default
symmetry c1  #important for SAPT in psi4, default
}

set PROPERTIES_ORIGIN ["COM"]
properties('MP2/aug-cc-pvtz', properties = ['dipole'])
--------------------------------------------------------------------------

    Molecular point group: c1
  Charge       = 0
  Multiplicity = 1
  Basis Set: AUG-CC-PVTZ
    Blend: AUG-CC-PVTZ
  Basis Set: (AUG-CC-PVTZ AUX)
    Blend: AUG-CC-PVTZ-JKFIT

    Orbital Energies [Eh]
    ---------------------

    Doubly Occupied:

       1A    -20.594797     2A    -11.269173     3A    -11.262860
       4A    -11.230138     5A    -11.230105     6A    -11.224855
       7A    -11.224312     8A    -11.215853     9A    -11.214835
      10A    -11.214766    11A    -11.212847    12A     -1.429597
      13A     -1.099129    14A     -1.080449    15A     -1.036144
      16A     -0.989231    17A     -0.932766    18A     -0.927766
      19A     -0.870583    20A     -0.818713    21A     -0.751066
      22A     -0.721417    23A     -0.658442    24A     -0.627600
      25A     -0.610736    26A     -0.609620    27A     -0.587272
      28A     -0.584177    29A     -0.563774    30A     -0.557566
      31A     -0.545941    32A     -0.534671    33A     -0.526236
      34A     -0.520705    35A     -0.516680    36A     -0.505557
      37A     -0.496642    38A     -0.493812    39A     -0.483908
      40A     -0.468481    41A     -0.363630    42A     -0.284340

  @DF-RHF Final Energy:  -463.00821380447468

   => Energetics <=

    Nuclear Repulsion Energy =            630.2584304315772670
    One-Electron Energy =               -1878.3509094819221446
    Two-Electron Energy =                 785.0842652458702560
    Total Energy =                       -463.0082138044747353
  Basis Set: (AUG-CC-PVTZ AUX)
    Blend: AUG-CC-PVTZ-RI
    Molecular point group: c1

    Geometry (in Angstrom), charge = 0, multiplicity = 1:

       Center              X                  Y                   Z               Mass
    ------------   -----------------  -----------------  -----------------  -----------------
         O            0.075426381222     1.015842033889     0.506277802678    15.994914619570
         C           -0.738786618778    -1.045190966111     0.125454802678    12.000000000000
         C            0.692892981222    -1.051194966111     0.071431802678    12.000000000000
         C           -1.068447618778     0.256830033889     0.393611802678    12.000000000000
         C            1.143108381222     0.170963033889     0.301786802678    12.000000000000
         C           -2.353238618778     0.995447033889     0.518289802678    12.000000000000
         C            2.487949381222     0.805668033889     0.339405802678    12.000000000000
         C           -1.719952118778    -2.155871466111    -0.081526297322    12.000000000000
         C            1.515547381222    -2.327890966111    -0.177764197322    12.000000000000
         C           -2.845605618778     1.550502033889    -0.826196197322    12.000000000000
         C            2.816129381222     1.568029033889    -0.952543197322    12.000000000000
         H            3.236643381222     0.023917033889     0.517872802678     1.007825032230
         H            2.533621381222     1.489836033889     1.195906802678     1.007825032230
         H           -2.212896618778     1.816076033889     1.232916802678     1.007825032230
         H           -3.109963618778     0.325270033889     0.947587802678     1.007825032230
         H           -1.419937618778    -3.045145966111     0.542587802678     1.007825032230
         H           -2.708961618778    -1.896666966111     0.144192802678     1.007825032230
         H           -1.661978618778    -2.532709966111    -1.132601197322     1.007825032230
         H            2.517033381222    -2.069865966111    -0.540306197322     1.007825032230
         H            1.633750381222    -2.923035966111     0.737016802678     1.007825032230
         H            1.046030381222    -2.970681966111    -0.930184197322     1.007825032230
         H            2.815903381222     0.886799033889    -1.807856197322     1.007825032230
         H            3.800147381222     2.042312033889    -0.887017197322     1.007825032230
         H            2.066890381222     2.344912033889    -1.132883197322     1.007825032230
         H           -2.096369618778     2.223477033889    -1.255242197322     1.007825032230
         H           -3.779858618778     2.105918033889    -0.702293197322     1.007825032230
         H           -3.018847618778     0.735096033889    -1.534943197322     1.007825032230

  Basis Set: AUG-CC-PVTZ
    Blend: AUG-CC-PVTZ
  Basis Set: (AUG-CC-PVTZ AUX)
    Blend: AUG-CC-PVTZ-JKFIT
	 Reference Energy          =    -463.0082138044746785 [Eh]
	 Singles Energy            =      -0.0000000000000000 [Eh]
	 Same-Spin Energy          =      -0.4959884489753259 [Eh]
	 Opposite-Spin Energy      =      -1.6656178189000410 [Eh]
	 Correlation Energy        =      -2.1616062678753671 [Eh]
	 Total Energy              =    -465.1698200723500349 [Eh]

	 ================> DF-SCS-MP2 Energies <==================
	-----------------------------------------------------------
	 SCS Same-Spin Scale       =       0.3333333333333333 [-]
	 SCS Opposite-Spin Scale   =       1.2000000000000000 [-]
	 SCS Same-Spin Energy      =      -0.1653294829917753 [Eh]
	 SCS Opposite-Spin Energy  =      -1.9987413826800491 [Eh]
	 SCS Correlation Energy    =      -2.1640708656718246 [Eh]
	 SCS Total Energy          =    -465.1722846701464960 [Eh]
	-----------------------------------------------------------

  Dipole Moment: [D]
     X:    -0.0581      Y:    -0.6308      Z:    -0.2194     Total:     0.6704

*** Psi4 exiting successfully. Buy a developer a beer!
