                               Psi4 1.3.2 release

  ==> Input File <==

--------------------------------------------------------------------------
#psi4
#
memory 32 gb

molecule  {
0 1
  O        0.0723890     1.0222580     0.5077940
  C       -0.7418240    -1.0387750     0.1269710
  C        0.6883760    -1.0936210     0.0623120
  C       -1.0714850     0.2632460     0.3951280
  C        1.1400710     0.1773790     0.3033030
  C       -2.3562760     1.0018630     0.5198060
  C        2.4849120     0.8120840     0.3409220
  C       -1.6830070    -2.1819480    -0.0885940
  C        1.5125100    -2.3214750    -0.1762480
  C       -2.8480377     1.5816689    -0.8144164
  C        2.8130920     1.5744450    -0.9510270
  H        3.2336060     0.0303330     0.5193890
  H        2.5305840     1.4962520     1.1974230
  H       -2.2215980     1.8349232     1.2210136
  H       -3.1130010     0.3316860     0.9491040
  H       -1.4229750    -3.0387300     0.5441040
  H       -2.7119990    -1.8902510     0.1457090
  H       -1.6650160    -2.5262940    -1.1310850
  H        2.5139960    -2.0634500    -0.5387900
  H        1.6307130    -2.9166200     0.7385330
  H        1.0429930    -2.9642660    -0.9286680
  H        2.8128660     0.8932150    -1.8063400
  H        3.7971100     2.0487280    -0.8855010
  H        2.0638530     2.3513280    -1.1313670
  H       -2.0994070     2.2298930    -1.2537260
  H       -3.7828960     2.1123340    -0.7007770
  H       -3.0218850     0.7415120    -1.5334270
units angstrom
no_reorient  #important for SAPT in psi4, default
symmetry c1  #important for SAPT in psi4, default
}

set PROPERTIES_ORIGIN ["COM"]
properties('MP2/aug-cc-pvtz', properties = ['dipole'])
--------------------------------------------------------------------------

    Molecular point group: c1
  Charge       = 0
  Multiplicity = 1
  Basis Set: AUG-CC-PVTZ
    Blend: AUG-CC-PVTZ
  Basis Set: (AUG-CC-PVTZ AUX)
    Blend: AUG-CC-PVTZ-JKFIT

    Orbital Energies [Eh]
    ---------------------

    Doubly Occupied:

       1A    -20.598730     2A    -11.269902     3A    -11.269663
       4A    -11.230094     5A    -11.230091     6A    -11.223242
       7A    -11.222961     8A    -11.216412     9A    -11.215402
      10A    -11.215318    11A    -11.214769    12A     -1.429804
      13A     -1.098884    14A     -1.078845    15A     -1.036272
      16A     -0.990255    17A     -0.932445    18A     -0.927727
      19A     -0.870055    20A     -0.815389    21A     -0.749537
      22A     -0.721834    23A     -0.658341    24A     -0.627432
      25A     -0.611688    26A     -0.608781    27A     -0.588553
      28A     -0.583063    29A     -0.567742    30A     -0.555962
      31A     -0.549583    32A     -0.535199    33A     -0.528429
      34A     -0.524037    35A     -0.520101    36A     -0.505822
      37A     -0.495740    38A     -0.490925    39A     -0.482666
      40A     -0.467085    41A     -0.360846    42A     -0.279162

  @DF-RHF Final Energy:  -463.01118193857542

   => Energetics <=

    Nuclear Repulsion Energy =            629.4660748022627104
    One-Electron Energy =               -1876.7569323369541507
    Two-Electron Energy =                 784.2796755961160216
    Total Energy =                       -463.0111819385754188
  Basis Set: (AUG-CC-PVTZ AUX)
    Blend: AUG-CC-PVTZ-RI
    Molecular point group: c1

    Geometry (in Angstrom), charge = 0, multiplicity = 1:

       Center              X                  Y                   Z               Mass
    ------------   -----------------  -----------------  -----------------  -----------------
         O            0.072378854742     1.020223273837     0.507073226788    15.994914619570
         C           -0.741834145258    -1.040809726163     0.126250226788    12.000000000000
         C            0.688365854742    -1.095655726163     0.061591226788    12.000000000000
         C           -1.071495145258     0.261211273837     0.394407226788    12.000000000000
         C            1.140060854742     0.175344273837     0.302582226788    12.000000000000
         C           -2.356286145258     0.999828273837     0.519085226788    12.000000000000
         C            2.484901854742     0.810049273837     0.340201226788    12.000000000000
         C           -1.683017145258    -2.183982726163    -0.089314773212    12.000000000000
         C            1.512499854742    -2.323509726163    -0.176968773212    12.000000000000
         C           -2.848047845258     1.579634173837    -0.815137173212    12.000000000000
         C            2.813081854742     1.572410273837    -0.951747773212    12.000000000000
         H            3.233595854742     0.028298273837     0.518668226788     1.007825032230
         H            2.530573854742     1.494217273837     1.196702226788     1.007825032230
         H           -2.221608145258     1.832888473837     1.220292826788     1.007825032230
         H           -3.113011145258     0.329651273837     0.948383226788     1.007825032230
         H           -1.422985145258    -3.040764726163     0.543383226788     1.007825032230
         H           -2.712009145258    -1.892285726163     0.144988226788     1.007825032230
         H           -1.665026145258    -2.528328726163    -1.131805773212     1.007825032230
         H            2.513985854742    -2.065484726163    -0.539510773212     1.007825032230
         H            1.630702854742    -2.918654726163     0.737812226788     1.007825032230
         H            1.042982854742    -2.966300726163    -0.929388773212     1.007825032230
         H            2.812855854742     0.891180273837    -1.807060773212     1.007825032230
         H            3.797099854742     2.046693273837    -0.886221773212     1.007825032230
         H            2.063842854742     2.349293273837    -1.132087773212     1.007825032230
         H           -2.099417145258     2.227858273837    -1.254446773212     1.007825032230
         H           -3.782906145258     2.110299273837    -0.701497773212     1.007825032230
         H           -3.021895145258     0.739477273837    -1.534147773212     1.007825032230

  Basis Set: AUG-CC-PVTZ
    Blend: AUG-CC-PVTZ
  Basis Set: (AUG-CC-PVTZ AUX)
    Blend: AUG-CC-PVTZ-JKFIT
	 Reference Energy          =    -463.0111819385754188 [Eh]
	 Singles Energy            =      -0.0000000000000000 [Eh]
	 Same-Spin Energy          =      -0.4970988745452419 [Eh]
	 Opposite-Spin Energy      =      -1.6671449853122904 [Eh]
	 Correlation Energy        =      -2.1642438598575322 [Eh]
	 Total Energy              =    -465.1754257984329683 [Eh]

	 ================> DF-SCS-MP2 Energies <==================
	-----------------------------------------------------------
	 SCS Same-Spin Scale       =       0.3333333333333333 [-]
	 SCS Opposite-Spin Scale   =       1.2000000000000000 [-]
	 SCS Same-Spin Energy      =      -0.1656996248484140 [Eh]
	 SCS Opposite-Spin Energy  =      -2.0005739823747484 [Eh]
	 SCS Correlation Energy    =      -2.1662736072231623 [Eh]
	 SCS Total Energy          =    -465.1774555457985798 [Eh]
	-----------------------------------------------------------

  Dipole Moment: [D]
     X:    -0.0220      Y:    -0.6453      Z:    -0.2139     Total:     0.6802

*** Psi4 exiting successfully. Buy a developer a beer!
