                               Psi4 1.3.2 release

  ==> Input File <==

--------------------------------------------------------------------------
#psi4
#
memory 32 gb

molecule  {
0 1
  O        0.0449145     1.0612027     0.5141153
  C       -0.7418240    -1.0387750     0.1269710
  C        0.6883760    -1.0936210     0.0623120
  C       -1.0714850     0.2632460     0.3951280
  C        1.1400710     0.1773790     0.3033030
  C       -2.3293533     1.0457291     0.5265631
  C        2.4849120     0.8120840     0.3409220
  C       -1.6830070    -2.1819480    -0.0885940
  C        1.5125100    -2.3214750    -0.1762480
  C       -2.8486430     1.5569180    -0.8246800
  C        2.8130920     1.5744450    -0.9510270
  H        3.2336060     0.0303330     0.5193890
  H        2.5305840     1.4962520     1.1974230
  H       -2.2159340     1.8224920     1.2344330
  H       -3.1130010     0.3316860     0.9491040
  H       -1.4229750    -3.0387300     0.5441040
  H       -2.7119990    -1.8902510     0.1457090
  H       -1.6650160    -2.5262940    -1.1310850
  H        2.5139960    -2.0634500    -0.5387900
  H        1.6307130    -2.9166200     0.7385330
  H        1.0429930    -2.9642660    -0.9286680
  H        2.8128660     0.8932150    -1.8063400
  H        3.7971100     2.0487280    -0.8855010
  H        2.0638530     2.3513280    -1.1313670
  H       -2.0994070     2.2298930    -1.2537260
  H       -3.7828960     2.1123340    -0.7007770
  H       -3.0218850     0.7415120    -1.5334270
units angstrom
no_reorient  #important for SAPT in psi4, default
symmetry c1  #important for SAPT in psi4, default
}

set PROPERTIES_ORIGIN ["COM"]
properties('MP2/aug-cc-pvtz', properties = ['dipole'])
--------------------------------------------------------------------------

    Molecular point group: c1
  Charge       = 0
  Multiplicity = 1
  Basis Set: AUG-CC-PVTZ
    Blend: AUG-CC-PVTZ
  Basis Set: (AUG-CC-PVTZ AUX)
    Blend: AUG-CC-PVTZ-JKFIT

    Orbital Energies [Eh]
    ---------------------

    Doubly Occupied:

       1A    -20.597053     2A    -11.271879     3A    -11.271568
       4A    -11.230159     5A    -11.228752     6A    -11.225770
       7A    -11.223732     8A    -11.221468     9A    -11.216457
      10A    -11.215195    11A    -11.214229    12A     -1.415263
      13A     -1.101676    14A     -1.076746    15A     -1.035536
      16A     -0.991276    17A     -0.934825    18A     -0.923807
      19A     -0.869482    20A     -0.814158    21A     -0.741960
      22A     -0.724347    23A     -0.654436    24A     -0.623232
      25A     -0.612640    26A     -0.607931    27A     -0.586244
      28A     -0.581190    29A     -0.567799    30A     -0.556879
      31A     -0.550532    32A     -0.533711    33A     -0.527836
      34A     -0.525670    35A     -0.522344    36A     -0.506063
      37A     -0.494275    38A     -0.492774    39A     -0.475166
      40A     -0.470223    41A     -0.364535    42A     -0.279045

  @DF-RHF Final Energy:  -463.00399877803119

   => Energetics <=

    Nuclear Repulsion Energy =            628.5091141255051070
    One-Electron Energy =               -1874.8704922616527710
    Two-Electron Energy =                 783.3573793581166456
    Total Energy =                       -463.0039987780311321
  Basis Set: (AUG-CC-PVTZ AUX)
    Blend: AUG-CC-PVTZ-RI
    Molecular point group: c1

    Geometry (in Angstrom), charge = 0, multiplicity = 1:

       Center              X                  Y                   Z               Mass
    ------------   -----------------  -----------------  -----------------  -----------------
         O            0.045679631309     1.053647526551     0.512917567768    15.994914619570
         C           -0.741058868691    -1.046330173449     0.125773267768    12.000000000000
         C            0.689141131309    -1.101176173449     0.061114267768    12.000000000000
         C           -1.070719868691     0.255690826551     0.393930267768    12.000000000000
         C            1.140836131309     0.169823826551     0.302105267768    12.000000000000
         C           -2.328588168691     1.038173926551     0.525365367768    12.000000000000
         C            2.485677131309     0.804528826551     0.339724267768    12.000000000000
         C           -1.682241868691    -2.189503173449    -0.089791732232    12.000000000000
         C            1.513275131309    -2.329030173449    -0.177445732232    12.000000000000
         C           -2.847877868691     1.549362826551    -0.825877732232    12.000000000000
         C            2.813857131309     1.566889826551    -0.952224732232    12.000000000000
         H            3.234371131309     0.022777826551     0.518191267768     1.007825032230
         H            2.531349131309     1.488696826551     1.196225267768     1.007825032230
         H           -2.215168868691     1.814936826551     1.233235267768     1.007825032230
         H           -3.112235868691     0.324130826551     0.947906267768     1.007825032230
         H           -1.422209868691    -3.046285173449     0.542906267768     1.007825032230
         H           -2.711233868691    -1.897806173449     0.144511267768     1.007825032230
         H           -1.664250868691    -2.533849173449    -1.132282732232     1.007825032230
         H            2.514761131309    -2.071005173449    -0.539987732232     1.007825032230
         H            1.631478131309    -2.924175173449     0.737335267768     1.007825032230
         H            1.043758131309    -2.971821173449    -0.929865732232     1.007825032230
         H            2.813631131309     0.885659826551    -1.807537732232     1.007825032230
         H            3.797875131309     2.041172826551    -0.886698732232     1.007825032230
         H            2.064618131309     2.343772826551    -1.132564732232     1.007825032230
         H           -2.098641868691     2.222337826551    -1.254923732232     1.007825032230
         H           -3.782130868691     2.104778826551    -0.701974732232     1.007825032230
         H           -3.021119868691     0.733956826551    -1.534624732232     1.007825032230

  Basis Set: AUG-CC-PVTZ
    Blend: AUG-CC-PVTZ
  Basis Set: (AUG-CC-PVTZ AUX)
    Blend: AUG-CC-PVTZ-JKFIT
	 Reference Energy          =    -463.0039987780311890 [Eh]
	 Singles Energy            =      -0.0000000000000000 [Eh]
	 Same-Spin Energy          =      -0.4973926084128075 [Eh]
	 Opposite-Spin Energy      =      -1.6689820544470435 [Eh]
	 Correlation Energy        =      -2.1663746628598508 [Eh]
	 Total Energy              =    -465.1703734408910123 [Eh]

	 ================> DF-SCS-MP2 Energies <==================
	-----------------------------------------------------------
	 SCS Same-Spin Scale       =       0.3333333333333333 [-]
	 SCS Opposite-Spin Scale   =       1.2000000000000000 [-]
	 SCS Same-Spin Energy      =      -0.1657975361376025 [Eh]
	 SCS Opposite-Spin Energy  =      -2.0027784653364522 [Eh]
	 SCS Correlation Energy    =      -2.1685760014740545 [Eh]
	 SCS Total Energy          =    -465.1725747795052257 [Eh]
	-----------------------------------------------------------

  Dipole Moment: [D]
     X:     0.0773      Y:    -0.7874      Z:    -0.2469     Total:     0.8288

*** Psi4 exiting successfully. Buy a developer a beer!
