                               Psi4 1.3.2 release

  ==> Input File <==

--------------------------------------------------------------------------
#psi4
#
memory 32 gb

molecule  {
0 1
  O        0.0723890     1.0222580     0.5077940
  C       -0.7418240    -1.0387750     0.1269710
  C        0.6883760    -1.0936210     0.0623120
  C       -1.0714850     0.2632460     0.3951280
  C        1.1382494     0.1820805     0.2913407
  C       -2.3562760     1.0018630     0.5198060
  C        2.4849120     0.8120840     0.3409220
  C       -1.6830070    -2.1819480    -0.0885940
  C        1.5125100    -2.3214750    -0.1762480
  C       -2.8486430     1.5569180    -0.8246800
  C        2.8011505     1.5709891    -0.9560301
  H        3.2336060     0.0303330     0.5193890
  H        2.5305840     1.4962520     1.1974230
  H       -2.2159340     1.8224920     1.2344330
  H       -3.1130010     0.3316860     0.9491040
  H       -1.4229750    -3.0387300     0.5441040
  H       -2.7119990    -1.8902510     0.1457090
  H       -1.6650160    -2.5262940    -1.1310850
  H        2.5139960    -2.0634500    -0.5387900
  H        1.6307130    -2.9166200     0.7385330
  H        1.0429930    -2.9642660    -0.9286680
  H        2.8128660     0.8932150    -1.8063400
  H        3.7971100     2.0487280    -0.8855010
  H        2.0638530     2.3513280    -1.1313670
  H       -2.0994070     2.2298930    -1.2537260
  H       -3.7828960     2.1123340    -0.7007770
  H       -3.0218850     0.7415120    -1.5334270
units angstrom
no_reorient  #important for SAPT in psi4, default
symmetry c1  #important for SAPT in psi4, default
}

set PROPERTIES_ORIGIN ["COM"]
properties('MP2/aug-cc-pvtz', properties = ['dipole'])
--------------------------------------------------------------------------

    Molecular point group: c1
  Charge       = 0
  Multiplicity = 1
  Basis Set: AUG-CC-PVTZ
    Blend: AUG-CC-PVTZ
  Basis Set: (AUG-CC-PVTZ AUX)
    Blend: AUG-CC-PVTZ-JKFIT

    Orbital Energies [Eh]
    ---------------------

    Doubly Occupied:

       1A    -20.599024     2A    -11.269548     3A    -11.269371
       4A    -11.230103     5A    -11.230072     6A    -11.223166
       7A    -11.222819     8A    -11.216075     9A    -11.215440
      10A    -11.215074    11A    -11.214629    12A     -1.430685
      13A     -1.098576    14A     -1.079064    15A     -1.036369
      16A     -0.989905    17A     -0.932229    18A     -0.927508
      19A     -0.869919    20A     -0.815584    21A     -0.749782
      22A     -0.721773    23A     -0.658305    24A     -0.627643
      25A     -0.611844    26A     -0.609681    27A     -0.586733
      28A     -0.583900    29A     -0.567733    30A     -0.555733
      31A     -0.549786    32A     -0.531517    33A     -0.527857
      34A     -0.524068    35A     -0.521592    36A     -0.506256
      37A     -0.496496    38A     -0.491280    39A     -0.484719
      40A     -0.466648    41A     -0.360511    42A     -0.278528

  @DF-RHF Final Energy:  -463.01175134879583

   => Energetics <=

    Nuclear Repulsion Energy =            629.7371208775433615
    One-Electron Energy =               -1877.3026516768718466
    Two-Electron Energy =                 784.5537794505326019
    Total Energy =                       -463.0117513487957694
  Basis Set: (AUG-CC-PVTZ AUX)
    Blend: AUG-CC-PVTZ-RI
    Molecular point group: c1

    Geometry (in Angstrom), charge = 0, multiplicity = 1:

       Center              X                  Y                   Z               Mass
    ------------   -----------------  -----------------  -----------------  -----------------
         O            0.073474781331     1.022159849249     0.509132281190    15.994914619570
         C           -0.740738218669    -1.038873150751     0.128309281190    12.000000000000
         C            0.689461781331    -1.093719150751     0.063650281190    12.000000000000
         C           -1.070399218669     0.263147849249     0.396466281190    12.000000000000
         C            1.139335181331     0.181982349249     0.292678981190    12.000000000000
         C           -2.355190218669     1.001764849249     0.521144281190    12.000000000000
         C            2.485997781331     0.811985849249     0.342260281190    12.000000000000
         C           -1.681921218669    -2.182046150751    -0.087255718810    12.000000000000
         C            1.513595781331    -2.321573150751    -0.174909718810    12.000000000000
         C           -2.847557218669     1.556819849249    -0.823341718810    12.000000000000
         C            2.802236281331     1.570890949249    -0.954691818810    12.000000000000
         H            3.234691781331     0.030234849249     0.520727281190     1.007825032230
         H            2.531669781331     1.496153849249     1.198761281190     1.007825032230
         H           -2.214848218669     1.822393849249     1.235771281190     1.007825032230
         H           -3.111915218669     0.331587849249     0.950442281190     1.007825032230
         H           -1.421889218669    -3.038828150751     0.545442281190     1.007825032230
         H           -2.710913218669    -1.890349150751     0.147047281190     1.007825032230
         H           -1.663930218669    -2.526392150751    -1.129746718810     1.007825032230
         H            2.515081781331    -2.063548150751    -0.537451718810     1.007825032230
         H            1.631798781331    -2.916718150751     0.739871281190     1.007825032230
         H            1.044078781331    -2.964364150751    -0.927329718810     1.007825032230
         H            2.813951781331     0.893116849249    -1.805001718810     1.007825032230
         H            3.798195781331     2.048629849249    -0.884162718810     1.007825032230
         H            2.064938781331     2.351229849249    -1.130028718810     1.007825032230
         H           -2.098321218669     2.229794849249    -1.252387718810     1.007825032230
         H           -3.781810218669     2.112235849249    -0.699438718810     1.007825032230
         H           -3.020799218669     0.741413849249    -1.532088718810     1.007825032230

  Basis Set: AUG-CC-PVTZ
    Blend: AUG-CC-PVTZ
  Basis Set: (AUG-CC-PVTZ AUX)
    Blend: AUG-CC-PVTZ-JKFIT
	 Reference Energy          =    -463.0117513487958263 [Eh]
	 Singles Energy            =      -0.0000000000000000 [Eh]
	 Same-Spin Energy          =      -0.4971368791099301 [Eh]
	 Opposite-Spin Energy      =      -1.6671591744167920 [Eh]
	 Correlation Energy        =      -2.1642960535267219 [Eh]
	 Total Energy              =    -465.1760474023225242 [Eh]

	 ================> DF-SCS-MP2 Energies <==================
	-----------------------------------------------------------
	 SCS Same-Spin Scale       =       0.3333333333333333 [-]
	 SCS Opposite-Spin Scale   =       1.2000000000000000 [-]
	 SCS Same-Spin Energy      =      -0.1657122930366434 [Eh]
	 SCS Opposite-Spin Energy  =      -2.0005910093001504 [Eh]
	 SCS Correlation Energy    =      -2.1663033023367939 [Eh]
	 SCS Total Energy          =    -465.1780546511326406 [Eh]
	-----------------------------------------------------------

  Dipole Moment: [D]
     X:    -0.0322      Y:    -0.6502      Z:    -0.2096     Total:     0.6839

*** Psi4 exiting successfully. Buy a developer a beer!
