                               Psi4 1.3.2 release

  ==> Input File <==

--------------------------------------------------------------------------
#psi4
#
memory 32 gb

molecule  {
0 1
  O        0.0723890     1.0222580     0.5077940
  C       -0.7432131    -1.0880799     0.1187280
  C        0.6883760    -1.0936210     0.0623120
  C       -1.0714850     0.2632460     0.3951280
  C        1.1400710     0.1773790     0.3033030
  C       -2.3562760     1.0018630     0.5198060
  C        2.4849120     0.8120840     0.3409220
  C       -1.6830070    -2.1819480    -0.0885940
  C        1.4684009    -2.3493874    -0.1792355
  C       -2.8486430     1.5569180    -0.8246800
  C        2.8130920     1.5744450    -0.9510270
  H        3.2336060     0.0303330     0.5193890
  H        2.5305840     1.4962520     1.1974230
  H       -2.2159340     1.8224920     1.2344330
  H       -3.1130010     0.3316860     0.9491040
  H       -1.4229750    -3.0387300     0.5441040
  H       -2.7119990    -1.8902510     0.1457090
  H       -1.6650160    -2.5262940    -1.1310850
  H        2.5139960    -2.0634500    -0.5387900
  H        1.6307130    -2.9166200     0.7385330
  H        1.0429930    -2.9642660    -0.9286680
  H        2.8128660     0.8932150    -1.8063400
  H        3.7971100     2.0487280    -0.8855010
  H        2.0638530     2.3513280    -1.1313670
  H       -2.0994070     2.2298930    -1.2537260
  H       -3.7828960     2.1123340    -0.7007770
  H       -3.0218850     0.7415120    -1.5334270
units angstrom
no_reorient  #important for SAPT in psi4, default
symmetry c1  #important for SAPT in psi4, default
}

set PROPERTIES_ORIGIN ["COM"]
properties('MP2/aug-cc-pvtz', properties = ['dipole'])
--------------------------------------------------------------------------

    Molecular point group: c1
  Charge       = 0
  Multiplicity = 1
  Basis Set: AUG-CC-PVTZ
    Blend: AUG-CC-PVTZ
  Basis Set: (AUG-CC-PVTZ AUX)
    Blend: AUG-CC-PVTZ-JKFIT

    Orbital Energies [Eh]
    ---------------------

    Doubly Occupied:

       1A    -20.602499     2A    -11.275884     3A    -11.269823
       4A    -11.230204     5A    -11.230010     6A    -11.222311
       7A    -11.221940     8A    -11.218818     9A    -11.217238
      10A    -11.215563    11A    -11.214307    12A     -1.430206
      13A     -1.099614    14A     -1.077799    15A     -1.036470
      16A     -0.992955    17A     -0.931617    18A     -0.927241
      19A     -0.869856    20A     -0.813017    21A     -0.748338
      22A     -0.722266    23A     -0.658086    24A     -0.628416
      25A     -0.611375    26A     -0.610340    27A     -0.587058
      28A     -0.584574    29A     -0.574074    30A     -0.561132
      31A     -0.550818    32A     -0.530482    33A     -0.529555
      34A     -0.526971    35A     -0.521033    36A     -0.505373
      37A     -0.494842    38A     -0.491751    39A     -0.484078
      40A     -0.459824    41A     -0.358081    42A     -0.273028

  @DF-RHF Final Energy:  -463.00182163915849

   => Energetics <=

    Nuclear Repulsion Energy =            628.9933364215802385
    One-Electron Energy =               -1875.7725837573243552
    Two-Electron Energy =                 783.7774256965855102
    Total Energy =                       -463.0018216391584929
  Basis Set: (AUG-CC-PVTZ AUX)
    Blend: AUG-CC-PVTZ-RI
    Molecular point group: c1

    Geometry (in Angstrom), charge = 0, multiplicity = 1:

       Center              X                  Y                   Z               Mass
    ------------   -----------------  -----------------  -----------------  -----------------
         O            0.075978205679     1.028349397549     0.508679883426    15.994914619570
         C           -0.739623894321    -1.081988502451     0.119613883426    12.000000000000
         C            0.691965205679    -1.087529602451     0.063197883426    12.000000000000
         C           -1.067895794321     0.269337397549     0.396013883426    12.000000000000
         C            1.143660205679     0.183470397549     0.304188883426    12.000000000000
         C           -2.352686794321     1.007954397549     0.520691883426    12.000000000000
         C            2.488501205679     0.818175397549     0.341807883426    12.000000000000
         C           -1.679417794321    -2.175856602451    -0.087708116574    12.000000000000
         C            1.471990105679    -2.343296002451    -0.178349616574    12.000000000000
         C           -2.845053794321     1.563009397549    -0.823794116574    12.000000000000
         C            2.816681205679     1.580536397549    -0.950141116574    12.000000000000
         H            3.237195205679     0.036424397549     0.520274883426     1.007825032230
         H            2.534173205679     1.502343397549     1.198308883426     1.007825032230
         H           -2.212344794321     1.828583397549     1.235318883426     1.007825032230
         H           -3.109411794321     0.337777397549     0.949989883426     1.007825032230
         H           -1.419385794321    -3.032638602451     0.544989883426     1.007825032230
         H           -2.708409794321    -1.884159602451     0.146594883426     1.007825032230
         H           -1.661426794321    -2.520202602451    -1.130199116574     1.007825032230
         H            2.517585205679    -2.057358602451    -0.537904116574     1.007825032230
         H            1.634302205679    -2.910528602451     0.739418883426     1.007825032230
         H            1.046582205679    -2.958174602451    -0.927782116574     1.007825032230
         H            2.816455205679     0.899306397549    -1.805454116574     1.007825032230
         H            3.800699205679     2.054819397549    -0.884615116574     1.007825032230
         H            2.067442205679     2.357419397549    -1.130481116574     1.007825032230
         H           -2.095817794321     2.235984397549    -1.252840116574     1.007825032230
         H           -3.779306794321     2.118425397549    -0.699891116574     1.007825032230
         H           -3.018295794321     0.747603397549    -1.532541116574     1.007825032230

  Basis Set: AUG-CC-PVTZ
    Blend: AUG-CC-PVTZ
  Basis Set: (AUG-CC-PVTZ AUX)
    Blend: AUG-CC-PVTZ-JKFIT
	 Reference Energy          =    -463.0018216391584929 [Eh]
	 Singles Energy            =      -0.0000000000000000 [Eh]
	 Same-Spin Energy          =      -0.4985903173522954 [Eh]
	 Opposite-Spin Energy      =      -1.6693858175942182 [Eh]
	 Correlation Energy        =      -2.1679761349465139 [Eh]
	 Total Energy              =    -465.1697977741050067 [Eh]

	 ================> DF-SCS-MP2 Energies <==================
	-----------------------------------------------------------
	 SCS Same-Spin Scale       =       0.3333333333333333 [-]
	 SCS Opposite-Spin Scale   =       1.2000000000000000 [-]
	 SCS Same-Spin Energy      =      -0.1661967724507651 [Eh]
	 SCS Opposite-Spin Energy  =      -2.0032629811130618 [Eh]
	 SCS Correlation Energy    =      -2.1694597535638271 [Eh]
	 SCS Total Energy          =    -465.1712813927223351 [Eh]
	-----------------------------------------------------------

  Dipole Moment: [D]
     X:    -0.0668      Y:    -0.6673      Z:    -0.2133     Total:     0.7038

*** Psi4 exiting successfully. Buy a developer a beer!
