                               Psi4 1.3.2 release

  ==> Input File <==

--------------------------------------------------------------------------
#psi4
#
memory 32 gb

molecule  {
0 1
  O        0.0723890     1.0222580     0.5077940
  C       -0.7418240    -1.0387750     0.1269710
  C        0.6883760    -1.0936210     0.0623120
  C       -1.0714850     0.2632460     0.3951280
  C        1.1334004     0.1964713     0.2554802
  C       -2.3562760     1.0018630     0.5198060
  C        2.4849120     0.8120840     0.3409220
  C       -1.6830070    -2.1819480    -0.0885940
  C        1.5125100    -2.3214750    -0.1762480
  C       -2.8486430     1.5569180    -0.8246800
  C        2.7651853     1.5602757    -0.9704455
  H        3.2336060     0.0303330     0.5193890
  H        2.5305840     1.4962520     1.1974230
  H       -2.2159340     1.8224920     1.2344330
  H       -3.1130010     0.3316860     0.9491040
  H       -1.4229750    -3.0387300     0.5441040
  H       -2.7119990    -1.8902510     0.1457090
  H       -1.6650160    -2.5262940    -1.1310850
  H        2.5139960    -2.0634500    -0.5387900
  H        1.6307130    -2.9166200     0.7385330
  H        1.0429930    -2.9642660    -0.9286680
  H        2.8128660     0.8932150    -1.8063400
  H        3.7971100     2.0487280    -0.8855010
  H        2.0638530     2.3513280    -1.1313670
  H       -2.0994070     2.2298930    -1.2537260
  H       -3.7828960     2.1123340    -0.7007770
  H       -3.0218850     0.7415120    -1.5334270
units angstrom
no_reorient  #important for SAPT in psi4, default
symmetry c1  #important for SAPT in psi4, default
}

set PROPERTIES_ORIGIN ["COM"]
properties('MP2/aug-cc-pvtz', properties = ['dipole'])
--------------------------------------------------------------------------

    Molecular point group: c1
  Charge       = 0
  Multiplicity = 1
  Basis Set: AUG-CC-PVTZ
    Blend: AUG-CC-PVTZ
  Basis Set: (AUG-CC-PVTZ AUX)
    Blend: AUG-CC-PVTZ-JKFIT

    Orbital Energies [Eh]
    ---------------------

    Doubly Occupied:

       1A    -20.600110     2A    -11.269940     3A    -11.268838
       4A    -11.230519     5A    -11.230000     6A    -11.223134
       7A    -11.222720     8A    -11.215990     9A    -11.215366
      10A    -11.214987    11A    -11.214860    12A     -1.433275
      13A     -1.098025    14A     -1.079721    15A     -1.036953
      16A     -0.989476    17A     -0.931952    18A     -0.927268
      19A     -0.869402    20A     -0.815759    21A     -0.750649
      22A     -0.721906    23A     -0.659046    24A     -0.628706
      25A     -0.614979    26A     -0.609590    27A     -0.587731
      28A     -0.583615    29A     -0.567855    30A     -0.555549
      31A     -0.550306    32A     -0.529314    33A     -0.526029
      34A     -0.523881    35A     -0.522508    36A     -0.508631
      37A     -0.500775    38A     -0.487234    39A     -0.485127
      40A     -0.463929    41A     -0.359794    42A     -0.277243

  @DF-RHF Final Energy:  -463.00760856966201

   => Energetics <=

    Nuclear Repulsion Energy =            630.1869074421716732
    One-Electron Energy =               -1878.1836556873120117
    Two-Electron Energy =                 784.9891396754782136
    Total Energy =                       -463.0076085696620112
  Basis Set: (AUG-CC-PVTZ AUX)
    Blend: AUG-CC-PVTZ-RI
    Molecular point group: c1

    Geometry (in Angstrom), charge = 0, multiplicity = 1:

       Center              X                  Y                   Z               Mass
    ------------   -----------------  -----------------  -----------------  -----------------
         O            0.076694410764     1.021869757436     0.513098297121    15.994914619570
         C           -0.737518589236    -1.039163242564     0.132275297121    12.000000000000
         C            0.692681410764    -1.094009242564     0.067616297121    12.000000000000
         C           -1.067179589236     0.262857757436     0.400432297121    12.000000000000
         C            1.137705810764     0.196083057436     0.260784497121    12.000000000000
         C           -2.351970589236     1.001474757436     0.525110297121    12.000000000000
         C            2.489217410764     0.811695757436     0.346226297121    12.000000000000
         C           -1.678701589236    -2.182336242564    -0.083289702879    12.000000000000
         C            1.516815410764    -2.321863242564    -0.170943702879    12.000000000000
         C           -2.844337589236     1.556529757436    -0.819375702879    12.000000000000
         C            2.769490710764     1.559887457436    -0.965141202879    12.000000000000
         H            3.237911410764     0.029944757436     0.524693297121     1.007825032230
         H            2.534889410764     1.495863757436     1.202727297121     1.007825032230
         H           -2.211628589236     1.822103757436     1.239737297121     1.007825032230
         H           -3.108695589236     0.331297757436     0.954408297121     1.007825032230
         H           -1.418669589236    -3.039118242564     0.549408297121     1.007825032230
         H           -2.707693589236    -1.890639242564     0.151013297121     1.007825032230
         H           -1.660710589236    -2.526682242564    -1.125780702879     1.007825032230
         H            2.518301410764    -2.063838242564    -0.533485702879     1.007825032230
         H            1.635018410764    -2.917008242564     0.743837297121     1.007825032230
         H            1.047298410764    -2.964654242564    -0.923363702879     1.007825032230
         H            2.817171410764     0.892826757436    -1.801035702879     1.007825032230
         H            3.801415410764     2.048339757436    -0.880196702879     1.007825032230
         H            2.068158410764     2.350939757436    -1.126062702879     1.007825032230
         H           -2.095101589236     2.229504757436    -1.248421702879     1.007825032230
         H           -3.778590589236     2.111945757436    -0.695472702879     1.007825032230
         H           -3.017579589236     0.741123757436    -1.528122702879     1.007825032230

  Basis Set: AUG-CC-PVTZ
    Blend: AUG-CC-PVTZ
  Basis Set: (AUG-CC-PVTZ AUX)
    Blend: AUG-CC-PVTZ-JKFIT
	 Reference Energy          =    -463.0076085696620112 [Eh]
	 Singles Energy            =      -0.0000000000000000 [Eh]
	 Same-Spin Energy          =      -0.4973748756760427 [Eh]
	 Opposite-Spin Energy      =      -1.6675473799405198 [Eh]
	 Correlation Energy        =      -2.1649222556165624 [Eh]
	 Total Energy              =    -465.1725308252785567 [Eh]

	 ================> DF-SCS-MP2 Energies <==================
	-----------------------------------------------------------
	 SCS Same-Spin Scale       =       0.3333333333333333 [-]
	 SCS Opposite-Spin Scale   =       1.2000000000000000 [-]
	 SCS Same-Spin Energy      =      -0.1657916252253475 [Eh]
	 SCS Opposite-Spin Energy  =      -2.0010568559286237 [Eh]
	 SCS Correlation Energy    =      -2.1668484811539712 [Eh]
	 SCS Total Energy          =    -465.1744570508159882 [Eh]
	-----------------------------------------------------------

  Dipole Moment: [D]
     X:    -0.0490      Y:    -0.6509      Z:    -0.1877     Total:     0.6791

*** Psi4 exiting successfully. Buy a developer a beer!
