                               Psi4 1.3.2 release

  ==> Input File <==

--------------------------------------------------------------------------
#psi4
#
memory 32 gb

molecule  {
0 1
  O        0.0800058     1.0314121     0.5093884
  C       -0.7418240    -1.0387750     0.1269710
  C        0.6996759    -1.0973683     0.0611925
  C       -1.0714850     0.2632460     0.3951280
  C        1.1400710     0.1773790     0.3033030
  C       -2.3562760     1.0018630     0.5198060
  C        2.4849120     0.8120840     0.3409220
  C       -1.6830070    -2.1819480    -0.0885940
  C        1.5125100    -2.3214750    -0.1762480
  C       -2.8486430     1.5569180    -0.8246800
  C        2.8130920     1.5744450    -0.9510270
  H        3.2336060     0.0303330     0.5193890
  H        2.5305840     1.4962520     1.1974230
  H       -2.2159340     1.8224920     1.2344330
  H       -3.1130010     0.3316860     0.9491040
  H       -1.4229750    -3.0387300     0.5441040
  H       -2.7119990    -1.8902510     0.1457090
  H       -1.6650160    -2.5262940    -1.1310850
  H        2.5139960    -2.0634500    -0.5387900
  H        1.6307130    -2.9166200     0.7385330
  H        1.0429930    -2.9642660    -0.9286680
  H        2.8128660     0.8932150    -1.8063400
  H        3.7971100     2.0487280    -0.8855010
  H        2.0638530     2.3513280    -1.1313670
  H       -2.0994070     2.2298930    -1.2537260
  H       -3.7828960     2.1123340    -0.7007770
  H       -3.0218850     0.7415120    -1.5334270
units angstrom
no_reorient  #important for SAPT in psi4, default
symmetry c1  #important for SAPT in psi4, default
}

set PROPERTIES_ORIGIN ["COM"]
properties('MP2/aug-cc-pvtz', properties = ['dipole'])
--------------------------------------------------------------------------

    Molecular point group: c1
  Charge       = 0
  Multiplicity = 1
  Basis Set: AUG-CC-PVTZ
    Blend: AUG-CC-PVTZ
  Basis Set: (AUG-CC-PVTZ AUX)
    Blend: AUG-CC-PVTZ-JKFIT

    Orbital Energies [Eh]
    ---------------------

    Doubly Occupied:

       1A    -20.598375     2A    -11.270338     3A    -11.270294
       4A    -11.230234     5A    -11.229256     6A    -11.223763
       7A    -11.222815     8A    -11.217767     9A    -11.216281
      10A    -11.215411    11A    -11.214448    12A     -1.425704
      13A     -1.098568    14A     -1.078525    15A     -1.035847
      16A     -0.991303    17A     -0.932708    18A     -0.926859
      19A     -0.869683    20A     -0.814952    21A     -0.748272
      22A     -0.720425    23A     -0.656976    24A     -0.626115
      25A     -0.611054    26A     -0.609722    27A     -0.585921
      28A     -0.584108    29A     -0.568035    30A     -0.556605
      31A     -0.550638    32A     -0.532913    33A     -0.529467
      34A     -0.524524    35A     -0.521638    36A     -0.505100
      37A     -0.494946    38A     -0.492438    39A     -0.483471
      40A     -0.465666    41A     -0.360126    42A     -0.279704

  @DF-RHF Final Energy:  -463.01125411377484

   => Energetics <=

    Nuclear Repulsion Energy =            629.1724912607622855
    One-Electron Energy =               -1876.1855006139478519
    Two-Electron Energy =                 784.0017552394108407
    Total Energy =                       -463.0112541137748394
  Basis Set: (AUG-CC-PVTZ AUX)
    Blend: AUG-CC-PVTZ-RI
    Molecular point group: c1

    Geometry (in Angstrom), charge = 0, multiplicity = 1:

       Center              X                  Y                   Z               Mass
    ------------   -----------------  -----------------  -----------------  -----------------
         O            0.078313605090     1.030745291725     0.509309031120    15.994914619570
         C           -0.743516194910    -1.039441808275     0.126891631120    12.000000000000
         C            0.697983705090    -1.098035108275     0.061113131120    12.000000000000
         C           -1.073177194910     0.262579191725     0.395048631120    12.000000000000
         C            1.138378805090     0.176712191725     0.303223631120    12.000000000000
         C           -2.357968194910     1.001196191725     0.519726631120    12.000000000000
         C            2.483219805090     0.811417191725     0.340842631120    12.000000000000
         C           -1.684699194910    -2.182614808275    -0.088673368880    12.000000000000
         C            1.510817805090    -2.322141808275    -0.176327368880    12.000000000000
         C           -2.850335194910     1.556251191725    -0.824759368880    12.000000000000
         C            2.811399805090     1.573778191725    -0.951106368880    12.000000000000
         H            3.231913805090     0.029666191725     0.519309631120     1.007825032230
         H            2.528891805090     1.495585191725     1.197343631120     1.007825032230
         H           -2.217626194910     1.821825191725     1.234353631120     1.007825032230
         H           -3.114693194910     0.331019191725     0.949024631120     1.007825032230
         H           -1.424667194910    -3.039396808275     0.544024631120     1.007825032230
         H           -2.713691194910    -1.890917808275     0.145629631120     1.007825032230
         H           -1.666708194910    -2.526960808275    -1.131164368880     1.007825032230
         H            2.512303805090    -2.064116808275    -0.538869368880     1.007825032230
         H            1.629020805090    -2.917286808275     0.738453631120     1.007825032230
         H            1.041300805090    -2.964932808275    -0.928747368880     1.007825032230
         H            2.811173805090     0.892548191725    -1.806419368880     1.007825032230
         H            3.795417805090     2.048061191725    -0.885580368880     1.007825032230
         H            2.062160805090     2.350661191725    -1.131446368880     1.007825032230
         H           -2.101099194910     2.229226191725    -1.253805368880     1.007825032230
         H           -3.784588194910     2.111667191725    -0.700856368880     1.007825032230
         H           -3.023577194910     0.740845191725    -1.533506368880     1.007825032230

  Basis Set: AUG-CC-PVTZ
    Blend: AUG-CC-PVTZ
  Basis Set: (AUG-CC-PVTZ AUX)
    Blend: AUG-CC-PVTZ-JKFIT
	 Reference Energy          =    -463.0112541137748394 [Eh]
	 Singles Energy            =      -0.0000000000000000 [Eh]
	 Same-Spin Energy          =      -0.4970249704141167 [Eh]
	 Opposite-Spin Energy      =      -1.6674206484803553 [Eh]
	 Correlation Energy        =      -2.1644456188944718 [Eh]
	 Total Energy              =    -465.1756997326693295 [Eh]

	 ================> DF-SCS-MP2 Energies <==================
	-----------------------------------------------------------
	 SCS Same-Spin Scale       =       0.3333333333333333 [-]
	 SCS Opposite-Spin Scale   =       1.2000000000000000 [-]
	 SCS Same-Spin Energy      =      -0.1656749901380389 [Eh]
	 SCS Opposite-Spin Energy  =      -2.0009047781764262 [Eh]
	 SCS Correlation Energy    =      -2.1665797683144650 [Eh]
	 SCS Total Energy          =    -465.1778338820893168 [Eh]
	-----------------------------------------------------------

  Dipole Moment: [D]
     X:    -0.0559      Y:    -0.6980      Z:    -0.2237     Total:     0.7351

*** Psi4 exiting successfully. Buy a developer a beer!
