                               Psi4 1.3.2 release

  ==> Input File <==

--------------------------------------------------------------------------
#psi4
#
memory 32 gb

molecule  {
0 1
  O        0.0799885     1.0314873     0.5089870
  C       -0.7418240    -1.0387750     0.1269710
  C        0.6883760    -1.0936210     0.0623120
  C       -1.0714850     0.2632460     0.3951280
  C        1.1400710     0.1773790     0.3033030
  C       -2.3562760     1.0018630     0.5198060
  C        2.4793554     0.8235886     0.3432212
  C       -1.6830070    -2.1819480    -0.0885940
  C        1.5125100    -2.3214750    -0.1762480
  C       -2.8486430     1.5569180    -0.8246800
  C        2.8130920     1.5744450    -0.9510270
  H        3.2336060     0.0303330     0.5193890
  H        2.5305840     1.4962520     1.1974230
  H       -2.2159340     1.8224920     1.2344330
  H       -3.1130010     0.3316860     0.9491040
  H       -1.4229750    -3.0387300     0.5441040
  H       -2.7119990    -1.8902510     0.1457090
  H       -1.6650160    -2.5262940    -1.1310850
  H        2.5139960    -2.0634500    -0.5387900
  H        1.6307130    -2.9166200     0.7385330
  H        1.0429930    -2.9642660    -0.9286680
  H        2.8128660     0.8932150    -1.8063400
  H        3.7971100     2.0487280    -0.8855010
  H        2.0638530     2.3513280    -1.1313670
  H       -2.0994070     2.2298930    -1.2537260
  H       -3.7828960     2.1123340    -0.7007770
  H       -3.0218850     0.7415120    -1.5334270
units angstrom
no_reorient  #important for SAPT in psi4, default
symmetry c1  #important for SAPT in psi4, default
}

set PROPERTIES_ORIGIN ["COM"]
properties('MP2/aug-cc-pvtz', properties = ['dipole'])
--------------------------------------------------------------------------

    Molecular point group: c1
  Charge       = 0
  Multiplicity = 1
  Basis Set: AUG-CC-PVTZ
    Blend: AUG-CC-PVTZ
  Basis Set: (AUG-CC-PVTZ AUX)
    Blend: AUG-CC-PVTZ-JKFIT

    Orbital Energies [Eh]
    ---------------------

    Doubly Occupied:

       1A    -20.598231     2A    -11.270246     3A    -11.269876
       4A    -11.230157     5A    -11.229635     6A    -11.223937
       7A    -11.223019     8A    -11.217133     9A    -11.215958
      10A    -11.215397    11A    -11.214427    12A     -1.425904
      13A     -1.099495    14A     -1.078389    15A     -1.036186
      16A     -0.990431    17A     -0.932896    18A     -0.926748
      19A     -0.869864    20A     -0.814884    21A     -0.747636
      22A     -0.722349    23A     -0.657035    24A     -0.626100
      25A     -0.611247    26A     -0.609395    27A     -0.585409
      28A     -0.584223    29A     -0.567778    30A     -0.556132
      31A     -0.549906    32A     -0.533374    33A     -0.527945
      34A     -0.524335    35A     -0.521872    36A     -0.505377
      37A     -0.494998    38A     -0.492439    39A     -0.481900
      40A     -0.468135    41A     -0.361674    42A     -0.279120

  @DF-RHF Final Energy:  -463.01091594922906

   => Energetics <=

    Nuclear Repulsion Energy =            629.3204695485027287
    One-Electron Energy =               -1876.4803898928598755
    Two-Electron Energy =                 784.1490043951279176
    Total Energy =                       -463.0109159492291155
  Basis Set: (AUG-CC-PVTZ AUX)
    Blend: AUG-CC-PVTZ-RI
    Molecular point group: c1

    Geometry (in Angstrom), charge = 0, multiplicity = 1:

       Center              X                  Y                   Z               Mass
    ------------   -----------------  -----------------  -----------------  -----------------
         O            0.079627849652     1.029609438096     0.508680152715    15.994914619570
         C           -0.742184650348    -1.040652861904     0.126664152715    12.000000000000
         C            0.688015349652    -1.095498861904     0.062005152715    12.000000000000
         C           -1.071845650348     0.261368138096     0.394821152715    12.000000000000
         C            1.139710349652     0.175501138096     0.302996152715    12.000000000000
         C           -2.356636650348     0.999985138096     0.519499152715    12.000000000000
         C            2.478994749652     0.821710738096     0.342914352715    12.000000000000
         C           -1.683367650348    -2.183825861904    -0.088900847285    12.000000000000
         C            1.512149349652    -2.323352861904    -0.176554847285    12.000000000000
         C           -2.849003650348     1.555040138096    -0.824986847285    12.000000000000
         C            2.812731349652     1.572567138096    -0.951333847285    12.000000000000
         H            3.233245349652     0.028455138096     0.519082152715     1.007825032230
         H            2.530223349652     1.494374138096     1.197116152715     1.007825032230
         H           -2.216294650348     1.820614138096     1.234126152715     1.007825032230
         H           -3.113361650348     0.329808138096     0.948797152715     1.007825032230
         H           -1.423335650348    -3.040607861904     0.543797152715     1.007825032230
         H           -2.712359650348    -1.892128861904     0.145402152715     1.007825032230
         H           -1.665376650348    -2.528171861904    -1.131391847285     1.007825032230
         H            2.513635349652    -2.065327861904    -0.539096847285     1.007825032230
         H            1.630352349652    -2.918497861904     0.738226152715     1.007825032230
         H            1.042632349652    -2.966143861904    -0.928974847285     1.007825032230
         H            2.812505349652     0.891337138096    -1.806646847285     1.007825032230
         H            3.796749349652     2.046850138096    -0.885807847285     1.007825032230
         H            2.063492349652     2.349450138096    -1.131673847285     1.007825032230
         H           -2.099767650348     2.228015138096    -1.254032847285     1.007825032230
         H           -3.783256650348     2.110456138096    -0.701083847285     1.007825032230
         H           -3.022245650348     0.739634138096    -1.533733847285     1.007825032230

  Basis Set: AUG-CC-PVTZ
    Blend: AUG-CC-PVTZ
  Basis Set: (AUG-CC-PVTZ AUX)
    Blend: AUG-CC-PVTZ-JKFIT
	 Reference Energy          =    -463.0109159492290587 [Eh]
	 Singles Energy            =      -0.0000000000000000 [Eh]
	 Same-Spin Energy          =      -0.4971709046111009 [Eh]
	 Opposite-Spin Energy      =      -1.6675680027158517 [Eh]
	 Correlation Energy        =      -2.1647389073269525 [Eh]
	 Total Energy              =    -465.1756548565560365 [Eh]

	 ================> DF-SCS-MP2 Energies <==================
	-----------------------------------------------------------
	 SCS Same-Spin Scale       =       0.3333333333333333 [-]
	 SCS Opposite-Spin Scale   =       1.2000000000000000 [-]
	 SCS Same-Spin Energy      =      -0.1657236348703670 [Eh]
	 SCS Opposite-Spin Energy  =      -2.0010816032590220 [Eh]
	 SCS Correlation Energy    =      -2.1668052381293887 [Eh]
	 SCS Total Energy          =    -465.1777211873584292 [Eh]
	-----------------------------------------------------------

  Dipole Moment: [D]
     X:    -0.0610      Y:    -0.6862      Z:    -0.2217     Total:     0.7237

*** Psi4 exiting successfully. Buy a developer a beer!
