                               Psi4 1.3.2 release

  ==> Input File <==

--------------------------------------------------------------------------
#psi4
#
memory 32 gb

molecule  {
0 1
  O        0.0723890     1.0222580     0.5077940
  C       -0.7418240    -1.0387750     0.1269710
  C        0.6883760    -1.0936210     0.0623120
  C       -1.0598734     0.2660530     0.3955071
  C        1.1400710     0.1773790     0.3033030
  C       -2.3562760     1.0018630     0.5198060
  C        2.4849120     0.8120840     0.3409220
  C       -1.6728215    -2.1899246    -0.0903687
  C        1.5125100    -2.3214750    -0.1762480
  C       -2.8486430     1.5569180    -0.8246800
  C        2.8130920     1.5744450    -0.9510270
  H        3.2336060     0.0303330     0.5193890
  H        2.5305840     1.4962520     1.1974230
  H       -2.2159340     1.8224920     1.2344330
  H       -3.1130010     0.3316860     0.9491040
  H       -1.4229750    -3.0387300     0.5441040
  H       -2.7119990    -1.8902510     0.1457090
  H       -1.6650160    -2.5262940    -1.1310850
  H        2.5139960    -2.0634500    -0.5387900
  H        1.6307130    -2.9166200     0.7385330
  H        1.0429930    -2.9642660    -0.9286680
  H        2.8128660     0.8932150    -1.8063400
  H        3.7971100     2.0487280    -0.8855010
  H        2.0638530     2.3513280    -1.1313670
  H       -2.0994070     2.2298930    -1.2537260
  H       -3.7828960     2.1123340    -0.7007770
  H       -3.0218850     0.7415120    -1.5334270
units angstrom
no_reorient  #important for SAPT in psi4, default
symmetry c1  #important for SAPT in psi4, default
}

set PROPERTIES_ORIGIN ["COM"]
properties('MP2/aug-cc-pvtz', properties = ['dipole'])
--------------------------------------------------------------------------

    Molecular point group: c1
  Charge       = 0
  Multiplicity = 1
  Basis Set: AUG-CC-PVTZ
    Blend: AUG-CC-PVTZ
  Basis Set: (AUG-CC-PVTZ AUX)
    Blend: AUG-CC-PVTZ-JKFIT

    Orbital Energies [Eh]
    ---------------------

    Doubly Occupied:

       1A    -20.600424     2A    -11.270059     3A    -11.268833
       4A    -11.230245     5A    -11.229875     6A    -11.223243
       7A    -11.222909     8A    -11.216109     9A    -11.215358
      10A    -11.214570    11A    -11.214400    12A     -1.434558
      13A     -1.099080    14A     -1.078197    15A     -1.035575
      16A     -0.989651    17A     -0.932997    18A     -0.928113
      19A     -0.869398    20A     -0.815341    21A     -0.751487
      22A     -0.721498    23A     -0.658961    24A     -0.629051
      25A     -0.610712    26A     -0.609176    27A     -0.587148
      28A     -0.583191    29A     -0.569404    30A     -0.557079
      31A     -0.547889    32A     -0.533157    33A     -0.528592
      34A     -0.525479    35A     -0.521149    36A     -0.505427
      37A     -0.494883    38A     -0.491566    39A     -0.484091
      40A     -0.465169    41A     -0.361106    42A     -0.278944

  @DF-RHF Final Energy:  -463.01215919357924

   => Energetics <=

    Nuclear Repulsion Energy =            629.7109314825804631
    One-Electron Energy =               -1877.2379917117234527
    Two-Electron Energy =                 784.5149010355637529
    Total Energy =                       -463.0121591935792367
  Basis Set: (AUG-CC-PVTZ AUX)
    Blend: AUG-CC-PVTZ-RI
    Molecular point group: c1

    Geometry (in Angstrom), charge = 0, multiplicity = 1:

       Center              X                  Y                   Z               Mass
    ------------   -----------------  -----------------  -----------------  -----------------
         O            0.070669613852     1.022665912500     0.507904057035    15.994914619570
         C           -0.743543386148    -1.038367087500     0.127081057035    12.000000000000
         C            0.686656613852    -1.093213087500     0.062422057035    12.000000000000
         C           -1.061592786148     0.266460912500     0.395617157035    12.000000000000
         C            1.138351613852     0.177786912500     0.303413057035    12.000000000000
         C           -2.357995386148     1.002270912500     0.519916057035    12.000000000000
         C            2.483192613852     0.812491912500     0.341032057035    12.000000000000
         C           -1.674540886148    -2.189516687500    -0.090258642965    12.000000000000
         C            1.510790613852    -2.321067087500    -0.176137942965    12.000000000000
         C           -2.850362386148     1.557325912500    -0.824569942965    12.000000000000
         C            2.811372613852     1.574852912500    -0.950916942965    12.000000000000
         H            3.231886613852     0.030740912500     0.519499057035     1.007825032230
         H            2.528864613852     1.496659912500     1.197533057035     1.007825032230
         H           -2.217653386148     1.822899912500     1.234543057035     1.007825032230
         H           -3.114720386148     0.332093912500     0.949214057035     1.007825032230
         H           -1.424694386148    -3.038322087500     0.544214057035     1.007825032230
         H           -2.713718386148    -1.889843087500     0.145819057035     1.007825032230
         H           -1.666735386148    -2.525886087500    -1.130974942965     1.007825032230
         H            2.512276613852    -2.063042087500    -0.538679942965     1.007825032230
         H            1.628993613852    -2.916212087500     0.738643057035     1.007825032230
         H            1.041273613852    -2.963858087500    -0.928557942965     1.007825032230
         H            2.811146613852     0.893622912500    -1.806229942965     1.007825032230
         H            3.795390613852     2.049135912500    -0.885390942965     1.007825032230
         H            2.062133613852     2.351735912500    -1.131256942965     1.007825032230
         H           -2.101126386148     2.230300912500    -1.253615942965     1.007825032230
         H           -3.784615386148     2.112741912500    -0.700666942965     1.007825032230
         H           -3.023604386148     0.741919912500    -1.533316942965     1.007825032230

  Basis Set: AUG-CC-PVTZ
    Blend: AUG-CC-PVTZ
  Basis Set: (AUG-CC-PVTZ AUX)
    Blend: AUG-CC-PVTZ-JKFIT
	 Reference Energy          =    -463.0121591935792367 [Eh]
	 Singles Energy            =      -0.0000000000000000 [Eh]
	 Same-Spin Energy          =      -0.4969938031070150 [Eh]
	 Opposite-Spin Energy      =      -1.6668395078853082 [Eh]
	 Correlation Energy        =      -2.1638333109923233 [Eh]
	 Total Energy              =    -465.1759925045715818 [Eh]

	 ================> DF-SCS-MP2 Energies <==================
	-----------------------------------------------------------
	 SCS Same-Spin Scale       =       0.3333333333333333 [-]
	 SCS Opposite-Spin Scale   =       1.2000000000000000 [-]
	 SCS Same-Spin Energy      =      -0.1656646010356717 [Eh]
	 SCS Opposite-Spin Energy  =      -2.0002074094623699 [Eh]
	 SCS Correlation Energy    =      -2.1658720104980413 [Eh]
	 SCS Total Energy          =    -465.1780312040772856 [Eh]
	-----------------------------------------------------------

  Dipole Moment: [D]
     X:    -0.0088      Y:    -0.6530      Z:    -0.2141     Total:     0.6873

*** Psi4 exiting successfully. Buy a developer a beer!
