                               Psi4 1.3.2 release

  ==> Input File <==

--------------------------------------------------------------------------
#psi4
#
memory 32 gb

molecule  {
0 1
  O        0.0723890     1.0222580     0.5077940
  C       -0.7418240    -1.0387750     0.1269710
  C        0.6897644    -1.0903163     0.0497414
  C       -1.0714850     0.2632460     0.3951280
  C        1.1400710     0.1773790     0.3033030
  C       -2.3562760     1.0018630     0.5198060
  C        2.4849120     0.8120840     0.3409220
  C       -1.6830070    -2.1819480    -0.0885940
  C        1.5125100    -2.3214750    -0.1762480
  C       -2.8486430     1.5569180    -0.8246800
  C        2.8130920     1.5744450    -0.9510270
  H        3.2336060     0.0303330     0.5193890
  H        2.5305840     1.4962520     1.1974230
  H       -2.2159340     1.8224920     1.2344330
  H       -3.1130010     0.3316860     0.9491040
  H       -1.4229750    -3.0387300     0.5441040
  H       -2.7119990    -1.8902510     0.1457090
  H       -1.6650160    -2.5262940    -1.1310850
  H        2.5139960    -2.0634500    -0.5387900
  H        1.6359718    -2.9229784     0.7336667
  H        1.0429930    -2.9642660    -0.9286680
  H        2.8128660     0.8932150    -1.8063400
  H        3.7971100     2.0487280    -0.8855010
  H        2.0638530     2.3513280    -1.1313670
  H       -2.0994070     2.2298930    -1.2537260
  H       -3.7828960     2.1123340    -0.7007770
  H       -3.0218850     0.7415120    -1.5334270
units angstrom
no_reorient  #important for SAPT in psi4, default
symmetry c1  #important for SAPT in psi4, default
}

set PROPERTIES_ORIGIN ["COM"]
properties('MP2/aug-cc-pvtz', properties = ['dipole'])
--------------------------------------------------------------------------

    Molecular point group: c1
  Charge       = 0
  Multiplicity = 1
  Basis Set: AUG-CC-PVTZ
    Blend: AUG-CC-PVTZ
  Basis Set: (AUG-CC-PVTZ AUX)
    Blend: AUG-CC-PVTZ-JKFIT

    Orbital Energies [Eh]
    ---------------------

    Doubly Occupied:

       1A    -20.598664     2A    -11.269686     3A    -11.269600
       4A    -11.230150     5A    -11.230013     6A    -11.223185
       7A    -11.222836     8A    -11.216290     9A    -11.215521
      10A    -11.215248    11A    -11.214698    12A     -1.429795
      13A     -1.098579    14A     -1.079000    15A     -1.036215
      16A     -0.990072    17A     -0.932333    18A     -0.927653
      19A     -0.870157    20A     -0.815736    21A     -0.749657
      22A     -0.721513    23A     -0.658159    24A     -0.627239
      25A     -0.610988    26A     -0.609845    27A     -0.586850
      28A     -0.583715    29A     -0.567386    30A     -0.555757
      31A     -0.549431    32A     -0.533319    33A     -0.527911
      34A     -0.523978    35A     -0.521640    36A     -0.505384
      37A     -0.495281    38A     -0.492616    39A     -0.483912
      40A     -0.466919    41A     -0.360671    42A     -0.279328

  @DF-RHF Final Energy:  -463.01197171115507

   => Energetics <=

    Nuclear Repulsion Energy =            629.5716405425062021
    One-Electron Energy =               -1876.9733609147826883
    Two-Electron Energy =                 784.3897486611214163
    Total Energy =                       -463.0119717111550699
  Basis Set: (AUG-CC-PVTZ AUX)
    Blend: AUG-CC-PVTZ-RI
    Molecular point group: c1

    Geometry (in Angstrom), charge = 0, multiplicity = 1:

       Center              X                  Y                   Z               Mass
    ------------   -----------------  -----------------  -----------------  -----------------
         O            0.072244714222     1.022039542705     0.508817837430    15.994914619570
         C           -0.741968285778    -1.038993457295     0.127994837430    12.000000000000
         C            0.689620114222    -1.090534757295     0.050765237430    12.000000000000
         C           -1.071629285778     0.263027542705     0.396151837430    12.000000000000
         C            1.139926714222     0.177160542705     0.304326837430    12.000000000000
         C           -2.356420285778     1.001644542705     0.520829837430    12.000000000000
         C            2.484767714222     0.811865542705     0.341945837430    12.000000000000
         C           -1.683151285778    -2.182166457295    -0.087570162570    12.000000000000
         C            1.512365714222    -2.321693457295    -0.175224162570    12.000000000000
         C           -2.848787285778     1.556699542705    -0.823656162570    12.000000000000
         C            2.812947714222     1.574226542705    -0.950003162570    12.000000000000
         H            3.233461714222     0.030114542705     0.520412837430     1.007825032230
         H            2.530439714222     1.496033542705     1.198446837430     1.007825032230
         H           -2.216078285778     1.822273542705     1.235456837430     1.007825032230
         H           -3.113145285778     0.331467542705     0.950127837430     1.007825032230
         H           -1.423119285778    -3.038948457295     0.545127837430     1.007825032230
         H           -2.712143285778    -1.890469457295     0.146732837430     1.007825032230
         H           -1.665160285778    -2.526512457295    -1.130061162570     1.007825032230
         H            2.513851714222    -2.063668457295    -0.537766162570     1.007825032230
         H            1.635827514222    -2.923196857295     0.734690537430     1.007825032230
         H            1.042848714222    -2.964484457295    -0.927644162570     1.007825032230
         H            2.812721714222     0.892996542705    -1.805316162570     1.007825032230
         H            3.796965714222     2.048509542705    -0.884477162570     1.007825032230
         H            2.063708714222     2.351109542705    -1.130343162570     1.007825032230
         H           -2.099551285778     2.229674542705    -1.252702162570     1.007825032230
         H           -3.783040285778     2.112115542705    -0.699753162570     1.007825032230
         H           -3.022029285778     0.741293542705    -1.532403162570     1.007825032230

  Basis Set: AUG-CC-PVTZ
    Blend: AUG-CC-PVTZ
  Basis Set: (AUG-CC-PVTZ AUX)
    Blend: AUG-CC-PVTZ-JKFIT
	 Reference Energy          =    -463.0119717111550699 [Eh]
	 Singles Energy            =      -0.0000000000000000 [Eh]
	 Same-Spin Energy          =      -0.4970567233202309 [Eh]
	 Opposite-Spin Energy      =      -1.6670708371654475 [Eh]
	 Correlation Energy        =      -2.1641275604856784 [Eh]
	 Total Energy              =    -465.1760992716407372 [Eh]

	 ================> DF-SCS-MP2 Energies <==================
	-----------------------------------------------------------
	 SCS Same-Spin Scale       =       0.3333333333333333 [-]
	 SCS Opposite-Spin Scale   =       1.2000000000000000 [-]
	 SCS Same-Spin Energy      =      -0.1656855744400769 [Eh]
	 SCS Opposite-Spin Energy  =      -2.0004850045985370 [Eh]
	 SCS Correlation Energy    =      -2.1661705790386141 [Eh]
	 SCS Total Energy          =    -465.1781422901937049 [Eh]
	-----------------------------------------------------------

  Dipole Moment: [D]
     X:    -0.0321      Y:    -0.6504      Z:    -0.2080     Total:     0.6836

*** Psi4 exiting successfully. Buy a developer a beer!
