                               Psi4 1.3.2 release

  ==> Input File <==

--------------------------------------------------------------------------
#psi4
#
memory 32 gb

molecule  {
0 1
  O        0.0723890     1.0222580     0.5077940
  C       -0.7418240    -1.0387750     0.1269710
  C        0.6883760    -1.0936210     0.0623120
  C       -1.0770119     0.2551881     0.3865864
  C        1.1400710     0.1773790     0.3033030
  C       -2.3562760     1.0018630     0.5198060
  C        2.4849120     0.8120840     0.3409220
  C       -1.6830070    -2.1819480    -0.0885940
  C        1.5125100    -2.3214750    -0.1762480
  C       -2.8486430     1.5569180    -0.8246800
  C        2.8130920     1.5744450    -0.9510270
  H        3.2336060     0.0303330     0.5193890
  H        2.5305840     1.4962520     1.1974230
  H       -2.2250635     1.8250905     1.2331778
  H       -3.1130010     0.3316860     0.9491040
  H       -1.4229750    -3.0387300     0.5441040
  H       -2.7119990    -1.8902510     0.1457090
  H       -1.6650160    -2.5262940    -1.1310850
  H        2.5139960    -2.0634500    -0.5387900
  H        1.6307130    -2.9166200     0.7385330
  H        1.0429930    -2.9642660    -0.9286680
  H        2.8128660     0.8932150    -1.8063400
  H        3.7971100     2.0487280    -0.8855010
  H        2.0638530     2.3513280    -1.1313670
  H       -2.0994070     2.2298930    -1.2537260
  H       -3.7828960     2.1123340    -0.7007770
  H       -3.0218850     0.7415120    -1.5334270
units angstrom
no_reorient  #important for SAPT in psi4, default
symmetry c1  #important for SAPT in psi4, default
}

set PROPERTIES_ORIGIN ["COM"]
properties('MP2/aug-cc-pvtz', properties = ['dipole'])
--------------------------------------------------------------------------

    Molecular point group: c1
  Charge       = 0
  Multiplicity = 1
  Basis Set: AUG-CC-PVTZ
    Blend: AUG-CC-PVTZ
  Basis Set: (AUG-CC-PVTZ AUX)
    Blend: AUG-CC-PVTZ-JKFIT

    Orbital Energies [Eh]
    ---------------------

    Doubly Occupied:

       1A    -20.597052     2A    -11.269850     3A    -11.269044
       4A    -11.230222     5A    -11.229985     6A    -11.223419
       7A    -11.222832     8A    -11.216047     9A    -11.215289
      10A    -11.215057    11A    -11.214724    12A     -1.425933
      13A     -1.099517    14A     -1.078747    15A     -1.036243
      16A     -0.990567    17A     -0.932670    18A     -0.926891
      19A     -0.869951    20A     -0.815886    21A     -0.748018
      22A     -0.721999    23A     -0.657386    24A     -0.626312
      25A     -0.611250    26A     -0.609529    27A     -0.586233
      28A     -0.584091    29A     -0.567382    30A     -0.555931
      31A     -0.549744    32A     -0.533324    33A     -0.527553
      34A     -0.522779    35A     -0.521254    36A     -0.505134
      37A     -0.494928    38A     -0.493279    39A     -0.483141
      40A     -0.468406    41A     -0.361494    42A     -0.279998

  @DF-RHF Final Energy:  -463.01185637297374

   => Energetics <=

    Nuclear Repulsion Energy =            629.5441046239664047
    One-Electron Energy =               -1876.9337409129034313
    Two-Electron Energy =                 784.3777799159632877
    Total Energy =                       -463.0118563729737389
  Basis Set: (AUG-CC-PVTZ AUX)
    Blend: AUG-CC-PVTZ-RI
    Molecular point group: c1

    Geometry (in Angstrom), charge = 0, multiplicity = 1:

       Center              X                  Y                   Z               Mass
    ------------   -----------------  -----------------  -----------------  -----------------
         O            0.072885553133     1.022876540572     0.508476085408    15.994914619570
         C           -0.741327446867    -1.038156459428     0.127653085408    12.000000000000
         C            0.688872553133    -1.093002459428     0.062994085408    12.000000000000
         C           -1.076515346867     0.255806640572     0.387268485408    12.000000000000
         C            1.140567553133     0.177997540572     0.303985085408    12.000000000000
         C           -2.355779446867     1.002481540572     0.520488085408    12.000000000000
         C            2.485408553133     0.812702540572     0.341604085408    12.000000000000
         C           -1.682510446867    -2.181329459428    -0.087911914592    12.000000000000
         C            1.513006553133    -2.320856459428    -0.175565914592    12.000000000000
         C           -2.848146446867     1.557536540572    -0.823997914592    12.000000000000
         C            2.813588553133     1.575063540572    -0.950344914592    12.000000000000
         H            3.234102553133     0.030951540572     0.520071085408     1.007825032230
         H            2.531080553133     1.496870540572     1.198105085408     1.007825032230
         H           -2.224566946867     1.825709040572     1.233859885408     1.007825032230
         H           -3.112504446867     0.332304540572     0.949786085408     1.007825032230
         H           -1.422478446867    -3.038111459428     0.544786085408     1.007825032230
         H           -2.711502446867    -1.889632459428     0.146391085408     1.007825032230
         H           -1.664519446867    -2.525675459428    -1.130402914592     1.007825032230
         H            2.514492553133    -2.062831459428    -0.538107914592     1.007825032230
         H            1.631209553133    -2.916001459428     0.739215085408     1.007825032230
         H            1.043489553133    -2.963647459428    -0.927985914592     1.007825032230
         H            2.813362553133     0.893833540572    -1.805657914592     1.007825032230
         H            3.797606553133     2.049346540572    -0.884818914592     1.007825032230
         H            2.064349553133     2.351946540572    -1.130684914592     1.007825032230
         H           -2.098910446867     2.230511540572    -1.253043914592     1.007825032230
         H           -3.782399446867     2.112952540572    -0.700094914592     1.007825032230
         H           -3.021388446867     0.742130540572    -1.532744914592     1.007825032230

  Basis Set: AUG-CC-PVTZ
    Blend: AUG-CC-PVTZ
  Basis Set: (AUG-CC-PVTZ AUX)
    Blend: AUG-CC-PVTZ-JKFIT
	 Reference Energy          =    -463.0118563729737389 [Eh]
	 Singles Energy            =      -0.0000000000000000 [Eh]
	 Same-Spin Energy          =      -0.4969825962344665 [Eh]
	 Opposite-Spin Energy      =      -1.6671361266933167 [Eh]
	 Correlation Energy        =      -2.1641187229277832 [Eh]
	 Total Energy              =    -465.1759750959015491 [Eh]

	 ================> DF-SCS-MP2 Energies <==================
	-----------------------------------------------------------
	 SCS Same-Spin Scale       =       0.3333333333333333 [-]
	 SCS Opposite-Spin Scale   =       1.2000000000000000 [-]
	 SCS Same-Spin Energy      =      -0.1656608654114888 [Eh]
	 SCS Opposite-Spin Energy  =      -2.0005633520319801 [Eh]
	 SCS Correlation Energy    =      -2.1662242174434692 [Eh]
	 SCS Total Energy          =    -465.1780805904172098 [Eh]
	-----------------------------------------------------------

  Dipole Moment: [D]
     X:    -0.0471      Y:    -0.6671      Z:    -0.2156     Total:     0.7027

*** Psi4 exiting successfully. Buy a developer a beer!
