                               Psi4 1.3.2 release

  ==> Input File <==

--------------------------------------------------------------------------
#psi4
#
memory 32 gb

molecule  {
0 1
  O        0.0723890     1.0222580     0.5077940
  C       -0.7418240    -1.0387750     0.1269710
  C        0.6883760    -1.0936210     0.0623120
  C       -1.0714850     0.2632460     0.3951280
  C        1.1400710     0.1773790     0.3033030
  C       -2.3562760     1.0018630     0.5198060
  C        2.4849120     0.8120840     0.3409220
  C       -1.6830070    -2.1819480    -0.0885940
  C        1.4024721    -2.1575327    -0.1443956
  C       -2.8486430     1.5569180    -0.8246800
  C        2.8130920     1.5744450    -0.9510270
  H        3.2336060     0.0303330     0.5193890
  H        2.5305840     1.4962520     1.1974230
  H       -2.2159340     1.8224920     1.2344330
  H       -3.1130010     0.3316860     0.9491040
  H       -1.4229750    -3.0387300     0.5441040
  H       -2.7119990    -1.8902510     0.1457090
  H       -1.6650160    -2.5262940    -1.1310850
  H        2.5139960    -2.0634500    -0.5387900
  H        1.6307130    -2.9166200     0.7385330
  H        1.0429930    -2.9642660    -0.9286680
  H        2.8128660     0.8932150    -1.8063400
  H        3.7971100     2.0487280    -0.8855010
  H        2.0638530     2.3513280    -1.1313670
  H       -2.0994070     2.2298930    -1.2537260
  H       -3.7828960     2.1123340    -0.7007770
  H       -3.0218850     0.7415120    -1.5334270
units angstrom
no_reorient  #important for SAPT in psi4, default
symmetry c1  #important for SAPT in psi4, default
}

set PROPERTIES_ORIGIN ["COM"]
properties('MP2/aug-cc-pvtz', properties = ['dipole'])
--------------------------------------------------------------------------

    Molecular point group: c1
  Charge       = 0
  Multiplicity = 1
  Basis Set: AUG-CC-PVTZ
    Blend: AUG-CC-PVTZ
  Basis Set: (AUG-CC-PVTZ AUX)
    Blend: AUG-CC-PVTZ-JKFIT

    Orbital Energies [Eh]
    ---------------------

    Doubly Occupied:

       1A    -20.600876     2A    -11.273220     3A    -11.271554
       4A    -11.232587     5A    -11.231338     6A    -11.231248
       7A    -11.223522     8A    -11.216751     9A    -11.216445
      10A    -11.215788    11A    -11.204154    12A     -1.432177
      13A     -1.122834    14A     -1.082327    15A     -1.038678
      16A     -1.002651    17A     -0.930653    18A     -0.926872
      19A     -0.871445    20A     -0.815465    21A     -0.751050
      22A     -0.729719    23A     -0.666776    24A     -0.635423
      25A     -0.617552    26A     -0.611662    27A     -0.590063
      28A     -0.585258    29A     -0.569097    30A     -0.563902
      31A     -0.539371    32A     -0.537248    33A     -0.527359
      34A     -0.520890    35A     -0.516093    36A     -0.506214
      37A     -0.495568    38A     -0.492390    39A     -0.485222
      40A     -0.448808    41A     -0.352300    42A     -0.277960

  @DF-RHF Final Energy:  -462.95858060336764

   => Energetics <=

    Nuclear Repulsion Energy =            633.7262565980890940
    One-Electron Energy =               -1885.0486471533943131
    Two-Electron Energy =                 788.3638099519375828
    Total Energy =                       -462.9585806033676363
  Basis Set: (AUG-CC-PVTZ AUX)
    Blend: AUG-CC-PVTZ-RI
    Molecular point group: c1

    Geometry (in Angstrom), charge = 0, multiplicity = 1:

       Center              X                  Y                   Z               Mass
    ------------   -----------------  -----------------  -----------------  -----------------
         O            0.081069421915     1.009325515024     0.505281287523    15.994914619570
         C           -0.733143578085    -1.051707484976     0.124458287523    12.000000000000
         C            0.697056421915    -1.106553484976     0.059799287523    12.000000000000
         C           -1.062804578085     0.250313515024     0.392615287523    12.000000000000
         C            1.148751421915     0.164446515024     0.300790287523    12.000000000000
         C           -2.347595578085     0.988930515024     0.517293287523    12.000000000000
         C            2.493592421915     0.799151515024     0.338409287523    12.000000000000
         C           -1.674326578085    -2.194880484976    -0.091106712477    12.000000000000
         C            1.411152521915    -2.170465184976    -0.146908312477    12.000000000000
         C           -2.839962578085     1.543985515024    -0.827192712477    12.000000000000
         C            2.821772421915     1.561512515024    -0.953539712477    12.000000000000
         H            3.242286421915     0.017400515024     0.516876287523     1.007825032230
         H            2.539264421915     1.483319515024     1.194910287523     1.007825032230
         H           -2.207253578085     1.809559515024     1.231920287523     1.007825032230
         H           -3.104320578085     0.318753515024     0.946591287523     1.007825032230
         H           -1.414294578085    -3.051662484976     0.541591287523     1.007825032230
         H           -2.703318578085    -1.903183484976     0.143196287523     1.007825032230
         H           -1.656335578085    -2.539226484976    -1.133597712477     1.007825032230
         H            2.522676421915    -2.076382484976    -0.541302712477     1.007825032230
         H            1.639393421915    -2.929552484976     0.736020287523     1.007825032230
         H            1.051673421915    -2.977198484976    -0.931180712477     1.007825032230
         H            2.821546421915     0.880282515024    -1.808852712477     1.007825032230
         H            3.805790421915     2.035795515024    -0.888013712477     1.007825032230
         H            2.072533421915     2.338395515024    -1.133879712477     1.007825032230
         H           -2.090726578085     2.216960515024    -1.256238712477     1.007825032230
         H           -3.774215578085     2.099401515024    -0.703289712477     1.007825032230
         H           -3.013204578085     0.728579515024    -1.535939712477     1.007825032230

  Basis Set: AUG-CC-PVTZ
    Blend: AUG-CC-PVTZ
  Basis Set: (AUG-CC-PVTZ AUX)
    Blend: AUG-CC-PVTZ-JKFIT
	 Reference Energy          =    -462.9585806033676363 [Eh]
	 Singles Energy            =      -0.0000000000000000 [Eh]
	 Same-Spin Energy          =      -0.5008333545609116 [Eh]
	 Opposite-Spin Energy      =      -1.6718091301973628 [Eh]
	 Correlation Energy        =      -2.1726424847582742 [Eh]
	 Total Energy              =    -465.1312230881259211 [Eh]

	 ================> DF-SCS-MP2 Energies <==================
	-----------------------------------------------------------
	 SCS Same-Spin Scale       =       0.3333333333333333 [-]
	 SCS Opposite-Spin Scale   =       1.2000000000000000 [-]
	 SCS Same-Spin Energy      =      -0.1669444515203038 [Eh]
	 SCS Opposite-Spin Energy  =      -2.0061709562368351 [Eh]
	 SCS Correlation Energy    =      -2.1731154077571389 [Eh]
	 SCS Total Energy          =    -465.1316960111248022 [Eh]
	-----------------------------------------------------------

  Dipole Moment: [D]
     X:    -0.1201      Y:    -0.4930      Z:    -0.2113     Total:     0.5497

*** Psi4 exiting successfully. Buy a developer a beer!
