                               Psi4 1.3.2 release

  ==> Input File <==

--------------------------------------------------------------------------
#psi4
#
memory 32 gb

molecule  {
0 1
  O        0.0723890     1.0222580     0.5077940
  C       -0.7418240    -1.0387750     0.1269710
  C        0.6883760    -1.0936210     0.0623120
  C       -1.0714850     0.2632460     0.3951280
  C        1.2060005     0.3628945     0.3384781
  C       -2.3562760     1.0018630     0.5198060
  C        2.4849120     0.8120840     0.3409220
  C       -1.6830070    -2.1819480    -0.0885940
  C        1.5125100    -2.3214750    -0.1762480
  C       -2.8486430     1.5569180    -0.8246800
  C        2.8130920     1.5744450    -0.9510270
  H        3.2336060     0.0303330     0.5193890
  H        2.5305840     1.4962520     1.1974230
  H       -2.2159340     1.8224920     1.2344330
  H       -3.1130010     0.3316860     0.9491040
  H       -1.4229750    -3.0387300     0.5441040
  H       -2.7119990    -1.8902510     0.1457090
  H       -1.6650160    -2.5262940    -1.1310850
  H        2.5139960    -2.0634500    -0.5387900
  H        1.6307130    -2.9166200     0.7385330
  H        1.0429930    -2.9642660    -0.9286680
  H        2.8128660     0.8932150    -1.8063400
  H        3.7971100     2.0487280    -0.8855010
  H        2.0638530     2.3513280    -1.1313670
  H       -2.0994070     2.2298930    -1.2537260
  H       -3.7828960     2.1123340    -0.7007770
  H       -3.0218850     0.7415120    -1.5334270
units angstrom
no_reorient  #important for SAPT in psi4, default
symmetry c1  #important for SAPT in psi4, default
}

set PROPERTIES_ORIGIN ["COM"]
properties('MP2/aug-cc-pvtz', properties = ['dipole'])
--------------------------------------------------------------------------

    Molecular point group: c1
  Charge       = 0
  Multiplicity = 1
  Basis Set: AUG-CC-PVTZ
    Blend: AUG-CC-PVTZ
  Basis Set: (AUG-CC-PVTZ AUX)
    Blend: AUG-CC-PVTZ-JKFIT

    Orbital Energies [Eh]
    ---------------------

    Doubly Occupied:

       1A    -20.611718     2A    -11.286826     3A    -11.266333
       4A    -11.230043     5A    -11.227858     6A    -11.224107
       7A    -11.223494     8A    -11.219531     9A    -11.217882
      10A    -11.216865    11A    -11.214114    12A     -1.448697
      13A     -1.102154    14A     -1.086849    15A     -1.042193
      16A     -0.982233    17A     -0.938746    18A     -0.918197
      19A     -0.880737    20A     -0.818224    21A     -0.748018
      22A     -0.715409    23A     -0.672936    24A     -0.632826
      25A     -0.621245    26A     -0.615651    27A     -0.597956
      28A     -0.579931    29A     -0.569021    30A     -0.552534
      31A     -0.547754    32A     -0.537711    33A     -0.531616
      34A     -0.528408    35A     -0.518032    36A     -0.511730
      37A     -0.503555    38A     -0.492086    39A     -0.479346
      40A     -0.440331    41A     -0.349876    42A     -0.249949

  @DF-RHF Final Energy:  -462.95268421308572

   => Energetics <=

    Nuclear Repulsion Energy =            628.6729846628048790
    One-Electron Energy =               -1874.9458897356760190
    Two-Electron Energy =                 783.3202208597855360
    Total Energy =                       -462.9526842130857176
  Basis Set: (AUG-CC-PVTZ AUX)
    Blend: AUG-CC-PVTZ-RI
    Molecular point group: c1

    Geometry (in Angstrom), charge = 0, multiplicity = 1:

       Center              X                  Y                   Z               Mass
    ------------   -----------------  -----------------  -----------------  -----------------
         O            0.067188228109     1.007623712473     0.505019176231    15.994914619570
         C           -0.747024771891    -1.053409287527     0.124196176231    12.000000000000
         C            0.683175228109    -1.108255287527     0.059537176231    12.000000000000
         C           -1.076685771891     0.248611712473     0.392353176231    12.000000000000
         C            1.200799728109     0.348260212473     0.335703276231    12.000000000000
         C           -2.361476771891     0.987228712473     0.517031176231    12.000000000000
         C            2.479711228109     0.797449712473     0.338147176231    12.000000000000
         C           -1.688207771891    -2.196582287527    -0.091368823769    12.000000000000
         C            1.507309228109    -2.336109287527    -0.179022823769    12.000000000000
         C           -2.853843771891     1.542283712473    -0.827454823769    12.000000000000
         C            2.807891228109     1.559810712473    -0.953801823769    12.000000000000
         H            3.228405228109     0.015698712473     0.516614176231     1.007825032230
         H            2.525383228109     1.481617712473     1.194648176231     1.007825032230
         H           -2.221134771891     1.807857712473     1.231658176231     1.007825032230
         H           -3.118201771891     0.317051712473     0.946329176231     1.007825032230
         H           -1.428175771891    -3.053364287527     0.541329176231     1.007825032230
         H           -2.717199771891    -1.904885287527     0.142934176231     1.007825032230
         H           -1.670216771891    -2.540928287527    -1.133859823769     1.007825032230
         H            2.508795228109    -2.078084287527    -0.541564823769     1.007825032230
         H            1.625512228109    -2.931254287527     0.735758176231     1.007825032230
         H            1.037792228109    -2.978900287527    -0.931442823769     1.007825032230
         H            2.807665228109     0.878580712473    -1.809114823769     1.007825032230
         H            3.791909228109     2.034093712473    -0.888275823769     1.007825032230
         H            2.058652228109     2.336693712473    -1.134141823769     1.007825032230
         H           -2.104607771891     2.215258712473    -1.256500823769     1.007825032230
         H           -3.788096771891     2.097699712473    -0.703551823769     1.007825032230
         H           -3.027085771891     0.726877712473    -1.536201823769     1.007825032230

  Basis Set: AUG-CC-PVTZ
    Blend: AUG-CC-PVTZ
  Basis Set: (AUG-CC-PVTZ AUX)
    Blend: AUG-CC-PVTZ-JKFIT
	 Reference Energy          =    -462.9526842130857176 [Eh]
	 Singles Energy            =      -0.0000000000000000 [Eh]
	 Same-Spin Energy          =      -0.5037074983017265 [Eh]
	 Opposite-Spin Energy      =      -1.6752374695756043 [Eh]
	 Correlation Energy        =      -2.1789449678773307 [Eh]
	 Total Energy              =    -465.1316291809630457 [Eh]

	 ================> DF-SCS-MP2 Energies <==================
	-----------------------------------------------------------
	 SCS Same-Spin Scale       =       0.3333333333333333 [-]
	 SCS Opposite-Spin Scale   =       1.2000000000000000 [-]
	 SCS Same-Spin Energy      =      -0.1679024994339088 [Eh]
	 SCS Opposite-Spin Energy  =      -2.0102849634907249 [Eh]
	 SCS Correlation Energy    =      -2.1781874629246336 [Eh]
	 SCS Total Energy          =    -465.1308716760103721 [Eh]
	-----------------------------------------------------------

  Dipole Moment: [D]
     X:    -0.0508      Y:    -0.3738      Z:    -0.1462     Total:     0.4046

*** Psi4 exiting successfully. Buy a developer a beer!
