                               Psi4 1.3.2 release

  ==> Input File <==

--------------------------------------------------------------------------
#psi4
#
memory 32 gb

molecule  {
0 1
  O        0.0723890     1.0222580     0.5077940
  C       -0.7418240    -1.0387750     0.1269710
  C        0.6883760    -1.0936210     0.0623120
  C       -1.2375763     0.1530369     0.3787688
  C        1.1400710     0.1773790     0.3033030
  C       -2.3562760     1.0018630     0.5198060
  C        2.4849120     0.8120840     0.3409220
  C       -1.6830070    -2.1819480    -0.0885940
  C        1.5125100    -2.3214750    -0.1762480
  C       -2.8486430     1.5569180    -0.8246800
  C        2.8130920     1.5744450    -0.9510270
  H        3.2336060     0.0303330     0.5193890
  H        2.5305840     1.4962520     1.1974230
  H       -2.2159340     1.8224920     1.2344330
  H       -3.1130010     0.3316860     0.9491040
  H       -1.4229750    -3.0387300     0.5441040
  H       -2.7119990    -1.8902510     0.1457090
  H       -1.6650160    -2.5262940    -1.1310850
  H        2.5139960    -2.0634500    -0.5387900
  H        1.6307130    -2.9166200     0.7385330
  H        1.0429930    -2.9642660    -0.9286680
  H        2.8128660     0.8932150    -1.8063400
  H        3.7971100     2.0487280    -0.8855010
  H        2.0638530     2.3513280    -1.1313670
  H       -2.0994070     2.2298930    -1.2537260
  H       -3.7828960     2.1123340    -0.7007770
  H       -3.0218850     0.7415120    -1.5334270
units angstrom
no_reorient  #important for SAPT in psi4, default
symmetry c1  #important for SAPT in psi4, default
}

set PROPERTIES_ORIGIN ["COM"]
properties('MP2/aug-cc-pvtz', properties = ['dipole'])
--------------------------------------------------------------------------

    Molecular point group: c1
  Charge       = 0
  Multiplicity = 1
  Basis Set: AUG-CC-PVTZ
    Blend: AUG-CC-PVTZ
  Basis Set: (AUG-CC-PVTZ AUX)
    Blend: AUG-CC-PVTZ-JKFIT

    Orbital Energies [Eh]
    ---------------------

    Doubly Occupied:

       1A    -20.565252     2A    -11.275544     3A    -11.269429
       4A    -11.232273     5A    -11.229300     6A    -11.225898
       7A    -11.225090     8A    -11.221569     9A    -11.217449
      10A    -11.214904    11A    -11.210114    12A     -1.364702
      13A     -1.109368    14A     -1.080951    15A     -1.041680
      16A     -0.996761    17A     -0.931487    18A     -0.918929
      19A     -0.877148    20A     -0.824431    21A     -0.728811
      22A     -0.714966    23A     -0.648658    24A     -0.623054
      25A     -0.615217    26A     -0.605697    27A     -0.588491
      28A     -0.579207    29A     -0.560374    30A     -0.556908
      31A     -0.550047    32A     -0.532711    33A     -0.530036
      34A     -0.520867    35A     -0.509007    36A     -0.503868
      37A     -0.495549    38A     -0.492242    39A     -0.478471
      40A     -0.458162    41A     -0.367553    42A     -0.284291

  @DF-RHF Final Energy:  -462.97535863343899

   => Energetics <=

    Nuclear Repulsion Energy =            627.9747316267732913
    One-Electron Energy =               -1873.9472504873467642
    Two-Electron Energy =                 782.9971602271344864
    Total Energy =                       -462.9753586334389865
  Basis Set: (AUG-CC-PVTZ AUX)
    Blend: AUG-CC-PVTZ-RI
    Molecular point group: c1

    Geometry (in Angstrom), charge = 0, multiplicity = 1:

       Center              X                  Y                   Z               Mass
    ------------   -----------------  -----------------  -----------------  -----------------
         O            0.085491196112     1.030951956715     0.509084461085    15.994914619570
         C           -0.728721803888    -1.030081043285     0.128261461085    12.000000000000
         C            0.701478196112    -1.084927043285     0.063602461085    12.000000000000
         C           -1.224474103888     0.161730856715     0.380059261085    12.000000000000
         C            1.153173196112     0.186072956715     0.304593461085    12.000000000000
         C           -2.343173803888     1.010556956715     0.521096461085    12.000000000000
         C            2.498014196112     0.820777956715     0.342212461085    12.000000000000
         C           -1.669904803888    -2.173254043285    -0.087303538915    12.000000000000
         C            1.525612196112    -2.312781043285    -0.174957538915    12.000000000000
         C           -2.835540803888     1.565611956715    -0.823389538915    12.000000000000
         C            2.826194196112     1.583138956715    -0.949736538915    12.000000000000
         H            3.246708196112     0.039026956715     0.520679461085     1.007825032230
         H            2.543686196112     1.504945956715     1.198713461085     1.007825032230
         H           -2.202831803888     1.831185956715     1.235723461085     1.007825032230
         H           -3.099898803888     0.340379956715     0.950394461085     1.007825032230
         H           -1.409872803888    -3.030036043285     0.545394461085     1.007825032230
         H           -2.698896803888    -1.881557043285     0.146999461085     1.007825032230
         H           -1.651913803888    -2.517600043285    -1.129794538915     1.007825032230
         H            2.527098196112    -2.054756043285    -0.537499538915     1.007825032230
         H            1.643815196112    -2.907926043285     0.739823461085     1.007825032230
         H            1.056095196112    -2.955572043285    -0.927377538915     1.007825032230
         H            2.825968196112     0.901908956715    -1.805049538915     1.007825032230
         H            3.810212196112     2.057421956715    -0.884210538915     1.007825032230
         H            2.076955196112     2.360021956715    -1.130076538915     1.007825032230
         H           -2.086304803888     2.238586956715    -1.252435538915     1.007825032230
         H           -3.769793803888     2.121027956715    -0.699486538915     1.007825032230
         H           -3.008782803888     0.750205956715    -1.532136538915     1.007825032230

  Basis Set: AUG-CC-PVTZ
    Blend: AUG-CC-PVTZ
  Basis Set: (AUG-CC-PVTZ AUX)
    Blend: AUG-CC-PVTZ-JKFIT
	 Reference Energy          =    -462.9753586334389865 [Eh]
	 Singles Energy            =      -0.0000000000000000 [Eh]
	 Same-Spin Energy          =      -0.4984289556708182 [Eh]
	 Opposite-Spin Energy      =      -1.6715091302902492 [Eh]
	 Correlation Energy        =      -2.1699380859610673 [Eh]
	 Total Energy              =    -465.1452967194000507 [Eh]

	 ================> DF-SCS-MP2 Energies <==================
	-----------------------------------------------------------
	 SCS Same-Spin Scale       =       0.3333333333333333 [-]
	 SCS Opposite-Spin Scale   =       1.2000000000000000 [-]
	 SCS Same-Spin Energy      =      -0.1661429852236060 [Eh]
	 SCS Opposite-Spin Energy  =      -2.0058109563482991 [Eh]
	 SCS Correlation Energy    =      -2.1719539415719051 [Eh]
	 SCS Total Energy          =    -465.1473125750109148 [Eh]
	-----------------------------------------------------------

  Dipole Moment: [D]
     X:    -0.4193      Y:    -0.7704      Z:    -0.2694     Total:     0.9175

*** Psi4 exiting successfully. Buy a developer a beer!
