                               Psi4 1.3.2 release

  ==> Input File <==

--------------------------------------------------------------------------
#psi4
#
memory 32 gb

molecule  {
0 1
  O        0.0723890     1.0222580     0.5077940
  C       -0.7418240    -1.0387750     0.1269710
  C        0.6883760    -1.0936210     0.0623120
  C       -1.0826362     0.2471870     0.3780549
  C        1.1400710     0.1773790     0.3033030
  C       -2.3562760     1.0018630     0.5198060
  C        2.4849120     0.8120840     0.3409220
  C       -1.6830070    -2.1819480    -0.0885940
  C        1.5125100    -2.3214750    -0.1762480
  C       -2.8486430     1.5569180    -0.8246800
  C        2.8130920     1.5744450    -0.9510270
  H        3.2336060     0.0303330     0.5193890
  H        2.5305840     1.4962520     1.1974230
  H       -2.2342030     1.8276263     1.2318683
  H       -3.1130010     0.3316860     0.9491040
  H       -1.4229750    -3.0387300     0.5441040
  H       -2.7119990    -1.8902510     0.1457090
  H       -1.6650160    -2.5262940    -1.1310850
  H        2.5139960    -2.0634500    -0.5387900
  H        1.6307130    -2.9166200     0.7385330
  H        1.0429930    -2.9642660    -0.9286680
  H        2.8128660     0.8932150    -1.8063400
  H        3.7971100     2.0487280    -0.8855010
  H        2.0638530     2.3513280    -1.1313670
  H       -2.0994070     2.2298930    -1.2537260
  H       -3.7828960     2.1123340    -0.7007770
  H       -3.0218850     0.7415120    -1.5334270
units angstrom
no_reorient  #important for SAPT in psi4, default
symmetry c1  #important for SAPT in psi4, default
}

set PROPERTIES_ORIGIN ["COM"]
properties('MP2/aug-cc-pvtz', properties = ['dipole'])
--------------------------------------------------------------------------

    Molecular point group: c1
  Charge       = 0
  Multiplicity = 1
  Basis Set: AUG-CC-PVTZ
    Blend: AUG-CC-PVTZ
  Basis Set: (AUG-CC-PVTZ AUX)
    Blend: AUG-CC-PVTZ-JKFIT

    Orbital Energies [Eh]
    ---------------------

    Doubly Occupied:

       1A    -20.595454     2A    -11.270226     3A    -11.268503
       4A    -11.230343     5A    -11.229979     6A    -11.223637
       7A    -11.222780     8A    -11.215910     9A    -11.215094
      10A    -11.214918    11A    -11.214776    12A     -1.422208
      13A     -1.100333    14A     -1.078579    15A     -1.036282
      16A     -0.991060    17A     -0.933055    18A     -0.926150
      19A     -0.869760    20A     -0.816260    21A     -0.746577
      22A     -0.722244    23A     -0.656777    24A     -0.625371
      25A     -0.611667    26A     -0.609168    27A     -0.585756
      28A     -0.584398    29A     -0.567017    30A     -0.556044
      31A     -0.549818    32A     -0.533215    33A     -0.527213
      34A     -0.522097    35A     -0.520656    36A     -0.504915
      37A     -0.494684    38A     -0.493938    39A     -0.482315
      40A     -0.469502    41A     -0.362303    42A     -0.280993

  @DF-RHF Final Energy:  -463.01135075729059

   => Energetics <=

    Nuclear Repulsion Energy =            629.5082538737555069
    One-Electron Energy =               -1876.8752565206257259
    Two-Electron Energy =                 784.3556518895796899
    Total Energy =                       -463.0113507572906428
  Basis Set: (AUG-CC-PVTZ AUX)
    Blend: AUG-CC-PVTZ-RI
    Molecular point group: c1

    Geometry (in Angstrom), charge = 0, multiplicity = 1:

       Center              X                  Y                   Z               Mass
    ------------   -----------------  -----------------  -----------------  -----------------
         O            0.073389777159     1.023490907431     0.509157768739    15.994914619570
         C           -0.740823222841    -1.037542092569     0.128334768739    12.000000000000
         C            0.689376777159    -1.092388092569     0.063675768739    12.000000000000
         C           -1.081635422841     0.248419907431     0.379418668739    12.000000000000
         C            1.141071777159     0.178611907431     0.304666768739    12.000000000000
         C           -2.355275222841     1.003095907431     0.521169768739    12.000000000000
         C            2.485912777159     0.813316907431     0.342285768739    12.000000000000
         C           -1.682006222841    -2.180715092569    -0.087230231261    12.000000000000
         C            1.513510777159    -2.320242092569    -0.174884231261    12.000000000000
         C           -2.847642222841     1.558150907431    -0.823316231261    12.000000000000
         C            2.814092777159     1.575677907431    -0.949663231261    12.000000000000
         H            3.234606777159     0.031565907431     0.520752768739     1.007825032230
         H            2.531584777159     1.497484907431     1.198786768739     1.007825032230
         H           -2.233202222841     1.828859207431     1.233232068739     1.007825032230
         H           -3.112000222841     0.332918907431     0.950467768739     1.007825032230
         H           -1.421974222841    -3.037497092569     0.545467768739     1.007825032230
         H           -2.710998222841    -1.889018092569     0.147072768739     1.007825032230
         H           -1.664015222841    -2.525061092569    -1.129721231261     1.007825032230
         H            2.514996777159    -2.062217092569    -0.537426231261     1.007825032230
         H            1.631713777159    -2.915387092569     0.739896768739     1.007825032230
         H            1.043993777159    -2.963033092569    -0.927304231261     1.007825032230
         H            2.813866777159     0.894447907431    -1.804976231261     1.007825032230
         H            3.798110777159     2.049960907431    -0.884137231261     1.007825032230
         H            2.064853777159     2.352560907431    -1.130003231261     1.007825032230
         H           -2.098406222841     2.231125907431    -1.252362231261     1.007825032230
         H           -3.781895222841     2.113566907431    -0.699413231261     1.007825032230
         H           -3.020884222841     0.742744907431    -1.532063231261     1.007825032230

  Basis Set: AUG-CC-PVTZ
    Blend: AUG-CC-PVTZ
  Basis Set: (AUG-CC-PVTZ AUX)
    Blend: AUG-CC-PVTZ-JKFIT
	 Reference Energy          =    -463.0113507572905860 [Eh]
	 Singles Energy            =      -0.0000000000000000 [Eh]
	 Same-Spin Energy          =      -0.4968800052035681 [Eh]
	 Opposite-Spin Energy      =      -1.6671696557782061 [Eh]
	 Correlation Energy        =      -2.1640496609817741 [Eh]
	 Total Energy              =    -465.1754004182723747 [Eh]

	 ================> DF-SCS-MP2 Energies <==================
	-----------------------------------------------------------
	 SCS Same-Spin Scale       =       0.3333333333333333 [-]
	 SCS Opposite-Spin Scale   =       1.2000000000000000 [-]
	 SCS Same-Spin Energy      =      -0.1656266684011894 [Eh]
	 SCS Opposite-Spin Energy  =      -2.0006035869338472 [Eh]
	 SCS Correlation Energy    =      -2.1662302553350368 [Eh]
	 SCS Total Energy          =    -465.1775810126256374 [Eh]
	-----------------------------------------------------------

  Dipole Moment: [D]
     X:    -0.0633      Y:    -0.6814      Z:    -0.2151     Total:     0.7173

*** Psi4 exiting successfully. Buy a developer a beer!
