                               Psi4 1.4a3.dev225

  ==> Input File <==

--------------------------------------------------------------------------
#psi4
#
memory 32 gb

molecule  {
0 1
  O        0.0000040    -0.9323440    -0.5200900
  C       -0.7186120     1.1388030    -0.0293360
  C        0.7186000     1.1388090    -0.0293300
  C       -1.1092540    -0.1401520    -0.3350070
  C        1.1092550    -0.1401430    -0.3349960
  C       -2.3757342    -0.8094692    -0.4615434
  C        2.4197760    -0.8327180    -0.4659420
  C       -1.5881550     2.3237520     0.2504950
  C        1.5881310     2.3237650     0.2505070
  C       -2.6404590    -1.8837440     0.6266770
  C        2.6404800    -1.8837320     0.6266650
  H        3.2127060    -0.0780420    -0.4310990
  H        2.4812700    -1.3082390    -1.4528680
  H       -2.4812630    -1.3082740    -1.4528630
  H       -3.2127060    -0.0780720    -0.4311050
  H       -1.4004860     3.1330380    -0.4637010
  H       -2.6480190     2.0627510     0.1871390
  H       -1.4034730     2.7248980     1.2531230
  H        2.6479980     2.0627640     0.1871950
  H        1.4004870     3.1330370    -0.4637120
  H        1.4034130     2.7249310     1.2531200
  H        2.6185650    -1.4170920     1.6153140
  H        3.6057420    -2.3837880     0.5012060
  H        1.8526560    -2.6398250     0.5898280
  H       -1.8526300    -2.6398320     0.5898440
  H       -3.6057190    -2.3838080     0.5012310
  H       -2.6185400    -1.4170920     1.6153210
units angstrom
no_reorient  #important for SAPT in psi4, default
symmetry c1  #important for SAPT in psi4, default
}

set PROPERTIES_ORIGIN ["COM"]
properties('MP2/aug-cc-pvtz', properties = ['dipole'])
--------------------------------------------------------------------------

    Molecular point group: c1
  Charge       = 0
  Multiplicity = 1
  Basis Set: AUG-CC-PVTZ
    Blend: AUG-CC-PVTZ
  Basis Set: (AUG-CC-PVTZ AUX)
    Blend: AUG-CC-PVTZ-JKFIT

    Orbital Energies [Eh]
    ---------------------

    Doubly Occupied:

       1A    -20.597456     2A    -11.271731     3A    -11.268857
       4A    -11.230335     5A    -11.229950     6A    -11.222785
       7A    -11.222729     8A    -11.218194     9A    -11.217115
      10A    -11.214360    11A    -11.213732    12A     -1.431527
      13A     -1.098733    14A     -1.082790    15A     -1.036693
      16A     -0.990485    17A     -0.933413    18A     -0.927752
      19A     -0.872710    20A     -0.814891    21A     -0.752917
      22A     -0.719606    23A     -0.662261    24A     -0.629495
      25A     -0.613125    26A     -0.607966    27A     -0.585958
      28A     -0.581329    29A     -0.569341    30A     -0.556257
      31A     -0.552143    32A     -0.534833    33A     -0.531833
      34A     -0.525005    35A     -0.516843    36A     -0.501185
      37A     -0.497105    38A     -0.489591    39A     -0.482198
      40A     -0.468028    41A     -0.360767    42A     -0.279618

  @DF-RHF Final Energy:  -463.01072976198020

   => Energetics <=

    Nuclear Repulsion Energy =            630.8098664955325603
    One-Electron Energy =               -1879.4139074685431297
    Two-Electron Energy =                 785.5933112110303682
    Total Energy =                       -463.0107297619802011
  Basis Set: (AUG-CC-PVTZ AUX)
    Blend: AUG-CC-PVTZ-RI
    Molecular point group: c1

    Geometry (in Angstrom), charge = 0, multiplicity = 1:

       Center              X                  Y                   Z               Mass
    ------------   -----------------  -----------------  -----------------  -----------------
         O           -0.003469561580    -0.932988937606    -0.496987251973    15.994914619570
         C           -0.722085561580     1.138158062394    -0.006233251973    12.000000000000
         C            0.715126438420     1.138164062394    -0.006227251973    12.000000000000
         C           -1.112727561580    -0.140796937606    -0.311904251973    12.000000000000
         C            1.105781438420    -0.140787937606    -0.311893251973    12.000000000000
         C           -2.379207761580    -0.810114137606    -0.438440651973    12.000000000000
         C            2.416302438420    -0.833362937606    -0.442839251973    12.000000000000
         C           -1.591628561580     2.323107062394     0.273597748027    12.000000000000
         C            1.584657438420     2.323120062394     0.273609748027    12.000000000000
         C           -2.643932561580    -1.884388937606     0.649779748027    12.000000000000
         C            2.637006438420    -1.884376937606     0.649767748027    12.000000000000
         H            3.209232438420    -0.078686937606    -0.407996251973     1.007825032230
         H            2.477796438420    -1.308883937606    -1.429765251973     1.007825032230
         H           -2.484736561580    -1.308918937606    -1.429760251973     1.007825032230
         H           -3.216179561580    -0.078716937606    -0.408002251973     1.007825032230
         H           -1.403959561580     3.132393062394    -0.440598251973     1.007825032230
         H           -2.651492561580     2.062106062394     0.210241748027     1.007825032230
         H           -1.406946561580     2.724253062394     1.276225748027     1.007825032230
         H            2.644524438420     2.062119062394     0.210297748027     1.007825032230
         H            1.397013438420     3.132392062394    -0.440609251973     1.007825032230
         H            1.399939438420     2.724286062394     1.276222748027     1.007825032230
         H            2.615091438420    -1.417736937606     1.638416748027     1.007825032230
         H            3.602268438420    -2.384432937606     0.524308748027     1.007825032230
         H            1.849182438420    -2.640469937606     0.612930748027     1.007825032230
         H           -1.856103561580    -2.640476937606     0.612946748027     1.007825032230
         H           -3.609192561580    -2.384452937606     0.524333748027     1.007825032230
         H           -2.622013561580    -1.417736937606     1.638423748027     1.007825032230

  Basis Set: AUG-CC-PVTZ
    Blend: AUG-CC-PVTZ
  Basis Set: (AUG-CC-PVTZ AUX)
    Blend: AUG-CC-PVTZ-JKFIT
	 Reference Energy          =    -463.0107297619802011 [Eh]
	 Singles Energy            =      -0.0000000000000000 [Eh]
	 Same-Spin Energy          =      -0.4974139535698584 [Eh]
	 Opposite-Spin Energy      =      -1.6672526709788302 [Eh]
	 Correlation Energy        =      -2.1646666245486887 [Eh]
	 Total Energy              =    -465.1753963865289165 [Eh]

	 ================> DF-SCS-MP2 Energies <==================
	-----------------------------------------------------------
	 SCS Same-Spin Scale       =       0.3333333333333333 [-]
	 SCS Opposite-Spin Scale   =       1.2000000000000000 [-]
	 SCS Same-Spin Energy      =      -0.1658046511899528 [Eh]
	 SCS Opposite-Spin Energy  =      -2.0007032051745961 [Eh]
	 SCS Correlation Energy    =      -2.1665078563645488 [Eh]
	 SCS Total Energy          =    -465.1772376183447477 [Eh]
	-----------------------------------------------------------

  Dipole Moment: [D]
     X:     0.0255      Y:     0.6651      Z:     0.2295     Total:     0.7041

*** Psi4 exiting successfully. Buy a developer a beer!
