                               Psi4 1.3.2 release

  ==> Input File <==

--------------------------------------------------------------------------
#psi4
#
memory 32 gb

molecule  {
0 1
  O        0.0723890     1.0222580     0.5077940
  C       -0.7534335    -1.0414815     0.1261062
  C        0.6883760    -1.0936210     0.0623120
  C       -1.0714850     0.2632460     0.3951280
  C        1.1400710     0.1773790     0.3033030
  C       -2.3627561     0.9908974     0.5173162
  C        2.4849120     0.8120840     0.3409220
  C       -1.6830070    -2.1819480    -0.0885940
  C        1.5125100    -2.3214750    -0.1762480
  C       -2.8486430     1.5569180    -0.8246800
  C        2.8130920     1.5744450    -0.9510270
  H        3.2336060     0.0303330     0.5193890
  H        2.5305840     1.4962520     1.1974230
  H       -2.2159340     1.8224920     1.2344330
  H       -3.1130010     0.3316860     0.9491040
  H       -1.4229750    -3.0387300     0.5441040
  H       -2.7119990    -1.8902510     0.1457090
  H       -1.6650160    -2.5262940    -1.1310850
  H        2.5139960    -2.0634500    -0.5387900
  H        1.6307130    -2.9166200     0.7385330
  H        1.0429930    -2.9642660    -0.9286680
  H        2.8128660     0.8932150    -1.8063400
  H        3.7971100     2.0487280    -0.8855010
  H        2.0638530     2.3513280    -1.1313670
  H       -2.0994070     2.2298930    -1.2537260
  H       -3.7828960     2.1123340    -0.7007770
  H       -3.0218850     0.7415120    -1.5334270
units angstrom
no_reorient  #important for SAPT in psi4, default
symmetry c1  #important for SAPT in psi4, default
}

set PROPERTIES_ORIGIN ["COM"]
properties('MP2/aug-cc-pvtz', properties = ['dipole'])
--------------------------------------------------------------------------

    Molecular point group: c1
  Charge       = 0
  Multiplicity = 1
  Basis Set: AUG-CC-PVTZ
    Blend: AUG-CC-PVTZ
  Basis Set: (AUG-CC-PVTZ AUX)
    Blend: AUG-CC-PVTZ-JKFIT

    Orbital Energies [Eh]
    ---------------------

    Doubly Occupied:

       1A    -20.598791     2A    -11.270081     3A    -11.269574
       4A    -11.230082     5A    -11.229899     6A    -11.222992
       7A    -11.222714     8A    -11.216853     9A    -11.215549
      10A    -11.215434    11A    -11.214701    12A     -1.429531
      13A     -1.097982    14A     -1.079031    15A     -1.036084
      16A     -0.991044    17A     -0.932177    18A     -0.927781
      19A     -0.869930    20A     -0.815536    21A     -0.750048
      22A     -0.719873    23A     -0.658165    24A     -0.627223
      25A     -0.611677    26A     -0.609193    27A     -0.587445
      28A     -0.583524    29A     -0.568024    30A     -0.556279
      31A     -0.550401    32A     -0.533140    33A     -0.529417
      34A     -0.524240    35A     -0.521437    36A     -0.505998
      37A     -0.495091    38A     -0.492099    39A     -0.484341
      40A     -0.464540    41A     -0.359203    42A     -0.279671

  @DF-RHF Final Energy:  -463.01185764018288

   => Energetics <=

    Nuclear Repulsion Energy =            629.4574695024700759
    One-Electron Energy =               -1876.7450635555576355
    Two-Electron Energy =                 784.2757364129047346
    Total Energy =                       -463.0118576401828250
  Basis Set: (AUG-CC-PVTZ AUX)
    Blend: AUG-CC-PVTZ-RI
    Molecular point group: c1

    Geometry (in Angstrom), charge = 0, multiplicity = 1:

       Center              X                  Y                   Z               Mass
    ------------   -----------------  -----------------  -----------------  -----------------
         O            0.073816077418     1.023336632476     0.508058592810    15.994914619570
         C           -0.752006422582    -1.040402867524     0.126370792810    12.000000000000
         C            0.689803077418    -1.092542367524     0.062576592810    12.000000000000
         C           -1.070057922582     0.264324632476     0.395392592810    12.000000000000
         C            1.141498077418     0.178457632476     0.303567592810    12.000000000000
         C           -2.361329022582     0.991976032476     0.517580792810    12.000000000000
         C            2.486339077418     0.813162632476     0.341186592810    12.000000000000
         C           -1.681579922582    -2.180869367524    -0.088329407190    12.000000000000
         C            1.513937077418    -2.320396367524    -0.175983407190    12.000000000000
         C           -2.847215922582     1.557996632476    -0.824415407190    12.000000000000
         C            2.814519077418     1.575523632476    -0.950762407190    12.000000000000
         H            3.235033077418     0.031411632476     0.519653592810     1.007825032230
         H            2.532011077418     1.497330632476     1.197687592810     1.007825032230
         H           -2.214506922582     1.823570632476     1.234697592810     1.007825032230
         H           -3.111573922582     0.332764632476     0.949368592810     1.007825032230
         H           -1.421547922582    -3.037651367524     0.544368592810     1.007825032230
         H           -2.710571922582    -1.889172367524     0.145973592810     1.007825032230
         H           -1.663588922582    -2.525215367524    -1.130820407190     1.007825032230
         H            2.515423077418    -2.062371367524    -0.538525407190     1.007825032230
         H            1.632140077418    -2.915541367524     0.738797592810     1.007825032230
         H            1.044420077418    -2.963187367524    -0.928403407190     1.007825032230
         H            2.814293077418     0.894293632476    -1.806075407190     1.007825032230
         H            3.798537077418     2.049806632476    -0.885236407190     1.007825032230
         H            2.065280077418     2.352406632476    -1.131102407190     1.007825032230
         H           -2.097979922582     2.230971632476    -1.253461407190     1.007825032230
         H           -3.781468922582     2.113412632476    -0.700512407190     1.007825032230
         H           -3.020457922582     0.742590632476    -1.533162407190     1.007825032230

  Basis Set: AUG-CC-PVTZ
    Blend: AUG-CC-PVTZ
  Basis Set: (AUG-CC-PVTZ AUX)
    Blend: AUG-CC-PVTZ-JKFIT
	 Reference Energy          =    -463.0118576401828818 [Eh]
	 Singles Energy            =      -0.0000000000000000 [Eh]
	 Same-Spin Energy          =      -0.4969877555279860 [Eh]
	 Opposite-Spin Energy      =      -1.6670361463514323 [Eh]
	 Correlation Energy        =      -2.1640239018794185 [Eh]
	 Total Energy              =    -465.1758815420623137 [Eh]

	 ================> DF-SCS-MP2 Energies <==================
	-----------------------------------------------------------
	 SCS Same-Spin Scale       =       0.3333333333333333 [-]
	 SCS Opposite-Spin Scale   =       1.2000000000000000 [-]
	 SCS Same-Spin Energy      =      -0.1656625851759953 [Eh]
	 SCS Opposite-Spin Energy  =      -2.0004433756217188 [Eh]
	 SCS Correlation Energy    =      -2.1661059607977142 [Eh]
	 SCS Total Energy          =    -465.1779636009806040 [Eh]
	-----------------------------------------------------------

  Dipole Moment: [D]
     X:    -0.0353      Y:    -0.6641      Z:    -0.2188     Total:     0.7001

*** Psi4 exiting successfully. Buy a developer a beer!
