                               Psi4 1.4a3.dev225

  ==> Input File <==

--------------------------------------------------------------------------
#psi4
#
memory 32 gb

molecule  {
0 1
  O        0.0000040    -0.9323440    -0.5200900
  C       -0.7186120     1.1388030    -0.0293360
  C        0.7186000     1.1388090    -0.0293300
  C       -1.1092540    -0.1401520    -0.3350070
  C        1.1092550    -0.1401430    -0.3349960
  C       -2.4638038    -0.8560128    -0.4703426
  C        2.4197760    -0.8327180    -0.4659420
  C       -1.5881550     2.3237520     0.2504950
  C        1.5881310     2.3237650     0.2505070
  C       -2.6404590    -1.8837440     0.6266770
  C        2.6404800    -1.8837320     0.6266650
  H        3.2127060    -0.0780420    -0.4310990
  H        2.4812700    -1.3082390    -1.4528680
  H       -2.4812630    -1.3082740    -1.4528630
  H       -3.2127060    -0.0780720    -0.4311050
  H       -1.4004860     3.1330380    -0.4637010
  H       -2.6480190     2.0627510     0.1871390
  H       -1.4034730     2.7248980     1.2531230
  H        2.6479980     2.0627640     0.1871950
  H        1.4004870     3.1330370    -0.4637120
  H        1.4034130     2.7249310     1.2531200
  H        2.6185650    -1.4170920     1.6153140
  H        3.6057420    -2.3837880     0.5012060
  H        1.8526560    -2.6398250     0.5898280
  H       -1.8526300    -2.6398320     0.5898440
  H       -3.6057190    -2.3838080     0.5012310
  H       -2.6185400    -1.4170920     1.6153210
units angstrom
no_reorient  #important for SAPT in psi4, default
symmetry c1  #important for SAPT in psi4, default
}

set PROPERTIES_ORIGIN ["COM"]
properties('MP2/aug-cc-pvtz', properties = ['dipole'])
--------------------------------------------------------------------------

    Molecular point group: c1
  Charge       = 0
  Multiplicity = 1
  Basis Set: AUG-CC-PVTZ
    Blend: AUG-CC-PVTZ
  Basis Set: (AUG-CC-PVTZ AUX)
    Blend: AUG-CC-PVTZ-JKFIT

    Orbital Energies [Eh]
    ---------------------

    Doubly Occupied:

       1A    -20.597223     2A    -11.272460     3A    -11.270245
       4A    -11.230627     5A    -11.229658     6A    -11.222228
       7A    -11.222173     8A    -11.216866     9A    -11.215788
      10A    -11.213237    11A    -11.212940    12A     -1.429820
      13A     -1.097011    14A     -1.076743    15A     -1.037460
      16A     -0.991305    17A     -0.932346    18A     -0.925499
      19A     -0.867801    20A     -0.817658    21A     -0.750135
      22A     -0.718756    23A     -0.657459    24A     -0.627504
      25A     -0.614943    26A     -0.609294    27A     -0.586286
      28A     -0.581153    29A     -0.568280    30A     -0.555689
      31A     -0.551869    32A     -0.532015    33A     -0.530185
      34A     -0.524952    35A     -0.520545    36A     -0.508833
      37A     -0.494102    38A     -0.488706    39A     -0.485059
      40A     -0.463302    41A     -0.360025    42A     -0.280316

  @DF-RHF Final Energy:  -463.01212730792383

   => Energetics <=

    Nuclear Repulsion Energy =            629.1723164040117808
    One-Electron Energy =               -1876.1919006384946442
    Two-Electron Energy =                 784.0074569265590299
    Total Energy =                       -463.0121273079238335
  Basis Set: (AUG-CC-PVTZ AUX)
    Blend: AUG-CC-PVTZ-RI
    Molecular point group: c1

    Geometry (in Angstrom), charge = 0, multiplicity = 1:

       Center              X                  Y                   Z               Mass
    ------------   -----------------  -----------------  -----------------  -----------------
         O            0.003477811547    -0.929317344276    -0.496293126808    15.994914619570
         C           -0.715138188453     1.141829655724    -0.005539126808    12.000000000000
         C            0.722073811547     1.141835655724    -0.005533126808    12.000000000000
         C           -1.105780188453    -0.137125344276    -0.311210126808    12.000000000000
         C            1.112728811547    -0.137116344276    -0.311199126808    12.000000000000
         C           -2.460329988453    -0.852986144276    -0.446545726808    12.000000000000
         C            2.423249811547    -0.829691344276    -0.442145126808    12.000000000000
         C           -1.584681188453     2.326778655724     0.274291873192    12.000000000000
         C            1.591604811547     2.326791655724     0.274303873192    12.000000000000
         C           -2.636985188453    -1.880717344276     0.650473873192    12.000000000000
         C            2.643953811547    -1.880705344276     0.650461873192    12.000000000000
         H            3.216179811547    -0.075015344276    -0.407302126808     1.007825032230
         H            2.484743811547    -1.305212344276    -1.429071126808     1.007825032230
         H           -2.477789188453    -1.305247344276    -1.429066126808     1.007825032230
         H           -3.209232188453    -0.075045344276    -0.407308126808     1.007825032230
         H           -1.397012188453     3.136064655724    -0.439904126808     1.007825032230
         H           -2.644545188453     2.065777655724     0.210935873192     1.007825032230
         H           -1.399999188453     2.727924655724     1.276919873192     1.007825032230
         H            2.651471811547     2.065790655724     0.210991873192     1.007825032230
         H            1.403960811547     3.136063655724    -0.439915126808     1.007825032230
         H            1.406886811547     2.727957655724     1.276916873192     1.007825032230
         H            2.622038811547    -1.414065344276     1.639110873192     1.007825032230
         H            3.609215811547    -2.380761344276     0.525002873192     1.007825032230
         H            1.856129811547    -2.636798344276     0.613624873192     1.007825032230
         H           -1.849156188453    -2.636805344276     0.613640873192     1.007825032230
         H           -3.602245188453    -2.380781344276     0.525027873192     1.007825032230
         H           -2.615066188453    -1.414065344276     1.639117873192     1.007825032230

  Basis Set: AUG-CC-PVTZ
    Blend: AUG-CC-PVTZ
  Basis Set: (AUG-CC-PVTZ AUX)
    Blend: AUG-CC-PVTZ-JKFIT
	 Reference Energy          =    -463.0121273079238335 [Eh]
	 Singles Energy            =      -0.0000000000000000 [Eh]
	 Same-Spin Energy          =      -0.4966061013875230 [Eh]
	 Opposite-Spin Energy      =      -1.6665566966157102 [Eh]
	 Correlation Energy        =      -2.1631627980032331 [Eh]
	 Total Energy              =    -465.1752901059270471 [Eh]

	 ================> DF-SCS-MP2 Energies <==================
	-----------------------------------------------------------
	 SCS Same-Spin Scale       =       0.3333333333333333 [-]
	 SCS Opposite-Spin Scale   =       1.2000000000000000 [-]
	 SCS Same-Spin Energy      =      -0.1655353671291743 [Eh]
	 SCS Opposite-Spin Energy  =      -1.9998680359388521 [Eh]
	 SCS Correlation Energy    =      -2.1654034030680265 [Eh]
	 SCS Total Energy          =    -465.1775307109918458 [Eh]
	-----------------------------------------------------------

  Dipole Moment: [D]
     X:    -0.0257      Y:     0.6167      Z:     0.2249     Total:     0.6570

*** Psi4 exiting successfully. Buy a developer a beer!
