                               Psi4 1.3.2 release

  ==> Input File <==

--------------------------------------------------------------------------
#psi4
#
memory 32 gb

molecule  {
0 1
  O        0.0984699     0.9823886     0.5013355
  C       -0.7418240    -1.0387750     0.1269710
  C        0.6883760    -1.0936210     0.0623120
  C       -1.0714850     0.2632460     0.3951280
  C        1.1400710     0.1773790     0.3033030
  C       -2.3816334     0.9570970     0.5128970
  C        2.4849120     0.8120840     0.3409220
  C       -1.6830070    -2.1819480    -0.0885940
  C        1.5125100    -2.3214750    -0.1762480
  C       -2.8486430     1.5569180    -0.8246800
  C        2.8130920     1.5744450    -0.9510270
  H        3.2336060     0.0303330     0.5193890
  H        2.5305840     1.4962520     1.1974230
  H       -2.2159340     1.8224920     1.2344330
  H       -3.1130010     0.3316860     0.9491040
  H       -1.4229750    -3.0387300     0.5441040
  H       -2.7119990    -1.8902510     0.1457090
  H       -1.6650160    -2.5262940    -1.1310850
  H        2.5139960    -2.0634500    -0.5387900
  H        1.6307130    -2.9166200     0.7385330
  H        1.0429930    -2.9642660    -0.9286680
  H        2.8128660     0.8932150    -1.8063400
  H        3.7971100     2.0487280    -0.8855010
  H        2.0638530     2.3513280    -1.1313670
  H       -2.0994070     2.2298930    -1.2537260
  H       -3.7828960     2.1123340    -0.7007770
  H       -3.0218850     0.7415120    -1.5334270
units angstrom
no_reorient  #important for SAPT in psi4, default
symmetry c1  #important for SAPT in psi4, default
}

set PROPERTIES_ORIGIN ["COM"]
properties('MP2/aug-cc-pvtz', properties = ['dipole'])
--------------------------------------------------------------------------

    Molecular point group: c1
  Charge       = 0
  Multiplicity = 1
  Basis Set: AUG-CC-PVTZ
    Blend: AUG-CC-PVTZ
  Basis Set: (AUG-CC-PVTZ AUX)
    Blend: AUG-CC-PVTZ-JKFIT

    Orbital Energies [Eh]
    ---------------------

    Doubly Occupied:

       1A    -20.600233     2A    -11.268104     3A    -11.267331
       4A    -11.232309     5A    -11.230034     6A    -11.222657
       7A    -11.219947     8A    -11.216235     9A    -11.215293
      10A    -11.214543    11A    -11.210172    12A     -1.446283
      13A     -1.096888    14A     -1.080448    15A     -1.037008
      16A     -0.989030    17A     -0.932830    18A     -0.928997
      19A     -0.871394    20A     -0.819221    21A     -0.755704
      22A     -0.719646    23A     -0.663714    24A     -0.633203
      25A     -0.614429    26A     -0.607063    27A     -0.592295
      28A     -0.581428    29A     -0.567567    30A     -0.554612
      31A     -0.548854    32A     -0.533898    33A     -0.528693
      34A     -0.521914    35A     -0.520714    36A     -0.509816
      37A     -0.496987    38A     -0.491475    39A     -0.483500
      40A     -0.461923    41A     -0.357122    42A     -0.278638

  @DF-RHF Final Energy:  -463.00938103961903

   => Energetics <=

    Nuclear Repulsion Energy =            630.7225787693657821
    One-Electron Energy =               -1879.2196165837765420
    Two-Electron Energy =                 785.4876567747917306
    Total Energy =                       -463.0093810396190293
  Basis Set: (AUG-CC-PVTZ AUX)
    Blend: AUG-CC-PVTZ-RI
    Molecular point group: c1

    Geometry (in Angstrom), charge = 0, multiplicity = 1:

       Center              X                  Y                   Z               Mass
    ------------   -----------------  -----------------  -----------------  -----------------
         O            0.097727979791     0.990112208047     0.502559571154    15.994914619570
         C           -0.742565920209    -1.031051391953     0.128195071154    12.000000000000
         C            0.687634079791    -1.085897391953     0.063536071154    12.000000000000
         C           -1.072226920209     0.270969608047     0.396352071154    12.000000000000
         C            1.139329079791     0.185102608047     0.304527071154    12.000000000000
         C           -2.382375320209     0.964820608047     0.514121071154    12.000000000000
         C            2.484170079791     0.819807608047     0.342146071154    12.000000000000
         C           -1.683748920209    -2.174224391953    -0.087369928846    12.000000000000
         C            1.511768079791    -2.313751391953    -0.175023928846    12.000000000000
         C           -2.849384920209     1.564641608047    -0.823455928846    12.000000000000
         C            2.812350079791     1.582168608047    -0.949802928846    12.000000000000
         H            3.232864079791     0.038056608047     0.520613071154     1.007825032230
         H            2.529842079791     1.503975608047     1.198647071154     1.007825032230
         H           -2.216675920209     1.830215608047     1.235657071154     1.007825032230
         H           -3.113742920209     0.339409608047     0.950328071154     1.007825032230
         H           -1.423716920209    -3.031006391953     0.545328071154     1.007825032230
         H           -2.712740920209    -1.882527391953     0.146933071154     1.007825032230
         H           -1.665757920209    -2.518570391953    -1.129860928846     1.007825032230
         H            2.513254079791    -2.055726391953    -0.537565928846     1.007825032230
         H            1.629971079791    -2.908896391953     0.739757071154     1.007825032230
         H            1.042251079791    -2.956542391953    -0.927443928846     1.007825032230
         H            2.812124079791     0.900938608047    -1.805115928846     1.007825032230
         H            3.796368079791     2.056451608047    -0.884276928846     1.007825032230
         H            2.063111079791     2.359051608047    -1.130142928846     1.007825032230
         H           -2.100148920209     2.237616608047    -1.252501928846     1.007825032230
         H           -3.783637920209     2.120057608047    -0.699552928846     1.007825032230
         H           -3.022626920209     0.749235608047    -1.532202928846     1.007825032230

  Basis Set: AUG-CC-PVTZ
    Blend: AUG-CC-PVTZ
  Basis Set: (AUG-CC-PVTZ AUX)
    Blend: AUG-CC-PVTZ-JKFIT
	 Reference Energy          =    -463.0093810396190293 [Eh]
	 Singles Energy            =      -0.0000000000000000 [Eh]
	 Same-Spin Energy          =      -0.4970380157974234 [Eh]
	 Opposite-Spin Energy      =      -1.6658160567982905 [Eh]
	 Correlation Energy        =      -2.1628540725957137 [Eh]
	 Total Energy              =    -465.1722351122147643 [Eh]

	 ================> DF-SCS-MP2 Energies <==================
	-----------------------------------------------------------
	 SCS Same-Spin Scale       =       0.3333333333333333 [-]
	 SCS Opposite-Spin Scale   =       1.2000000000000000 [-]
	 SCS Same-Spin Energy      =      -0.1656793385991411 [Eh]
	 SCS Opposite-Spin Energy  =      -1.9989792681579486 [Eh]
	 SCS Correlation Energy    =      -2.1646586067570897 [Eh]
	 SCS Total Energy          =    -465.1740396463761158 [Eh]
	-----------------------------------------------------------

  Dipole Moment: [D]
     X:    -0.1228      Y:    -0.5077      Z:    -0.1932     Total:     0.5569

*** Psi4 exiting successfully. Buy a developer a beer!
