                               Psi4 1.3.2 release

  ==> Input File <==

--------------------------------------------------------------------------
#psi4
#
memory 32 gb

molecule  {
0 1
  O        0.0723890     1.0222580     0.5077940
  C       -0.7418240    -1.0387750     0.1269710
  C        0.6883760    -1.0936210     0.0623120
  C       -1.0714850     0.2632460     0.3951280
  C        1.1400710     0.1773790     0.3033030
  C       -2.3562760     1.0018630     0.5198060
  C        2.4849120     0.8120840     0.3409220
  C       -1.5572119    -2.0291557    -0.0597824
  C        1.5125100    -2.3214750    -0.1762480
  C       -2.8486430     1.5569180    -0.8246800
  C        2.8130920     1.5744450    -0.9510270
  H        3.2336060     0.0303330     0.5193890
  H        2.5305840     1.4962520     1.1974230
  H       -2.2159340     1.8224920     1.2344330
  H       -3.1130010     0.3316860     0.9491040
  H       -1.4229750    -3.0387300     0.5441040
  H       -2.7119990    -1.8902510     0.1457090
  H       -1.6650160    -2.5262940    -1.1310850
  H        2.5139960    -2.0634500    -0.5387900
  H        1.6307130    -2.9166200     0.7385330
  H        1.0429930    -2.9642660    -0.9286680
  H        2.8128660     0.8932150    -1.8063400
  H        3.7971100     2.0487280    -0.8855010
  H        2.0638530     2.3513280    -1.1313670
  H       -2.0994070     2.2298930    -1.2537260
  H       -3.7828960     2.1123340    -0.7007770
  H       -3.0218850     0.7415120    -1.5334270
units angstrom
no_reorient  #important for SAPT in psi4, default
symmetry c1  #important for SAPT in psi4, default
}

set PROPERTIES_ORIGIN ["COM"]
properties('MP2/aug-cc-pvtz', properties = ['dipole'])
--------------------------------------------------------------------------

    Molecular point group: c1
  Charge       = 0
  Multiplicity = 1
  Basis Set: AUG-CC-PVTZ
    Blend: AUG-CC-PVTZ
  Basis Set: (AUG-CC-PVTZ AUX)
    Blend: AUG-CC-PVTZ-JKFIT

    Orbital Energies [Eh]
    ---------------------

    Doubly Occupied:

       1A    -20.600825     2A    -11.273629     3A    -11.271621
       4A    -11.232861     5A    -11.231476     6A    -11.231205
       7A    -11.223169     8A    -11.217184     9A    -11.216535
      10A    -11.215712    11A    -11.203758    12A     -1.432246
      13A     -1.123326    14A     -1.082042    15A     -1.038673
      16A     -1.002830    17A     -0.930974    18A     -0.926494
      19A     -0.871341    20A     -0.815583    21A     -0.751259
      22A     -0.730019    23A     -0.666633    24A     -0.633425
      25A     -0.620130    26A     -0.610722    27A     -0.591830
      28A     -0.584965    29A     -0.567291    30A     -0.564297
      31A     -0.538742    32A     -0.538482    33A     -0.527908
      34A     -0.521417    35A     -0.514648    36A     -0.506416
      37A     -0.495349    38A     -0.492611    39A     -0.485225
      40A     -0.448908    41A     -0.352205    42A     -0.278293

  @DF-RHF Final Energy:  -462.95849408676321

   => Energetics <=

    Nuclear Repulsion Energy =            633.7265964811682579
    One-Electron Energy =               -1885.0456533016952108
    Two-Electron Energy =                 788.3605627337636861
    Total Energy =                       -462.9584940867631531
  Basis Set: (AUG-CC-PVTZ AUX)
    Blend: AUG-CC-PVTZ-RI
    Molecular point group: c1

    Geometry (in Angstrom), charge = 0, multiplicity = 1:

       Center              X                  Y                   Z               Mass
    ------------   -----------------  -----------------  -----------------  -----------------
         O            0.062465728396     1.010205083120     0.505521161126    15.994914619570
         C           -0.751747271604    -1.050827916880     0.124698161126    12.000000000000
         C            0.678452728396    -1.105673916880     0.060039161126    12.000000000000
         C           -1.081408271604     0.251193083120     0.392855161126    12.000000000000
         C            1.130147728396     0.165326083120     0.301030161126    12.000000000000
         C           -2.366199271604     0.989810083120     0.517533161126    12.000000000000
         C            2.474988728396     0.800031083120     0.338649161126    12.000000000000
         C           -1.567135171604    -2.041208616880    -0.062055238874    12.000000000000
         C            1.502586728396    -2.333527916880    -0.178520838874    12.000000000000
         C           -2.858566271604     1.544865083120    -0.826952838874    12.000000000000
         C            2.803168728396     1.562392083120    -0.953299838874    12.000000000000
         H            3.223682728396     0.018280083120     0.517116161126     1.007825032230
         H            2.520660728396     1.484199083120     1.195150161126     1.007825032230
         H           -2.225857271604     1.810439083120     1.232160161126     1.007825032230
         H           -3.122924271604     0.319633083120     0.946831161126     1.007825032230
         H           -1.432898271604    -3.050782916880     0.541831161126     1.007825032230
         H           -2.721922271604    -1.902303916880     0.143436161126     1.007825032230
         H           -1.674939271604    -2.538346916880    -1.133357838874     1.007825032230
         H            2.504072728396    -2.075502916880    -0.541062838874     1.007825032230
         H            1.620789728396    -2.928672916880     0.736260161126     1.007825032230
         H            1.033069728396    -2.976318916880    -0.930940838874     1.007825032230
         H            2.802942728396     0.881162083120    -1.808612838874     1.007825032230
         H            3.787186728396     2.036675083120    -0.887773838874     1.007825032230
         H            2.053929728396     2.339275083120    -1.133639838874     1.007825032230
         H           -2.109330271604     2.217840083120    -1.255998838874     1.007825032230
         H           -3.792819271604     2.100281083120    -0.703049838874     1.007825032230
         H           -3.031808271604     0.729459083120    -1.535699838874     1.007825032230

  Basis Set: AUG-CC-PVTZ
    Blend: AUG-CC-PVTZ
  Basis Set: (AUG-CC-PVTZ AUX)
    Blend: AUG-CC-PVTZ-JKFIT
	 Reference Energy          =    -462.9584940867632099 [Eh]
	 Singles Energy            =      -0.0000000000000000 [Eh]
	 Same-Spin Energy          =      -0.5008187571778924 [Eh]
	 Opposite-Spin Energy      =      -1.6717712552317066 [Eh]
	 Correlation Energy        =      -2.1725900124095991 [Eh]
	 Total Energy              =    -465.1310840991728242 [Eh]

	 ================> DF-SCS-MP2 Energies <==================
	-----------------------------------------------------------
	 SCS Same-Spin Scale       =       0.3333333333333333 [-]
	 SCS Opposite-Spin Scale   =       1.2000000000000000 [-]
	 SCS Same-Spin Energy      =      -0.1669395857259641 [Eh]
	 SCS Opposite-Spin Energy  =      -2.0061255062780479 [Eh]
	 SCS Correlation Energy    =      -2.1730650920040118 [Eh]
	 SCS Total Energy          =    -465.1315591787672474 [Eh]
	-----------------------------------------------------------

  Dipole Moment: [D]
     X:     0.0697      Y:    -0.4949      Z:    -0.1934     Total:     0.5360

*** Psi4 exiting successfully. Buy a developer a beer!
