                               Psi4 1.3.2 release

  ==> Input File <==

--------------------------------------------------------------------------
#psi4
#
memory 32 gb

molecule  {
0 1
  O        0.0723890     1.0222580     0.5077940
  C       -0.7412043    -1.0264569     0.1290198
  C        0.6883760    -1.0936210     0.0623120
  C       -1.0714850     0.2632460     0.3951280
  C        1.1400710     0.1773790     0.3033030
  C       -2.3562760     1.0018630     0.5198060
  C        2.4849120     0.8120840     0.3409220
  C       -1.6830070    -2.1819480    -0.0885940
  C        1.5233825    -2.3142618    -0.1754556
  C       -2.8486430     1.5569180    -0.8246800
  C        2.8130920     1.5744450    -0.9510270
  H        3.2336060     0.0303330     0.5193890
  H        2.5305840     1.4962520     1.1974230
  H       -2.2159340     1.8224920     1.2344330
  H       -3.1130010     0.3316860     0.9491040
  H       -1.4229750    -3.0387300     0.5441040
  H       -2.7119990    -1.8902510     0.1457090
  H       -1.6650160    -2.5262940    -1.1310850
  H        2.5139960    -2.0634500    -0.5387900
  H        1.6307130    -2.9166200     0.7385330
  H        1.0429930    -2.9642660    -0.9286680
  H        2.8128660     0.8932150    -1.8063400
  H        3.7971100     2.0487280    -0.8855010
  H        2.0638530     2.3513280    -1.1313670
  H       -2.0994070     2.2298930    -1.2537260
  H       -3.7828960     2.1123340    -0.7007770
  H       -3.0218850     0.7415120    -1.5334270
units angstrom
no_reorient  #important for SAPT in psi4, default
symmetry c1  #important for SAPT in psi4, default
}

set PROPERTIES_ORIGIN ["COM"]
properties('MP2/aug-cc-pvtz', properties = ['dipole'])
--------------------------------------------------------------------------

    Molecular point group: c1
  Charge       = 0
  Multiplicity = 1
  Basis Set: AUG-CC-PVTZ
    Blend: AUG-CC-PVTZ
  Basis Set: (AUG-CC-PVTZ AUX)
    Blend: AUG-CC-PVTZ-JKFIT

    Orbital Energies [Eh]
    ---------------------

    Doubly Occupied:

       1A    -20.597688     2A    -11.269385     3A    -11.267995
       4A    -11.230130     5A    -11.229987     6A    -11.223527
       7A    -11.223185     8A    -11.215846     9A    -11.215495
      10A    -11.214759    11A    -11.214480    12A     -1.429653
      13A     -1.098748    14A     -1.079214    15A     -1.036178
      16A     -0.989629    17A     -0.932507    18A     -0.927624
      19A     -0.870236    20A     -0.816307    21A     -0.749831
      22A     -0.721544    23A     -0.658070    24A     -0.627217
      25A     -0.611012    26A     -0.609631    27A     -0.586828
      28A     -0.583808    29A     -0.566381    30A     -0.554906
      31A     -0.550405    32A     -0.533850    33A     -0.526949
      34A     -0.522380    35A     -0.521324    36A     -0.505335
      37A     -0.495464    38A     -0.492747    39A     -0.483859
      40A     -0.468069    41A     -0.361501    42A     -0.280391

  @DF-RHF Final Energy:  -463.01244276866379

   => Energetics <=

    Nuclear Repulsion Energy =            629.7382634791998726
    One-Electron Energy =               -1877.3132617630335517
    Two-Electron Energy =                 784.5625555151700610
    Total Energy =                       -463.0124427686637318
  Basis Set: (AUG-CC-PVTZ AUX)
    Blend: AUG-CC-PVTZ-RI
    Molecular point group: c1

    Geometry (in Angstrom), charge = 0, multiplicity = 1:

       Center              X                  Y                   Z               Mass
    ------------   -----------------  -----------------  -----------------  -----------------
         O            0.071482516208     1.020717381237     0.507569836935    15.994914619570
         C           -0.742110783792    -1.027997518763     0.128795636935    12.000000000000
         C            0.687469516208    -1.095161618763     0.062087836935    12.000000000000
         C           -1.072391483792     0.261705381237     0.394903836935    12.000000000000
         C            1.139164516208     0.175838381237     0.303078836935    12.000000000000
         C           -2.357182483792     1.000322381237     0.519581836935    12.000000000000
         C            2.484005516208     0.810543381237     0.340697836935    12.000000000000
         C           -1.683913483792    -2.183488618763    -0.088818163065    12.000000000000
         C            1.522476016208    -2.315802418763    -0.175679763065    12.000000000000
         C           -2.849549483792     1.555377381237    -0.824904163065    12.000000000000
         C            2.812185516208     1.572904381237    -0.951251163065    12.000000000000
         H            3.232699516208     0.028792381237     0.519164836935     1.007825032230
         H            2.529677516208     1.494711381237     1.197198836935     1.007825032230
         H           -2.216840483792     1.820951381237     1.234208836935     1.007825032230
         H           -3.113907483792     0.330145381237     0.948879836935     1.007825032230
         H           -1.423881483792    -3.040270618763     0.543879836935     1.007825032230
         H           -2.712905483792    -1.891791618763     0.145484836935     1.007825032230
         H           -1.665922483792    -2.527834618763    -1.131309163065     1.007825032230
         H            2.513089516208    -2.064990618763    -0.539014163065     1.007825032230
         H            1.629806516208    -2.918160618763     0.738308836935     1.007825032230
         H            1.042086516208    -2.965806618763    -0.928892163065     1.007825032230
         H            2.811959516208     0.891674381237    -1.806564163065     1.007825032230
         H            3.796203516208     2.047187381237    -0.885725163065     1.007825032230
         H            2.062946516208     2.349787381237    -1.131591163065     1.007825032230
         H           -2.100313483792     2.228352381237    -1.253950163065     1.007825032230
         H           -3.783802483792     2.110793381237    -0.701001163065     1.007825032230
         H           -3.022791483792     0.739971381237    -1.533651163065     1.007825032230

  Basis Set: AUG-CC-PVTZ
    Blend: AUG-CC-PVTZ
  Basis Set: (AUG-CC-PVTZ AUX)
    Blend: AUG-CC-PVTZ-JKFIT
	 Reference Energy          =    -463.0124427686637887 [Eh]
	 Singles Energy            =      -0.0000000000000000 [Eh]
	 Same-Spin Energy          =      -0.4967878942588970 [Eh]
	 Opposite-Spin Energy      =      -1.6666828567266789 [Eh]
	 Correlation Energy        =      -2.1634707509855757 [Eh]
	 Total Energy              =    -465.1759135196493844 [Eh]

	 ================> DF-SCS-MP2 Energies <==================
	-----------------------------------------------------------
	 SCS Same-Spin Scale       =       0.3333333333333333 [-]
	 SCS Opposite-Spin Scale   =       1.2000000000000000 [-]
	 SCS Same-Spin Energy      =      -0.1655959647529656 [Eh]
	 SCS Opposite-Spin Energy  =      -2.0000194280720147 [Eh]
	 SCS Correlation Energy    =      -2.1656153928249804 [Eh]
	 SCS Total Energy          =    -465.1780581614887637 [Eh]
	-----------------------------------------------------------

  Dipole Moment: [D]
     X:    -0.0232      Y:    -0.6486      Z:    -0.2163     Total:     0.6841

*** Psi4 exiting successfully. Buy a developer a beer!
