                               Psi4 1.3.2 release

  ==> Input File <==

--------------------------------------------------------------------------
#psi4
#
memory 32 gb

molecule  {
0 1
  O        0.0723890     1.0222580     0.5077940
  C       -0.7418240    -1.0387750     0.1269710
  C        0.6883760    -1.0936210     0.0623120
  C       -1.0714850     0.2632460     0.3951280
  C        1.1400710     0.1773790     0.3033030
  C       -2.3562760     1.0018630     0.5198060
  C        2.6657225     0.8974185     0.3459798
  C       -1.6830070    -2.1819480    -0.0885940
  C        1.5125100    -2.3214750    -0.1762480
  C       -2.8486430     1.5569180    -0.8246800
  C        2.8130920     1.5744450    -0.9510270
  H        3.2336060     0.0303330     0.5193890
  H        2.5305840     1.4962520     1.1974230
  H       -2.2159340     1.8224920     1.2344330
  H       -3.1130010     0.3316860     0.9491040
  H       -1.4229750    -3.0387300     0.5441040
  H       -2.7119990    -1.8902510     0.1457090
  H       -1.6650160    -2.5262940    -1.1310850
  H        2.5139960    -2.0634500    -0.5387900
  H        1.6307130    -2.9166200     0.7385330
  H        1.0429930    -2.9642660    -0.9286680
  H        2.8128660     0.8932150    -1.8063400
  H        3.7971100     2.0487280    -0.8855010
  H        2.0638530     2.3513280    -1.1313670
  H       -2.0994070     2.2298930    -1.2537260
  H       -3.7828960     2.1123340    -0.7007770
  H       -3.0218850     0.7415120    -1.5334270
units angstrom
no_reorient  #important for SAPT in psi4, default
symmetry c1  #important for SAPT in psi4, default
}

set PROPERTIES_ORIGIN ["COM"]
properties('MP2/aug-cc-pvtz', properties = ['dipole'])
--------------------------------------------------------------------------

    Molecular point group: c1
  Charge       = 0
  Multiplicity = 1
  Basis Set: AUG-CC-PVTZ
    Blend: AUG-CC-PVTZ
  Basis Set: (AUG-CC-PVTZ AUX)
    Blend: AUG-CC-PVTZ-JKFIT

    Orbital Energies [Eh]
    ---------------------

    Doubly Occupied:

       1A    -20.597156     2A    -11.271845     3A    -11.266489
       4A    -11.236852     5A    -11.228567     6A    -11.221699
       7A    -11.221435     8A    -11.214761     9A    -11.214287
      10A    -11.213568    11A    -11.211761    12A     -1.426035
      13A     -1.095534    14A     -1.071298    15A     -1.041196
      16A     -0.990629    17A     -0.930049    18A     -0.923158
      19A     -0.862621    20A     -0.820557    21A     -0.744455
      22A     -0.719033    23A     -0.650360    24A     -0.628988
      25A     -0.623432    26A     -0.604071    27A     -0.587970
      28A     -0.579547    29A     -0.565948    30A     -0.555738
      31A     -0.550419    32A     -0.545288    33A     -0.529378
      34A     -0.523659    35A     -0.521649    36A     -0.510467
      37A     -0.505685    38A     -0.487774    39A     -0.477175
      40A     -0.433633    41A     -0.358529    42A     -0.278015

  @DF-RHF Final Energy:  -462.98230524972763

   => Energetics <=

    Nuclear Repulsion Energy =            626.4668339915029946
    One-Electron Energy =               -1870.8168542692876599
    Two-Electron Energy =                 781.3677150280569776
    Total Energy =                       -462.9823052497275739
  Basis Set: (AUG-CC-PVTZ AUX)
    Blend: AUG-CC-PVTZ-RI
    Molecular point group: c1

    Geometry (in Angstrom), charge = 0, multiplicity = 1:

       Center              X                  Y                   Z               Mass
    ------------   -----------------  -----------------  -----------------  -----------------
         O            0.058125836861     1.015526493765     0.507394980375    15.994914619570
         C           -0.756087163139    -1.045506506235     0.126571980375    12.000000000000
         C            0.674112836861    -1.100352506235     0.061912980375    12.000000000000
         C           -1.085748163139     0.256514493765     0.394728980375    12.000000000000
         C            1.125807836861     0.170647493765     0.302903980375    12.000000000000
         C           -2.370539163139     0.995131493765     0.519406980375    12.000000000000
         C            2.651459336861     0.890686993765     0.345580780375    12.000000000000
         C           -1.697270163139    -2.188679506235    -0.088993019625    12.000000000000
         C            1.498246836861    -2.328206506235    -0.176647019625    12.000000000000
         C           -2.862906163139     1.550186493765    -0.825079019625    12.000000000000
         C            2.798828836861     1.567713493765    -0.951426019625    12.000000000000
         H            3.219342836861     0.023601493765     0.518989980375     1.007825032230
         H            2.516320836861     1.489520493765     1.197023980375     1.007825032230
         H           -2.230197163139     1.815760493765     1.234033980375     1.007825032230
         H           -3.127264163139     0.324954493765     0.948704980375     1.007825032230
         H           -1.437238163139    -3.045461506235     0.543704980375     1.007825032230
         H           -2.726262163139    -1.896982506235     0.145309980375     1.007825032230
         H           -1.679279163139    -2.533025506235    -1.131484019625     1.007825032230
         H            2.499732836861    -2.070181506235    -0.539189019625     1.007825032230
         H            1.616449836861    -2.923351506235     0.738133980375     1.007825032230
         H            1.028729836861    -2.970997506235    -0.929067019625     1.007825032230
         H            2.798602836861     0.886483493765    -1.806739019625     1.007825032230
         H            3.782846836861     2.041996493765    -0.885900019625     1.007825032230
         H            2.049589836861     2.344596493765    -1.131766019625     1.007825032230
         H           -2.113670163139     2.223161493765    -1.254125019625     1.007825032230
         H           -3.797159163139     2.105602493765    -0.701176019625     1.007825032230
         H           -3.036148163139     0.734780493765    -1.533826019625     1.007825032230

  Basis Set: AUG-CC-PVTZ
    Blend: AUG-CC-PVTZ
  Basis Set: (AUG-CC-PVTZ AUX)
    Blend: AUG-CC-PVTZ-JKFIT
	 Reference Energy          =    -462.9823052497276308 [Eh]
	 Singles Energy            =      -0.0000000000000000 [Eh]
	 Same-Spin Energy          =      -0.4972219282058800 [Eh]
	 Opposite-Spin Energy      =      -1.6686138925864098 [Eh]
	 Correlation Energy        =      -2.1658358207922896 [Eh]
	 Total Energy              =    -465.1481410705198982 [Eh]

	 ================> DF-SCS-MP2 Energies <==================
	-----------------------------------------------------------
	 SCS Same-Spin Scale       =       0.3333333333333333 [-]
	 SCS Opposite-Spin Scale   =       1.2000000000000000 [-]
	 SCS Same-Spin Energy      =      -0.1657406427352933 [Eh]
	 SCS Opposite-Spin Energy  =      -2.0023366711036918 [Eh]
	 SCS Correlation Energy    =      -2.1680773138389853 [Eh]
	 SCS Total Energy          =    -465.1503825635666090 [Eh]
	-----------------------------------------------------------

  Dipole Moment: [D]
     X:     0.0821      Y:    -0.5610      Z:    -0.2499     Total:     0.6197

*** Psi4 exiting successfully. Buy a developer a beer!
