                               Psi4 1.3.2 release

  ==> Input File <==

--------------------------------------------------------------------------
#psi4
#
memory 32 gb

molecule  {
0 1
  O        0.0307290     1.0797280     0.5205160
  C       -0.8118106    -1.0543572     0.1261775
  C        0.6883760    -1.0936210     0.0623120
  C       -1.0714850     0.2632460     0.3951280
  C        1.1400710     0.1773790     0.3033030
  C       -2.3562760     1.0018630     0.5198060
  C        2.4849120     0.8120840     0.3409220
  C       -1.6830070    -2.1819480    -0.0885940
  C        1.5125100    -2.3214750    -0.1762480
  C       -2.8486430     1.5569180    -0.8246800
  C        2.8130920     1.5744450    -0.9510270
  H        3.2336060     0.0303330     0.5193890
  H        2.5305840     1.4962520     1.1974230
  H       -2.2159340     1.8224920     1.2344330
  H       -3.1130010     0.3316860     0.9491040
  H       -1.4229750    -3.0387300     0.5441040
  H       -2.7119990    -1.8902510     0.1457090
  H       -1.6650160    -2.5262940    -1.1310850
  H        2.5139960    -2.0634500    -0.5387900
  H        1.6307130    -2.9166200     0.7385330
  H        1.0429930    -2.9642660    -0.9286680
  H        2.8128660     0.8932150    -1.8063400
  H        3.7971100     2.0487280    -0.8855010
  H        2.0638530     2.3513280    -1.1313670
  H       -2.0994070     2.2298930    -1.2537260
  H       -3.7828960     2.1123340    -0.7007770
  H       -3.0218850     0.7415120    -1.5334270
units angstrom
no_reorient  #important for SAPT in psi4, default
symmetry c1  #important for SAPT in psi4, default
}

set PROPERTIES_ORIGIN ["COM"]
properties('MP2/aug-cc-pvtz', properties = ['dipole'])
--------------------------------------------------------------------------

    Molecular point group: c1
  Charge       = 0
  Multiplicity = 1
  Basis Set: AUG-CC-PVTZ
    Blend: AUG-CC-PVTZ
  Basis Set: (AUG-CC-PVTZ AUX)
    Blend: AUG-CC-PVTZ-JKFIT

    Orbital Energies [Eh]
    ---------------------

    Doubly Occupied:

       1A    -20.597226     2A    -11.274551     3A    -11.274060
       4A    -11.231005     5A    -11.228161     6A    -11.226176
       7A    -11.225469     8A    -11.222495     9A    -11.218509
      10A    -11.214385    11A    -11.214155    12A     -1.407637
      13A     -1.098653    14A     -1.077270    15A     -1.034226
      16A     -0.997695    17A     -0.934494    18A     -0.923513
      19A     -0.867391    20A     -0.812839    21A     -0.741663
      22A     -0.714478    23A     -0.652444    24A     -0.621910
      25A     -0.611808    26A     -0.609321    27A     -0.587500
      28A     -0.580692    29A     -0.569213    30A     -0.560225
      31A     -0.556490    32A     -0.540694    33A     -0.530719
      34A     -0.524595    35A     -0.521150    36A     -0.503619
      37A     -0.493434    38A     -0.492349    39A     -0.479856
      40A     -0.455256    41A     -0.357888    42A     -0.283371

  @DF-RHF Final Energy:  -462.99922094469196

   => Energetics <=

    Nuclear Repulsion Energy =            627.2547533154472603
    One-Electron Energy =               -1872.3707724846030942
    Two-Electron Energy =                 782.1167982244638779
    Total Energy =                       -462.9992209446919560
  Basis Set: (AUG-CC-PVTZ AUX)
    Blend: AUG-CC-PVTZ-RI
    Molecular point group: c1

    Geometry (in Angstrom), charge = 0, multiplicity = 1:

       Center              X                  Y                   Z               Mass
    ------------   -----------------  -----------------  -----------------  -----------------
         O            0.040630381700     1.074914535021     0.519240885168    15.994914619570
         C           -0.801909218300    -1.059170664979     0.124902385168    12.000000000000
         C            0.698277381700    -1.098434464979     0.061036885168    12.000000000000
         C           -1.061583618300     0.258432535021     0.393852885168    12.000000000000
         C            1.149972381700     0.172565535021     0.302027885168    12.000000000000
         C           -2.346374618300     0.997049535021     0.518530885168    12.000000000000
         C            2.494813381700     0.807270535021     0.339646885168    12.000000000000
         C           -1.673105618300    -2.186761464979    -0.089869114832    12.000000000000
         C            1.522411381700    -2.326288464979    -0.177523114832    12.000000000000
         C           -2.838741618300     1.552104535021    -0.825955114832    12.000000000000
         C            2.822993381700     1.569631535021    -0.952302114832    12.000000000000
         H            3.243507381700     0.025519535021     0.518113885168     1.007825032230
         H            2.540485381700     1.491438535021     1.196147885168     1.007825032230
         H           -2.206032618300     1.817678535021     1.233157885168     1.007825032230
         H           -3.103099618300     0.326872535021     0.947828885168     1.007825032230
         H           -1.413073618300    -3.043543464979     0.542828885168     1.007825032230
         H           -2.702097618300    -1.895064464979     0.144433885168     1.007825032230
         H           -1.655114618300    -2.531107464979    -1.132360114832     1.007825032230
         H            2.523897381700    -2.068263464979    -0.540065114832     1.007825032230
         H            1.640614381700    -2.921433464979     0.737257885168     1.007825032230
         H            1.052894381700    -2.969079464979    -0.929943114832     1.007825032230
         H            2.822767381700     0.888401535021    -1.807615114832     1.007825032230
         H            3.807011381700     2.043914535021    -0.886776114832     1.007825032230
         H            2.073754381700     2.346514535021    -1.132642114832     1.007825032230
         H           -2.089505618300     2.225079535021    -1.255001114832     1.007825032230
         H           -3.772994618300     2.107520535021    -0.702052114832     1.007825032230
         H           -3.011983618300     0.736698535021    -1.534702114832     1.007825032230

  Basis Set: AUG-CC-PVTZ
    Blend: AUG-CC-PVTZ
  Basis Set: (AUG-CC-PVTZ AUX)
    Blend: AUG-CC-PVTZ-JKFIT
	 Reference Energy          =    -462.9992209446919560 [Eh]
	 Singles Energy            =      -0.0000000000000000 [Eh]
	 Same-Spin Energy          =      -0.4969289392680092 [Eh]
	 Opposite-Spin Energy      =      -1.6693479925891466 [Eh]
	 Correlation Energy        =      -2.1662769318571558 [Eh]
	 Total Energy              =    -465.1654978765491251 [Eh]

	 ================> DF-SCS-MP2 Energies <==================
	-----------------------------------------------------------
	 SCS Same-Spin Scale       =       0.3333333333333333 [-]
	 SCS Opposite-Spin Scale   =       1.2000000000000000 [-]
	 SCS Same-Spin Energy      =      -0.1656429797560031 [Eh]
	 SCS Opposite-Spin Energy  =      -2.0032175911069756 [Eh]
	 SCS Correlation Energy    =      -2.1688605708629787 [Eh]
	 SCS Total Energy          =    -465.1680815155549453 [Eh]
	-----------------------------------------------------------

  Dipole Moment: [D]
     X:     0.1172      Y:    -0.9172      Z:    -0.2692     Total:     0.9630

*** Psi4 exiting successfully. Buy a developer a beer!
