                               Psi4 1.3.2 release

  ==> Input File <==

--------------------------------------------------------------------------
#psi4
#
memory 32 gb

molecule  {
0 1
  O        0.0723890     1.0222580     0.5077940
  C       -0.7418240    -1.0387750     0.1269710
  C        0.6883760    -1.0936210     0.0623120
  C       -1.0714850     0.2632460     0.3951280
  C        1.1400710     0.1773790     0.3033030
  C       -2.1834971     0.9025337     0.5030393
  C        2.4849120     0.8120840     0.3409220
  C       -1.6830070    -2.1819480    -0.0885940
  C        1.5125100    -2.3214750    -0.1762480
  C       -2.8486430     1.5569180    -0.8246800
  C        2.8130920     1.5744450    -0.9510270
  H        3.2336060     0.0303330     0.5193890
  H        2.5305840     1.4962520     1.1974230
  H       -2.2159340     1.8224920     1.2344330
  H       -3.1130010     0.3316860     0.9491040
  H       -1.4229750    -3.0387300     0.5441040
  H       -2.7119990    -1.8902510     0.1457090
  H       -1.6650160    -2.5262940    -1.1310850
  H        2.5139960    -2.0634500    -0.5387900
  H        1.6307130    -2.9166200     0.7385330
  H        1.0429930    -2.9642660    -0.9286680
  H        2.8128660     0.8932150    -1.8063400
  H        3.7971100     2.0487280    -0.8855010
  H        2.0638530     2.3513280    -1.1313670
  H       -2.0994070     2.2298930    -1.2537260
  H       -3.7828960     2.1123340    -0.7007770
  H       -3.0218850     0.7415120    -1.5334270
units angstrom
no_reorient  #important for SAPT in psi4, default
symmetry c1  #important for SAPT in psi4, default
}

set PROPERTIES_ORIGIN ["COM"]
properties('MP2/aug-cc-pvtz', properties = ['dipole'])
--------------------------------------------------------------------------

    Molecular point group: c1
  Charge       = 0
  Multiplicity = 1
  Basis Set: AUG-CC-PVTZ
    Blend: AUG-CC-PVTZ
  Basis Set: (AUG-CC-PVTZ AUX)
    Blend: AUG-CC-PVTZ-JKFIT

    Orbital Energies [Eh]
    ---------------------

    Doubly Occupied:

       1A    -20.598340     2A    -11.272573     3A    -11.256894
       4A    -11.231644     5A    -11.231378     6A    -11.224253
       7A    -11.224038     8A    -11.219947     9A    -11.219352
      10A    -11.217457    11A    -11.215801    12A     -1.433077
      13A     -1.107164    14A     -1.095213    15A     -1.038573
      16A     -0.988088    17A     -0.934349    18A     -0.932014
      19A     -0.881379    20A     -0.810818    21A     -0.755016
      22A     -0.722342    23A     -0.668419    24A     -0.632137
      25A     -0.619881    26A     -0.603795    27A     -0.590477
      28A     -0.575300    29A     -0.569738    30A     -0.557838
      31A     -0.549394    32A     -0.543701    33A     -0.531754
      34A     -0.525338    35A     -0.521686    36A     -0.507471
      37A     -0.494502    38A     -0.479466    39A     -0.476768
      40A     -0.453183    41A     -0.361269    42A     -0.273846

  @DF-RHF Final Energy:  -462.95725244154863

   => Energetics <=

    Nuclear Repulsion Energy =            633.1498042798266397
    One-Electron Energy =               -1883.9227700741623721
    Two-Electron Energy =                 787.8157133527870428
    Total Energy =                       -462.9572524415486896
  Basis Set: (AUG-CC-PVTZ AUX)
    Blend: AUG-CC-PVTZ-RI
    Molecular point group: c1

    Geometry (in Angstrom), charge = 0, multiplicity = 1:

       Center              X                  Y                   Z               Mass
    ------------   -----------------  -----------------  -----------------  -----------------
         O            0.058759409876     1.030093703354     0.509116606735    15.994914619570
         C           -0.755453590124    -1.030939296646     0.128293606735    12.000000000000
         C            0.674746409876    -1.085785296646     0.063634606735    12.000000000000
         C           -1.085114590124     0.271081703354     0.396450606735    12.000000000000
         C            1.126441409876     0.185214703354     0.304625606735    12.000000000000
         C           -2.197126690124     0.910369403354     0.504361906735    12.000000000000
         C            2.471282409876     0.819919703354     0.342244606735    12.000000000000
         C           -1.696636590124    -2.174112296646    -0.087271393265    12.000000000000
         C            1.498880409876    -2.313639296646    -0.174925393265    12.000000000000
         C           -2.862272590124     1.564753703354    -0.823357393265    12.000000000000
         C            2.799462409876     1.582280703354    -0.949704393265    12.000000000000
         H            3.219976409876     0.038168703354     0.520711606735     1.007825032230
         H            2.516954409876     1.504087703354     1.198745606735     1.007825032230
         H           -2.229563590124     1.830327703354     1.235755606735     1.007825032230
         H           -3.126630590124     0.339521703354     0.950426606735     1.007825032230
         H           -1.436604590124    -3.030894296646     0.545426606735     1.007825032230
         H           -2.725628590124    -1.882415296646     0.147031606735     1.007825032230
         H           -1.678645590124    -2.518458296646    -1.129762393265     1.007825032230
         H            2.500366409876    -2.055614296646    -0.537467393265     1.007825032230
         H            1.617083409876    -2.908784296646     0.739855606735     1.007825032230
         H            1.029363409876    -2.956430296646    -0.927345393265     1.007825032230
         H            2.799236409876     0.901050703354    -1.805017393265     1.007825032230
         H            3.783480409876     2.056563703354    -0.884178393265     1.007825032230
         H            2.050223409876     2.359163703354    -1.130044393265     1.007825032230
         H           -2.113036590124     2.237728703354    -1.252403393265     1.007825032230
         H           -3.796525590124     2.120169703354    -0.699454393265     1.007825032230
         H           -3.035514590124     0.749347703354    -1.532104393265     1.007825032230

  Basis Set: AUG-CC-PVTZ
    Blend: AUG-CC-PVTZ
  Basis Set: (AUG-CC-PVTZ AUX)
    Blend: AUG-CC-PVTZ-JKFIT
	 Reference Energy          =    -462.9572524415486328 [Eh]
	 Singles Energy            =      -0.0000000000000000 [Eh]
	 Same-Spin Energy          =      -0.5011180777523772 [Eh]
	 Opposite-Spin Energy      =      -1.6720858291545302 [Eh]
	 Correlation Energy        =      -2.1732039069069073 [Eh]
	 Total Energy              =    -465.1304563484555388 [Eh]

	 ================> DF-SCS-MP2 Energies <==================
	-----------------------------------------------------------
	 SCS Same-Spin Scale       =       0.3333333333333333 [-]
	 SCS Opposite-Spin Scale   =       1.2000000000000000 [-]
	 SCS Same-Spin Energy      =      -0.1670393592507924 [Eh]
	 SCS Opposite-Spin Energy  =      -2.0065029949854361 [Eh]
	 SCS Correlation Energy    =      -2.1735423542362282 [Eh]
	 SCS Total Energy          =    -465.1307947957848796 [Eh]
	-----------------------------------------------------------

  Dipole Moment: [D]
     X:     0.1102      Y:    -0.7527      Z:    -0.2191     Total:     0.7916

*** Psi4 exiting successfully. Buy a developer a beer!
