                               Psi4 1.3.2 release

  ==> Input File <==

--------------------------------------------------------------------------
#psi4
#
memory 32 gb

molecule  {
0 1
  O        0.0723890     1.0222580     0.5077940
  C       -0.7418240    -1.0387750     0.1269710
  C        0.6883760    -1.0936210     0.0623120
  C       -1.0714850     0.2632460     0.3951280
  C        1.0625230     0.2387444     0.3181556
  C       -2.3562760     1.0018630     0.5198060
  C        2.4849120     0.8120840     0.3409220
  C       -1.6830070    -2.1819480    -0.0885940
  C        1.5125100    -2.3214750    -0.1762480
  C       -2.8486430     1.5569180    -0.8246800
  C        2.8130920     1.5744450    -0.9510270
  H        3.2336060     0.0303330     0.5193890
  H        2.5305840     1.4962520     1.1974230
  H       -2.2159340     1.8224920     1.2344330
  H       -3.1130010     0.3316860     0.9491040
  H       -1.4229750    -3.0387300     0.5441040
  H       -2.7119990    -1.8902510     0.1457090
  H       -1.6650160    -2.5262940    -1.1310850
  H        2.5139960    -2.0634500    -0.5387900
  H        1.6307130    -2.9166200     0.7385330
  H        1.0429930    -2.9642660    -0.9286680
  H        2.8128660     0.8932150    -1.8063400
  H        3.7971100     2.0487280    -0.8855010
  H        2.0638530     2.3513280    -1.1313670
  H       -2.0994070     2.2298930    -1.2537260
  H       -3.7828960     2.1123340    -0.7007770
  H       -3.0218850     0.7415120    -1.5334270
units angstrom
no_reorient  #important for SAPT in psi4, default
symmetry c1  #important for SAPT in psi4, default
}

set PROPERTIES_ORIGIN ["COM"]
properties('MP2/aug-cc-pvtz', properties = ['dipole'])
--------------------------------------------------------------------------

    Molecular point group: c1
  Charge       = 0
  Multiplicity = 1
  Basis Set: AUG-CC-PVTZ
    Blend: AUG-CC-PVTZ
  Basis Set: (AUG-CC-PVTZ AUX)
    Blend: AUG-CC-PVTZ-JKFIT

    Orbital Energies [Eh]
    ---------------------

    Doubly Occupied:

       1A    -20.614313     2A    -11.275029     3A    -11.264219
       4A    -11.231104     5A    -11.229494     6A    -11.223532
       7A    -11.221989     8A    -11.218413     9A    -11.214685
      10A    -11.214352    11A    -11.210695    12A     -1.476477
      13A     -1.099824    14A     -1.074892    15A     -1.033198
      16A     -0.986839    17A     -0.937528    18A     -0.930162
      19A     -0.866306    20A     -0.815337    21A     -0.764225
      22A     -0.721972    23A     -0.668825    24A     -0.644580
      25A     -0.610815    26A     -0.606536    27A     -0.592236
      28A     -0.580880    29A     -0.570541    30A     -0.554968
      31A     -0.549252    32A     -0.537509    33A     -0.533124
      34A     -0.529600    35A     -0.519153    36A     -0.506321
      37A     -0.494652    38A     -0.487433    39A     -0.484932
      40A     -0.452764    41A     -0.359258    42A     -0.272453

  @DF-RHF Final Energy:  -463.00314210907845

   => Energetics <=

    Nuclear Repulsion Energy =            630.5812118642459154
    One-Electron Energy =               -1878.8078753651257102
    Two-Electron Energy =                 785.2235213918013415
    Total Energy =                       -463.0031421090784534
  Basis Set: (AUG-CC-PVTZ AUX)
    Blend: AUG-CC-PVTZ-RI
    Molecular point group: c1

    Geometry (in Angstrom), charge = 0, multiplicity = 1:

       Center              X                  Y                   Z               Mass
    ------------   -----------------  -----------------  -----------------  -----------------
         O            0.078506455146     1.017417296961     0.506622317274    15.994914619570
         C           -0.735706544854    -1.043615703039     0.125799317274    12.000000000000
         C            0.694493455146    -1.098461703039     0.061140317274    12.000000000000
         C           -1.065367544854     0.258405296961     0.393956317274    12.000000000000
         C            1.068640455146     0.233903696961     0.316983917274    12.000000000000
         C           -2.350158544854     0.997022296961     0.518634317274    12.000000000000
         C            2.491029455146     0.807243296961     0.339750317274    12.000000000000
         C           -1.676889544854    -2.186788703039    -0.089765682726    12.000000000000
         C            1.518627455146    -2.326315703039    -0.177419682726    12.000000000000
         C           -2.842525544854     1.552077296961    -0.825851682726    12.000000000000
         C            2.819209455146     1.569604296961    -0.952198682726    12.000000000000
         H            3.239723455146     0.025492296961     0.518217317274     1.007825032230
         H            2.536701455146     1.491411296961     1.196251317274     1.007825032230
         H           -2.209816544854     1.817651296961     1.233261317274     1.007825032230
         H           -3.106883544854     0.326845296961     0.947932317274     1.007825032230
         H           -1.416857544854    -3.043570703039     0.542932317274     1.007825032230
         H           -2.705881544854    -1.895091703039     0.144537317274     1.007825032230
         H           -1.658898544854    -2.531134703039    -1.132256682726     1.007825032230
         H            2.520113455146    -2.068290703039    -0.539961682726     1.007825032230
         H            1.636830455146    -2.921460703039     0.737361317274     1.007825032230
         H            1.049110455146    -2.969106703039    -0.929839682726     1.007825032230
         H            2.818983455146     0.888374296961    -1.807511682726     1.007825032230
         H            3.803227455146     2.043887296961    -0.886672682726     1.007825032230
         H            2.069970455146     2.346487296961    -1.132538682726     1.007825032230
         H           -2.093289544854     2.225052296961    -1.254897682726     1.007825032230
         H           -3.776778544854     2.107493296961    -0.701948682726     1.007825032230
         H           -3.015767544854     0.736671296961    -1.534598682726     1.007825032230

  Basis Set: AUG-CC-PVTZ
    Blend: AUG-CC-PVTZ
  Basis Set: (AUG-CC-PVTZ AUX)
    Blend: AUG-CC-PVTZ-JKFIT
	 Reference Energy          =    -463.0031421090784534 [Eh]
	 Singles Energy            =      -0.0000000000000000 [Eh]
	 Same-Spin Energy          =      -0.4971757985086248 [Eh]
	 Opposite-Spin Energy      =      -1.6657400503635809 [Eh]
	 Correlation Energy        =      -2.1629158488722058 [Eh]
	 Total Energy              =    -465.1660579579506702 [Eh]

	 ================> DF-SCS-MP2 Energies <==================
	-----------------------------------------------------------
	 SCS Same-Spin Scale       =       0.3333333333333333 [-]
	 SCS Opposite-Spin Scale   =       1.2000000000000000 [-]
	 SCS Same-Spin Energy      =      -0.1657252661695416 [Eh]
	 SCS Opposite-Spin Energy  =      -1.9988880604362969 [Eh]
	 SCS Correlation Energy    =      -2.1646133266058385 [Eh]
	 SCS Total Energy          =    -465.1677554356842847 [Eh]
	-----------------------------------------------------------

  Dipole Moment: [D]
     X:    -0.1547      Y:    -0.5450      Z:    -0.1686     Total:     0.5911

*** Psi4 exiting successfully. Buy a developer a beer!
