                               Psi4 1.3.2 release

  ==> Input File <==

--------------------------------------------------------------------------
#psi4
#
memory 32 gb

molecule  {
0 1
  O        0.0648708     1.0129643     0.5065854
  C       -0.7418240    -1.0387750     0.1269710
  C        0.6883760    -1.0936210     0.0623120
  C       -1.0714850     0.2632460     0.3951280
  C        1.1400710     0.1773790     0.3033030
  C       -2.3562760     1.0018630     0.5198060
  C        2.4903662     0.8005311     0.3386199
  C       -1.6830070    -2.1819480    -0.0885940
  C        1.5125100    -2.3214750    -0.1762480
  C       -2.8486430     1.5569180    -0.8246800
  C        2.8130920     1.5744450    -0.9510270
  H        3.2336060     0.0303330     0.5193890
  H        2.5305840     1.4962520     1.1974230
  H       -2.2159340     1.8224920     1.2344330
  H       -3.1130010     0.3316860     0.9491040
  H       -1.4229750    -3.0387300     0.5441040
  H       -2.7119990    -1.8902510     0.1457090
  H       -1.6650160    -2.5262940    -1.1310850
  H        2.5139960    -2.0634500    -0.5387900
  H        1.6307130    -2.9166200     0.7385330
  H        1.0429930    -2.9642660    -0.9286680
  H        2.8128660     0.8932150    -1.8063400
  H        3.7971100     2.0487280    -0.8855010
  H        2.0638530     2.3513280    -1.1313670
  H       -2.0994070     2.2298930    -1.2537260
  H       -3.7828960     2.1123340    -0.7007770
  H       -3.0218850     0.7415120    -1.5334270
units angstrom
no_reorient  #important for SAPT in psi4, default
symmetry c1  #important for SAPT in psi4, default
}

set PROPERTIES_ORIGIN ["COM"]
properties('MP2/aug-cc-pvtz', properties = ['dipole'])
--------------------------------------------------------------------------

    Molecular point group: c1
  Charge       = 0
  Multiplicity = 1
  Basis Set: AUG-CC-PVTZ
    Blend: AUG-CC-PVTZ
  Basis Set: (AUG-CC-PVTZ AUX)
    Blend: AUG-CC-PVTZ-JKFIT

    Orbital Energies [Eh]
    ---------------------

    Doubly Occupied:

       1A    -20.599054     2A    -11.269088     3A    -11.269023
       4A    -11.230393     5A    -11.230110     6A    -11.222746
       7A    -11.222459     8A    -11.215750     9A    -11.215600
      10A    -11.214936    11A    -11.213908    12A     -1.433657
      13A     -1.098095    14A     -1.079352    15A     -1.036250
      16A     -0.989732    17A     -0.931892    18A     -0.928362
      19A     -0.870475    20A     -0.816401    21A     -0.751120
      22A     -0.721187    23A     -0.659151    24A     -0.628651
      25A     -0.611344    26A     -0.609531    27A     -0.588273
      28A     -0.583161    29A     -0.567675    30A     -0.555488
      31A     -0.549418    32A     -0.533514    33A     -0.527907
      34A     -0.523501    35A     -0.520895    36A     -0.505837
      37A     -0.495508    38A     -0.492558    39A     -0.485093
      40A     -0.466216    41A     -0.359793    42A     -0.278772

  @DF-RHF Final Energy:  -463.01244177089279

   => Energetics <=

    Nuclear Repulsion Energy =            629.8416700669645252
    One-Electron Energy =               -1877.5044746777796263
    Two-Electron Energy =                 784.6503628399223089
    Total Energy =                       -463.0124417708927922
  Basis Set: (AUG-CC-PVTZ AUX)
    Blend: AUG-CC-PVTZ-RI
    Molecular point group: c1

    Geometry (in Angstrom), charge = 0, multiplicity = 1:

       Center              X                  Y                   Z               Mass
    ------------   -----------------  -----------------  -----------------  -----------------
         O            0.065231137278     1.014852960380     0.506894046510    15.994914619570
         C           -0.741463662722    -1.036886339620     0.127279646510    12.000000000000
         C            0.688736337278    -1.091732339620     0.062620646510    12.000000000000
         C           -1.071124662722     0.265134660380     0.395436646510    12.000000000000
         C            1.140431337278     0.179267660380     0.303611646510    12.000000000000
         C           -2.355915662722     1.003751660380     0.520114646510    12.000000000000
         C            2.490726537278     0.802419760380     0.338928546510    12.000000000000
         C           -1.682646662722    -2.180059339620    -0.088285353490    12.000000000000
         C            1.512870337278    -2.319586339620    -0.175939353490    12.000000000000
         C           -2.848282662722     1.558806660380    -0.824371353490    12.000000000000
         C            2.813452337278     1.576333660380    -0.950718353490    12.000000000000
         H            3.233966337278     0.032221660380     0.519697646510     1.007825032230
         H            2.530944337278     1.498140660380     1.197731646510     1.007825032230
         H           -2.215573662722     1.824380660380     1.234741646510     1.007825032230
         H           -3.112640662722     0.333574660380     0.949412646510     1.007825032230
         H           -1.422614662722    -3.036841339620     0.544412646510     1.007825032230
         H           -2.711638662722    -1.888362339620     0.146017646510     1.007825032230
         H           -1.664655662722    -2.524405339620    -1.130776353490     1.007825032230
         H            2.514356337278    -2.061561339620    -0.538481353490     1.007825032230
         H            1.631073337278    -2.914731339620     0.738841646510     1.007825032230
         H            1.043353337278    -2.962377339620    -0.928359353490     1.007825032230
         H            2.813226337278     0.895103660380    -1.806031353490     1.007825032230
         H            3.797470337278     2.050616660380    -0.885192353490     1.007825032230
         H            2.064213337278     2.353216660380    -1.131058353490     1.007825032230
         H           -2.099046662722     2.231781660380    -1.253417353490     1.007825032230
         H           -3.782535662722     2.114222660380    -0.700468353490     1.007825032230
         H           -3.021524662722     0.743400660380    -1.533118353490     1.007825032230

  Basis Set: AUG-CC-PVTZ
    Blend: AUG-CC-PVTZ
  Basis Set: (AUG-CC-PVTZ AUX)
    Blend: AUG-CC-PVTZ-JKFIT
	 Reference Energy          =    -463.0124417708927922 [Eh]
	 Singles Energy            =      -0.0000000000000000 [Eh]
	 Same-Spin Energy          =      -0.4970417262972118 [Eh]
	 Opposite-Spin Energy      =      -1.6667156759302797 [Eh]
	 Correlation Energy        =      -2.1637574022274917 [Eh]
	 Total Energy              =    -465.1761991731202670 [Eh]

	 ================> DF-SCS-MP2 Energies <==================
	-----------------------------------------------------------
	 SCS Same-Spin Scale       =       0.3333333333333333 [-]
	 SCS Opposite-Spin Scale   =       1.2000000000000000 [-]
	 SCS Same-Spin Energy      =      -0.1656805754324039 [Eh]
	 SCS Opposite-Spin Energy  =      -2.0000588111163355 [Eh]
	 SCS Correlation Energy    =      -2.1657393865487395 [Eh]
	 SCS Total Energy          =    -465.1781811574415428 [Eh]
	-----------------------------------------------------------

  Dipole Moment: [D]
     X:    -0.0019      Y:    -0.6186      Z:    -0.2111     Total:     0.6536

*** Psi4 exiting successfully. Buy a developer a beer!
