                               Psi4 1.3.2 release

  ==> Input File <==

--------------------------------------------------------------------------
#psi4
#
memory 32 gb

molecule  {
0 1
  O        0.0723890     1.0222580     0.5077940
  C       -0.7418240    -1.0387750     0.1269710
  C        0.6883760    -1.0936210     0.0623120
  C       -1.0714850     0.2632460     0.3951280
  C        1.1071062     0.0846212     0.2857154
  C       -2.3562760     1.0018630     0.5198060
  C        2.4849120     0.8120840     0.3409220
  C       -1.6830070    -2.1819480    -0.0885940
  C        1.5125100    -2.3214750    -0.1762480
  C       -2.8486430     1.5569180    -0.8246800
  C        2.8130920     1.5744450    -0.9510270
  H        3.2336060     0.0303330     0.5193890
  H        2.5305840     1.4962520     1.1974230
  H       -2.2159340     1.8224920     1.2344330
  H       -3.1130010     0.3316860     0.9491040
  H       -1.4229750    -3.0387300     0.5441040
  H       -2.7119990    -1.8902510     0.1457090
  H       -1.6650160    -2.5262940    -1.1310850
  H        2.5139960    -2.0634500    -0.5387900
  H        1.6307130    -2.9166200     0.7385330
  H        1.0429930    -2.9642660    -0.9286680
  H        2.8128660     0.8932150    -1.8063400
  H        3.7971100     2.0487280    -0.8855010
  H        2.0638530     2.3513280    -1.1313670
  H       -2.0994070     2.2298930    -1.2537260
  H       -3.7828960     2.1123340    -0.7007770
  H       -3.0218850     0.7415120    -1.5334270
units angstrom
no_reorient  #important for SAPT in psi4, default
symmetry c1  #important for SAPT in psi4, default
}

set PROPERTIES_ORIGIN ["COM"]
properties('MP2/aug-cc-pvtz', properties = ['dipole'])
--------------------------------------------------------------------------

    Molecular point group: c1
  Charge       = 0
  Multiplicity = 1
  Basis Set: AUG-CC-PVTZ
    Blend: AUG-CC-PVTZ
  Basis Set: (AUG-CC-PVTZ AUX)
    Blend: AUG-CC-PVTZ-JKFIT

    Orbital Energies [Eh]
    ---------------------

    Doubly Occupied:

       1A    -20.591694     2A    -11.270594     3A    -11.260954
       4A    -11.232325     5A    -11.229692     6A    -11.225909
       7A    -11.222836     8A    -11.215768     9A    -11.214230
      10A    -11.213393    11A    -11.206835    12A     -1.418230
      13A     -1.112716    14A     -1.073680    15A     -1.030243
      16A     -0.994104    17A     -0.941709    18A     -0.922469
      19A     -0.864596    20A     -0.818639    21A     -0.745721
      22A     -0.722538    23A     -0.654278    24A     -0.626674
      25A     -0.608644    26A     -0.606657    27A     -0.585580
      28A     -0.579521    29A     -0.566926    30A     -0.556895
      31A     -0.550734    32A     -0.533201    33A     -0.531199
      34A     -0.524173    35A     -0.517961    36A     -0.504296
      37A     -0.493825    38A     -0.489980    39A     -0.477931
      40A     -0.465342    41A     -0.374037    42A     -0.289756

  @DF-RHF Final Energy:  -463.00039109214504

   => Energetics <=

    Nuclear Repulsion Energy =            630.2071317874876968
    One-Electron Energy =               -1878.2820859612654658
    Two-Electron Energy =                 785.0745630816327321
    Total Energy =                       -463.0003910921450370
  Basis Set: (AUG-CC-PVTZ AUX)
    Blend: AUG-CC-PVTZ-RI
    Molecular point group: c1

    Geometry (in Angstrom), charge = 0, multiplicity = 1:

       Center              X                  Y                   Z               Mass
    ------------   -----------------  -----------------  -----------------  -----------------
         O            0.074989508031     1.029575310373     0.509181363457    15.994914619570
         C           -0.739223491969    -1.031457689627     0.128358363457    12.000000000000
         C            0.690976508031    -1.086303689627     0.063699363457    12.000000000000
         C           -1.068884491969     0.270563310373     0.396515363457    12.000000000000
         C            1.109706708031     0.091938510373     0.287102763457    12.000000000000
         C           -2.353675491969     1.009180310373     0.521193363457    12.000000000000
         C            2.487512508031     0.819401310373     0.342309363457    12.000000000000
         C           -1.680406491969    -2.174630689627    -0.087206636543    12.000000000000
         C            1.515110508031    -2.314157689627    -0.174860636543    12.000000000000
         C           -2.846042491969     1.564235310373    -0.823292636543    12.000000000000
         C            2.815692508031     1.581762310373    -0.949639636543    12.000000000000
         H            3.236206508031     0.037650310373     0.520776363457     1.007825032230
         H            2.533184508031     1.503569310373     1.198810363457     1.007825032230
         H           -2.213333491969     1.829809310373     1.235820363457     1.007825032230
         H           -3.110400491969     0.339003310373     0.950491363457     1.007825032230
         H           -1.420374491969    -3.031412689627     0.545491363457     1.007825032230
         H           -2.709398491969    -1.882933689627     0.147096363457     1.007825032230
         H           -1.662415491969    -2.518976689627    -1.129697636543     1.007825032230
         H            2.516596508031    -2.056132689627    -0.537402636543     1.007825032230
         H            1.633313508031    -2.909302689627     0.739920363457     1.007825032230
         H            1.045593508031    -2.956948689627    -0.927280636543     1.007825032230
         H            2.815466508031     0.900532310373    -1.804952636543     1.007825032230
         H            3.799710508031     2.056045310373    -0.884113636543     1.007825032230
         H            2.066453508031     2.358645310373    -1.129979636543     1.007825032230
         H           -2.096806491969     2.237210310373    -1.252338636543     1.007825032230
         H           -3.780295491969     2.119651310373    -0.699389636543     1.007825032230
         H           -3.019284491969     0.748829310373    -1.532039636543     1.007825032230

  Basis Set: AUG-CC-PVTZ
    Blend: AUG-CC-PVTZ
  Basis Set: (AUG-CC-PVTZ AUX)
    Blend: AUG-CC-PVTZ-JKFIT
	 Reference Energy          =    -463.0003910921450370 [Eh]
	 Singles Energy            =      -0.0000000000000000 [Eh]
	 Same-Spin Energy          =      -0.4951170425947167 [Eh]
	 Opposite-Spin Energy      =      -1.6654619169007312 [Eh]
	 Correlation Energy        =      -2.1605789594954476 [Eh]
	 Total Energy              =    -465.1609700516405042 [Eh]

	 ================> DF-SCS-MP2 Energies <==================
	-----------------------------------------------------------
	 SCS Same-Spin Scale       =       0.3333333333333333 [-]
	 SCS Opposite-Spin Scale   =       1.2000000000000000 [-]
	 SCS Same-Spin Energy      =      -0.1650390141982389 [Eh]
	 SCS Opposite-Spin Energy  =      -1.9985543002808774 [Eh]
	 SCS Correlation Energy    =      -2.1635933144791162 [Eh]
	 SCS Total Energy          =    -465.1639844066241380 [Eh]
	-----------------------------------------------------------

  Dipole Moment: [D]
     X:    -0.0226      Y:    -0.8215      Z:    -0.2563     Total:     0.8609

*** Psi4 exiting successfully. Buy a developer a beer!
