                               Psi4 1.3.2 release

  ==> Input File <==

--------------------------------------------------------------------------
#psi4
#
memory 32 gb

molecule  {
0 1
  O        0.0723890     1.0222580     0.5077940
  C       -0.7364743    -0.9649617     0.1391847
  C        0.6883760    -1.0936210     0.0623120
  C       -1.0714850     0.2632460     0.3951280
  C        1.1400710     0.1773790     0.3033030
  C       -2.3562760     1.0018630     0.5198060
  C        2.4849120     0.8120840     0.3409220
  C       -1.6830070    -2.1819480    -0.0885940
  C        1.5767746    -2.2768126    -0.1712230
  C       -2.8486430     1.5569180    -0.8246800
  C        2.8130920     1.5744450    -0.9510270
  H        3.2336060     0.0303330     0.5193890
  H        2.5305840     1.4962520     1.1974230
  H       -2.2159340     1.8224920     1.2344330
  H       -3.1130010     0.3316860     0.9491040
  H       -1.4229750    -3.0387300     0.5441040
  H       -2.7119990    -1.8902510     0.1457090
  H       -1.6650160    -2.5262940    -1.1310850
  H        2.5139960    -2.0634500    -0.5387900
  H        1.6307130    -2.9166200     0.7385330
  H        1.0429930    -2.9642660    -0.9286680
  H        2.8128660     0.8932150    -1.8063400
  H        3.7971100     2.0487280    -0.8855010
  H        2.0638530     2.3513280    -1.1313670
  H       -2.0994070     2.2298930    -1.2537260
  H       -3.7828960     2.1123340    -0.7007770
  H       -3.0218850     0.7415120    -1.5334270
units angstrom
no_reorient  #important for SAPT in psi4, default
symmetry c1  #important for SAPT in psi4, default
}

set PROPERTIES_ORIGIN ["COM"]
properties('MP2/aug-cc-pvtz', properties = ['dipole'])
--------------------------------------------------------------------------

    Molecular point group: c1
  Charge       = 0
  Multiplicity = 1
  Basis Set: AUG-CC-PVTZ
    Blend: AUG-CC-PVTZ
  Basis Set: (AUG-CC-PVTZ AUX)
    Blend: AUG-CC-PVTZ-JKFIT

    Orbital Energies [Eh]
    ---------------------

    Doubly Occupied:

       1A    -20.593040     2A    -11.269082     3A    -11.259494
       4A    -11.230302     5A    -11.230029     6A    -11.225623
       7A    -11.225115     8A    -11.215620     9A    -11.215237
      10A    -11.214943    11A    -11.210918    12A     -1.429826
      13A     -1.099810    14A     -1.081196    15A     -1.036183
      16A     -0.989225    17A     -0.932619    18A     -0.927936
      19A     -0.870748    20A     -0.820634    21A     -0.752657
      22A     -0.719966    23A     -0.658810    24A     -0.627907
      25A     -0.611312    26A     -0.609515    27A     -0.588000
      28A     -0.585627    29A     -0.565202    30A     -0.557771
      31A     -0.545530    32A     -0.535305    33A     -0.522874
      34A     -0.520035    35A     -0.511666    36A     -0.505094
      37A     -0.497408    38A     -0.493106    39A     -0.484177
      40A     -0.466057    41A     -0.366139    42A     -0.287195

  @DF-RHF Final Energy:  -463.00094871817930

   => Energetics <=

    Nuclear Repulsion Energy =            630.6188437395247774
    One-Electron Energy =               -1879.0617216168527648
    Two-Electron Energy =                 785.4419291591487990
    Total Energy =                       -463.0009487181793020
  Basis Set: (AUG-CC-PVTZ AUX)
    Blend: AUG-CC-PVTZ-RI
    Molecular point group: c1

    Geometry (in Angstrom), charge = 0, multiplicity = 1:

       Center              X                  Y                   Z               Mass
    ------------   -----------------  -----------------  -----------------  -----------------
         O            0.066897552547     1.012912149175     0.506434089701    15.994914619570
         C           -0.741965747453    -0.974307550825     0.137824789701    12.000000000000
         C            0.682884552547    -1.102966850825     0.060952089701    12.000000000000
         C           -1.076976447453     0.253900149175     0.393768089701    12.000000000000
         C            1.134579552547     0.168033149175     0.301943089701    12.000000000000
         C           -2.361767447453     0.992517149175     0.518446089701    12.000000000000
         C            2.479420552547     0.802738149175     0.339562089701    12.000000000000
         C           -1.688498447453    -2.191293850825    -0.089953910299    12.000000000000
         C            1.571283152547    -2.286158450825    -0.172582910299    12.000000000000
         C           -2.854134447453     1.547572149175    -0.826039910299    12.000000000000
         C            2.807600552547     1.565099149175    -0.952386910299    12.000000000000
         H            3.228114552547     0.020987149175     0.518029089701     1.007825032230
         H            2.525092552547     1.486906149175     1.196063089701     1.007825032230
         H           -2.221425447453     1.813146149175     1.233073089701     1.007825032230
         H           -3.118492447453     0.322340149175     0.947744089701     1.007825032230
         H           -1.428466447453    -3.048075850825     0.542744089701     1.007825032230
         H           -2.717490447453    -1.899596850825     0.144349089701     1.007825032230
         H           -1.670507447453    -2.535639850825    -1.132444910299     1.007825032230
         H            2.508504552547    -2.072795850825    -0.540149910299     1.007825032230
         H            1.625221552547    -2.925965850825     0.737173089701     1.007825032230
         H            1.037501552547    -2.973611850825    -0.930027910299     1.007825032230
         H            2.807374552547     0.883869149175    -1.807699910299     1.007825032230
         H            3.791618552547     2.039382149175    -0.886860910299     1.007825032230
         H            2.058361552547     2.341982149175    -1.132726910299     1.007825032230
         H           -2.104898447453     2.220547149175    -1.255085910299     1.007825032230
         H           -3.788387447453     2.102988149175    -0.702136910299     1.007825032230
         H           -3.027376447453     0.732166149175    -1.534786910299     1.007825032230

  Basis Set: AUG-CC-PVTZ
    Blend: AUG-CC-PVTZ
  Basis Set: (AUG-CC-PVTZ AUX)
    Blend: AUG-CC-PVTZ-JKFIT
	 Reference Energy          =    -463.0009487181793020 [Eh]
	 Singles Energy            =      -0.0000000000000000 [Eh]
	 Same-Spin Energy          =      -0.4956183211449963 [Eh]
	 Opposite-Spin Energy      =      -1.6652247620385163 [Eh]
	 Correlation Energy        =      -2.1608430831835124 [Eh]
	 Total Energy              =    -465.1617918013628241 [Eh]

	 ================> DF-SCS-MP2 Energies <==================
	-----------------------------------------------------------
	 SCS Same-Spin Scale       =       0.3333333333333333 [-]
	 SCS Opposite-Spin Scale   =       1.2000000000000000 [-]
	 SCS Same-Spin Energy      =      -0.1652061070483321 [Eh]
	 SCS Opposite-Spin Energy  =      -1.9982697144462196 [Eh]
	 SCS Correlation Energy    =      -2.1634758214945515 [Eh]
	 SCS Total Energy          =    -465.1644245396738597 [Eh]
	-----------------------------------------------------------

  Dipole Moment: [D]
     X:     0.0079      Y:    -0.6203      Z:    -0.2126     Total:     0.6557

*** Psi4 exiting successfully. Buy a developer a beer!
