                               Psi4 1.3.2 release

  ==> Input File <==

--------------------------------------------------------------------------
#psi4
#
memory 32 gb

molecule  {
0 1
  O        0.0723890     1.0222580     0.5077940
  C       -0.7418240    -1.0387750     0.1269710
  C        0.6883760    -1.0936210     0.0623120
  C       -1.0714850     0.2632460     0.3951280
  C        1.1347043     0.1890083     0.3011875
  C       -2.3562760     1.0018630     0.5198060
  C        2.4849120     0.8120840     0.3409220
  C       -1.6830070    -2.1819480    -0.0885940
  C        1.5125100    -2.3214750    -0.1762480
  C       -2.8486430     1.5569180    -0.8246800
  C        2.8130920     1.5744450    -0.9510270
  H        3.2405191     0.0369503     0.5191168
  H        2.5305840     1.4962520     1.1974230
  H       -2.2159340     1.8224920     1.2344330
  H       -3.1130010     0.3316860     0.9491040
  H       -1.4229750    -3.0387300     0.5441040
  H       -2.7119990    -1.8902510     0.1457090
  H       -1.6650160    -2.5262940    -1.1310850
  H        2.5139960    -2.0634500    -0.5387900
  H        1.6307130    -2.9166200     0.7385330
  H        1.0429930    -2.9642660    -0.9286680
  H        2.8128660     0.8932150    -1.8063400
  H        3.7971100     2.0487280    -0.8855010
  H        2.0638530     2.3513280    -1.1313670
  H       -2.0994070     2.2298930    -1.2537260
  H       -3.7828960     2.1123340    -0.7007770
  H       -3.0218850     0.7415120    -1.5334270
units angstrom
no_reorient  #important for SAPT in psi4, default
symmetry c1  #important for SAPT in psi4, default
}

set PROPERTIES_ORIGIN ["COM"]
properties('MP2/aug-cc-pvtz', properties = ['dipole'])
--------------------------------------------------------------------------

    Molecular point group: c1
  Charge       = 0
  Multiplicity = 1
  Basis Set: AUG-CC-PVTZ
    Blend: AUG-CC-PVTZ
  Basis Set: (AUG-CC-PVTZ AUX)
    Blend: AUG-CC-PVTZ-JKFIT

    Orbital Energies [Eh]
    ---------------------

    Doubly Occupied:

       1A    -20.600527     2A    -11.270414     3A    -11.269154
       4A    -11.230120     5A    -11.229946     6A    -11.223258
       7A    -11.222621     8A    -11.216326     9A    -11.215392
      10A    -11.215343    11A    -11.214607    12A     -1.434164
      13A     -1.098159    14A     -1.078930    15A     -1.036290
      16A     -0.989567    17A     -0.932069    18A     -0.928230
      19A     -0.869954    20A     -0.815298    21A     -0.751008
      22A     -0.721636    23A     -0.659337    24A     -0.628730
      25A     -0.610954    26A     -0.609803    27A     -0.587761
      28A     -0.583465    29A     -0.568067    30A     -0.555640
      31A     -0.549562    32A     -0.533359    33A     -0.528220
      34A     -0.525108    35A     -0.521066    36A     -0.505531
      37A     -0.495276    38A     -0.492127    39A     -0.484371
      40A     -0.465942    41A     -0.359988    42A     -0.277768

  @DF-RHF Final Energy:  -463.01182875488155

   => Energetics <=

    Nuclear Repulsion Energy =            629.6295860037811281
    One-Electron Energy =               -1877.0726552649971381
    Two-Electron Energy =                 784.4312405063343476
    Total Energy =                       -463.0118287548815488
  Basis Set: (AUG-CC-PVTZ AUX)
    Blend: AUG-CC-PVTZ-RI
    Molecular point group: c1

    Geometry (in Angstrom), charge = 0, multiplicity = 1:

       Center              X                  Y                   Z               Mass
    ------------   -----------------  -----------------  -----------------  -----------------
         O            0.072766630439     1.021296889867     0.507962649746    15.994914619570
         C           -0.741446369561    -1.039736110133     0.127139649746    12.000000000000
         C            0.688753630439    -1.094582110133     0.062480649746    12.000000000000
         C           -1.071107369561     0.262284889867     0.395296649746    12.000000000000
         C            1.135081930439     0.188047189867     0.301356149746    12.000000000000
         C           -2.355898369561     1.000901889867     0.519974649746    12.000000000000
         C            2.485289630439     0.811122889867     0.341090649746    12.000000000000
         C           -1.682629369561    -2.182909110133    -0.088425350254    12.000000000000
         C            1.512887630439    -2.322436110133    -0.176079350254    12.000000000000
         C           -2.848265369561     1.555956889867    -0.824511350254    12.000000000000
         C            2.813469630439     1.573483889867    -0.950858350254    12.000000000000
         H            3.240896730439     0.035989189867     0.519285449746     1.007825032230
         H            2.530961630439     1.495290889867     1.197591649746     1.007825032230
         H           -2.215556369561     1.821530889867     1.234601649746     1.007825032230
         H           -3.112623369561     0.330724889867     0.949272649746     1.007825032230
         H           -1.422597369561    -3.039691110133     0.544272649746     1.007825032230
         H           -2.711621369561    -1.891212110133     0.145877649746     1.007825032230
         H           -1.664638369561    -2.527255110133    -1.130916350254     1.007825032230
         H            2.514373630439    -2.064411110133    -0.538621350254     1.007825032230
         H            1.631090630439    -2.917581110133     0.738701649746     1.007825032230
         H            1.043370630439    -2.965227110133    -0.928499350254     1.007825032230
         H            2.813243630439     0.892253889867    -1.806171350254     1.007825032230
         H            3.797487630439     2.047766889867    -0.885332350254     1.007825032230
         H            2.064230630439     2.350366889867    -1.131198350254     1.007825032230
         H           -2.099029369561     2.228931889867    -1.253557350254     1.007825032230
         H           -3.782518369561     2.111372889867    -0.700608350254     1.007825032230
         H           -3.021507369561     0.740550889867    -1.533258350254     1.007825032230

  Basis Set: AUG-CC-PVTZ
    Blend: AUG-CC-PVTZ
  Basis Set: (AUG-CC-PVTZ AUX)
    Blend: AUG-CC-PVTZ-JKFIT
	 Reference Energy          =    -463.0118287548815488 [Eh]
	 Singles Energy            =      -0.0000000000000000 [Eh]
	 Same-Spin Energy          =      -0.4972223981817221 [Eh]
	 Opposite-Spin Energy      =      -1.6671119357238418 [Eh]
	 Correlation Energy        =      -2.1643343339055638 [Eh]
	 Total Energy              =    -465.1761630887871206 [Eh]

	 ================> DF-SCS-MP2 Energies <==================
	-----------------------------------------------------------
	 SCS Same-Spin Scale       =       0.3333333333333333 [-]
	 SCS Opposite-Spin Scale   =       1.2000000000000000 [-]
	 SCS Same-Spin Energy      =      -0.1657407993939073 [Eh]
	 SCS Opposite-Spin Energy  =      -2.0005343228686101 [Eh]
	 SCS Correlation Energy    =      -2.1662751222625176 [Eh]
	 SCS Total Energy          =    -465.1781038771440535 [Eh]
	-----------------------------------------------------------

  Dipole Moment: [D]
     X:    -0.0419      Y:    -0.6357      Z:    -0.2065     Total:     0.6697

*** Psi4 exiting successfully. Buy a developer a beer!
