                               Psi4 1.3.2 release

  ==> Input File <==

--------------------------------------------------------------------------
#psi4
#
memory 32 gb

molecule  {
0 1
  O        0.0723890     1.0222580     0.5077940
  C       -0.7418240    -1.0387750     0.1269710
  C        0.6883760    -1.0936210     0.0623120
  C       -1.1060990     0.2157634     0.3440434
  C        1.1400710     0.1773790     0.3033030
  C       -2.3562760     1.0018630     0.5198060
  C        2.4849120     0.8120840     0.3409220
  C       -1.6830070    -2.1819480    -0.0885940
  C        1.5125100    -2.3214750    -0.1762480
  C       -2.8486430     1.5569180    -0.8246800
  C        2.8130920     1.5744450    -0.9510270
  H        3.2336060     0.0303330     0.5193890
  H        2.5305840     1.4962520     1.1974230
  H       -2.2708469     1.8371389     1.2260890
  H       -3.1130010     0.3316860     0.9491040
  H       -1.4229750    -3.0387300     0.5441040
  H       -2.7119990    -1.8902510     0.1457090
  H       -1.6650160    -2.5262940    -1.1310850
  H        2.5139960    -2.0634500    -0.5387900
  H        1.6307130    -2.9166200     0.7385330
  H        1.0429930    -2.9642660    -0.9286680
  H        2.8128660     0.8932150    -1.8063400
  H        3.7971100     2.0487280    -0.8855010
  H        2.0638530     2.3513280    -1.1313670
  H       -2.0994070     2.2298930    -1.2537260
  H       -3.7828960     2.1123340    -0.7007770
  H       -3.0218850     0.7415120    -1.5334270
units angstrom
no_reorient  #important for SAPT in psi4, default
symmetry c1  #important for SAPT in psi4, default
}

set PROPERTIES_ORIGIN ["COM"]
properties('MP2/aug-cc-pvtz', properties = ['dipole'])
--------------------------------------------------------------------------

    Molecular point group: c1
  Charge       = 0
  Multiplicity = 1
  Basis Set: AUG-CC-PVTZ
    Blend: AUG-CC-PVTZ
  Basis Set: (AUG-CC-PVTZ AUX)
    Blend: AUG-CC-PVTZ-JKFIT

    Orbital Energies [Eh]
    ---------------------

    Doubly Occupied:

       1A    -20.588949     2A    -11.271646     3A    -11.266799
       4A    -11.231093     5A    -11.229912     6A    -11.224513
       7A    -11.222557     8A    -11.215731     9A    -11.214943
      10A    -11.214409    11A    -11.214012    12A     -1.407879
      13A     -1.104147    14A     -1.077678    15A     -1.036535
      16A     -0.993065    17A     -0.934717    18A     -0.923166
      19A     -0.869092    20A     -0.818216    21A     -0.740612
      22A     -0.723155    23A     -0.654675    24A     -0.622208
      25A     -0.613898    26A     -0.607397    27A     -0.586488
      28A     -0.583205    29A     -0.565374    30A     -0.556460
      31A     -0.550046    32A     -0.532766    33A     -0.525957
      34A     -0.521995    35A     -0.515833    36A     -0.503947
      37A     -0.496677    38A     -0.493298    39A     -0.477949
      40A     -0.473032    41A     -0.365928    42A     -0.284464

  @DF-RHF Final Energy:  -463.00595268920790

   => Energetics <=

    Nuclear Repulsion Energy =            629.3515169703463243
    One-Electron Energy =               -1876.6060880048339641
    Two-Electron Energy =                 784.2486183452796240
    Total Energy =                       -463.0059526892079020
  Basis Set: (AUG-CC-PVTZ AUX)
    Blend: AUG-CC-PVTZ-RI
    Molecular point group: c1

    Geometry (in Angstrom), charge = 0, multiplicity = 1:

       Center              X                  Y                   Z               Mass
    ------------   -----------------  -----------------  -----------------  -----------------
         O            0.075483413753     1.025906736286     0.511879055946    15.994914619570
         C           -0.738729586247    -1.035126263714     0.131056055946    12.000000000000
         C            0.691470413753    -1.089972263714     0.066397055946    12.000000000000
         C           -1.103004586247     0.219412136286     0.348128455946    12.000000000000
         C            1.143165413753     0.181027736286     0.307388055946    12.000000000000
         C           -2.353181586247     1.005511736286     0.523891055946    12.000000000000
         C            2.488006413753     0.815732736286     0.345007055946    12.000000000000
         C           -1.679912586247    -2.178299263714    -0.084508944054    12.000000000000
         C            1.515604413753    -2.317826263714    -0.172162944054    12.000000000000
         C           -2.845548586247     1.560566736286    -0.820594944054    12.000000000000
         C            2.816186413753     1.578093736286    -0.946941944054    12.000000000000
         H            3.236700413753     0.033981736286     0.523474055946     1.007825032230
         H            2.533678413753     1.499900736286     1.201508055946     1.007825032230
         H           -2.267752486247     1.840787636286     1.230174055946     1.007825032230
         H           -3.109906586247     0.335334736286     0.953189055946     1.007825032230
         H           -1.419880586247    -3.035081263714     0.548189055946     1.007825032230
         H           -2.708904586247    -1.886602263714     0.149794055946     1.007825032230
         H           -1.661921586247    -2.522645263714    -1.126999944054     1.007825032230
         H            2.517090413753    -2.059801263714    -0.534704944054     1.007825032230
         H            1.633807413753    -2.912971263714     0.742618055946     1.007825032230
         H            1.046087413753    -2.960617263714    -0.924582944054     1.007825032230
         H            2.815960413753     0.896863736286    -1.802254944054     1.007825032230
         H            3.800204413753     2.052376736286    -0.881415944054     1.007825032230
         H            2.066947413753     2.354976736286    -1.127281944054     1.007825032230
         H           -2.096312586247     2.233541736286    -1.249640944054     1.007825032230
         H           -3.779801586247     2.115982736286    -0.696691944054     1.007825032230
         H           -3.018790586247     0.745160736286    -1.529341944054     1.007825032230

  Basis Set: AUG-CC-PVTZ
    Blend: AUG-CC-PVTZ
  Basis Set: (AUG-CC-PVTZ AUX)
    Blend: AUG-CC-PVTZ-JKFIT
	 Reference Energy          =    -463.0059526892079020 [Eh]
	 Singles Energy            =      -0.0000000000000000 [Eh]
	 Same-Spin Energy          =      -0.4966101464047941 [Eh]
	 Opposite-Spin Energy      =      -1.6675187385951051 [Eh]
	 Correlation Energy        =      -2.1641288849998990 [Eh]
	 Total Energy              =    -465.1700815742078134 [Eh]

	 ================> DF-SCS-MP2 Energies <==================
	-----------------------------------------------------------
	 SCS Same-Spin Scale       =       0.3333333333333333 [-]
	 SCS Opposite-Spin Scale   =       1.2000000000000000 [-]
	 SCS Same-Spin Energy      =      -0.1655367154682647 [Eh]
	 SCS Opposite-Spin Energy  =      -2.0010224863141262 [Eh]
	 SCS Correlation Energy    =      -2.1665592017823907 [Eh]
	 SCS Total Energy          =    -465.1725118909902790 [Eh]
	-----------------------------------------------------------

  Dipole Moment: [D]
     X:    -0.1289      Y:    -0.7388      Z:    -0.2145     Total:     0.7801

*** Psi4 exiting successfully. Buy a developer a beer!
