                               Psi4 1.4a3.dev225

  ==> Input File <==

--------------------------------------------------------------------------
#psi4
#
memory 32 gb

molecule  {
0 1
  O        0.0000040    -0.9323440    -0.5200900
  C       -0.7186120     1.1388030    -0.0293360
  C        0.7186000     1.1388090    -0.0293300
  C       -1.1092540    -0.1401520    -0.3350070
  C        1.1253825    -0.1286251    -0.3323049
  C       -2.4197690    -0.8327410    -0.4659430
  C        2.4197760    -0.8327180    -0.4659420
  C       -1.5881550     2.3237520     0.2504950
  C        1.5881310     2.3237650     0.2505070
  C       -2.6404590    -1.8837440     0.6266770
  C        2.6404800    -1.8837320     0.6266650
  H        3.2127060    -0.0780420    -0.4310990
  H        2.4812700    -1.3082390    -1.4528680
  H       -2.4812630    -1.3082740    -1.4528630
  H       -3.2127060    -0.0780720    -0.4311050
  H       -1.4004860     3.1330380    -0.4637010
  H       -2.6480190     2.0627510     0.1871390
  H       -1.4034730     2.7248980     1.2531230
  H        2.6479980     2.0627640     0.1871950
  H        1.4004870     3.1330370    -0.4637120
  H        1.4034130     2.7249310     1.2531200
  H        2.6185650    -1.4170920     1.6153140
  H        3.6057420    -2.3837880     0.5012060
  H        1.8526560    -2.6398250     0.5898280
  H       -1.8526300    -2.6398320     0.5898440
  H       -3.6057190    -2.3838080     0.5012310
  H       -2.6185400    -1.4170920     1.6153210
units angstrom
no_reorient  #important for SAPT in psi4, default
symmetry c1  #important for SAPT in psi4, default
}

set PROPERTIES_ORIGIN ["COM"]
properties('MP2/aug-cc-pvtz', properties = ['dipole'])
--------------------------------------------------------------------------

    Molecular point group: c1
  Charge       = 0
  Multiplicity = 1
  Basis Set: AUG-CC-PVTZ
    Blend: AUG-CC-PVTZ
  Basis Set: (AUG-CC-PVTZ AUX)
    Blend: AUG-CC-PVTZ-JKFIT

    Orbital Energies [Eh]
    ---------------------

    Doubly Occupied:

       1A    -20.594248     2A    -11.271881     3A    -11.270331
       4A    -11.230069     5A    -11.229944     6A    -11.222681
       7A    -11.222411     8A    -11.218197     9A    -11.216331
      10A    -11.213586    11A    -11.213552    12A     -1.422704
      13A     -1.098204    14A     -1.079832    15A     -1.037349
      16A     -0.991614    17A     -0.932723    18A     -0.925641
      19A     -0.870918    20A     -0.816555    21A     -0.748559
      22A     -0.719390    23A     -0.658091    24A     -0.625772
      25A     -0.612611    26A     -0.610460    27A     -0.585964
      28A     -0.581084    29A     -0.568025    30A     -0.555976
      31A     -0.552134    32A     -0.532605    33A     -0.530900
      34A     -0.522264    35A     -0.517981    36A     -0.505354
      37A     -0.494384    38A     -0.491072    39A     -0.484016
      40A     -0.468981    41A     -0.361006    42A     -0.281172

  @DF-RHF Final Energy:  -463.01312797715866

   => Energetics <=

    Nuclear Repulsion Energy =            629.7810848261499359
    One-Electron Energy =               -1877.4152852732815973
    Two-Electron Energy =                 784.6210724699730008
    Total Energy =                       -463.0131279771586605
  Basis Set: (AUG-CC-PVTZ AUX)
    Blend: AUG-CC-PVTZ-RI
    Molecular point group: c1

    Geometry (in Angstrom), charge = 0, multiplicity = 1:

       Center              X                  Y                   Z               Mass
    ------------   -----------------  -----------------  -----------------  -----------------
         O           -0.001268093354    -0.932061730840    -0.496852476898    15.994914619570
         C           -0.719884093354     1.139085269160    -0.006098476898    12.000000000000
         C            0.717327906646     1.139091269160    -0.006092476898    12.000000000000
         C           -1.110526093354    -0.139869730840    -0.311769476898    12.000000000000
         C            1.124110406646    -0.128342830840    -0.309067376898    12.000000000000
         C           -2.421041093354    -0.832458730840    -0.442705476898    12.000000000000
         C            2.418503906646    -0.832435730840    -0.442704476898    12.000000000000
         C           -1.589427093354     2.324034269160     0.273732523102    12.000000000000
         C            1.586858906646     2.324047269160     0.273744523102    12.000000000000
         C           -2.641731093354    -1.883461730840     0.649914523102    12.000000000000
         C            2.639207906646    -1.883449730840     0.649902523102    12.000000000000
         H            3.211433906646    -0.077759730840    -0.407861476898     1.007825032230
         H            2.479997906646    -1.307956730840    -1.429630476898     1.007825032230
         H           -2.482535093354    -1.307991730840    -1.429625476898     1.007825032230
         H           -3.213978093354    -0.077789730840    -0.407867476898     1.007825032230
         H           -1.401758093354     3.133320269160    -0.440463476898     1.007825032230
         H           -2.649291093354     2.063033269160     0.210376523102     1.007825032230
         H           -1.404745093354     2.725180269160     1.276360523102     1.007825032230
         H            2.646725906646     2.063046269160     0.210432523102     1.007825032230
         H            1.399214906646     3.133319269160    -0.440474476898     1.007825032230
         H            1.402140906646     2.725213269160     1.276357523102     1.007825032230
         H            2.617292906646    -1.416809730840     1.638551523102     1.007825032230
         H            3.604469906646    -2.383505730840     0.524443523102     1.007825032230
         H            1.851383906646    -2.639542730840     0.613065523102     1.007825032230
         H           -1.853902093354    -2.639549730840     0.613081523102     1.007825032230
         H           -3.606991093354    -2.383525730840     0.524468523102     1.007825032230
         H           -2.619812093354    -1.416809730840     1.638558523102     1.007825032230

  Basis Set: AUG-CC-PVTZ
    Blend: AUG-CC-PVTZ
  Basis Set: (AUG-CC-PVTZ AUX)
    Blend: AUG-CC-PVTZ-JKFIT
	 Reference Energy          =    -463.0131279771586605 [Eh]
	 Singles Energy            =      -0.0000000000000000 [Eh]
	 Same-Spin Energy          =      -0.4969161846816746 [Eh]
	 Opposite-Spin Energy      =      -1.6670389719718544 [Eh]
	 Correlation Energy        =      -2.1639551566535289 [Eh]
	 Total Energy              =    -465.1770831338121752 [Eh]

	 ================> DF-SCS-MP2 Energies <==================
	-----------------------------------------------------------
	 SCS Same-Spin Scale       =       0.3333333333333333 [-]
	 SCS Opposite-Spin Scale   =       1.2000000000000000 [-]
	 SCS Same-Spin Energy      =      -0.1656387282272249 [Eh]
	 SCS Opposite-Spin Energy  =      -2.0004467663662253 [Eh]
	 SCS Correlation Energy    =      -2.1660854945934500 [Eh]
	 SCS Total Energy          =    -465.1792134717521208 [Eh]
	-----------------------------------------------------------

  Dipole Moment: [D]
     X:     0.0310      Y:     0.6582      Z:     0.2337     Total:     0.6991

*** Psi4 exiting successfully. Buy a developer a beer!
