                               Psi4 1.3.2 release

  ==> Input File <==

--------------------------------------------------------------------------
#psi4
#
memory 32 gb

molecule  {
0 1
  O        0.0723890     1.0222580     0.5077940
  C       -0.7418240    -1.0387750     0.1269710
  C        0.6883760    -1.0936210     0.0623120
  C       -1.0714850     0.2632460     0.3951280
  C        1.1849429     0.1611592     0.2999966
  C       -2.3562760     1.0018630     0.5198060
  C        2.4849120     0.8120840     0.3409220
  C       -1.6830070    -2.1819480    -0.0885940
  C        1.5556601    -2.2924400    -0.1708925
  C       -2.8486430     1.5569180    -0.8246800
  C        2.8130920     1.5744450    -0.9510270
  H        3.2336060     0.0303330     0.5193890
  H        2.5305840     1.4962520     1.1974230
  H       -2.2159340     1.8224920     1.2344330
  H       -3.1130010     0.3316860     0.9491040
  H       -1.4229750    -3.0387300     0.5441040
  H       -2.7119990    -1.8902510     0.1457090
  H       -1.6650160    -2.5262940    -1.1310850
  H        2.5139960    -2.0634500    -0.5387900
  H        1.6307130    -2.9166200     0.7385330
  H        1.0429930    -2.9642660    -0.9286680
  H        2.8128660     0.8932150    -1.8063400
  H        3.7971100     2.0487280    -0.8855010
  H        2.0638530     2.3513280    -1.1313670
  H       -2.0994070     2.2298930    -1.2537260
  H       -3.7828960     2.1123340    -0.7007770
  H       -3.0218850     0.7415120    -1.5334270
units angstrom
no_reorient  #important for SAPT in psi4, default
symmetry c1  #important for SAPT in psi4, default
}

set PROPERTIES_ORIGIN ["COM"]
properties('MP2/aug-cc-pvtz', properties = ['dipole'])
--------------------------------------------------------------------------

    Molecular point group: c1
  Charge       = 0
  Multiplicity = 1
  Basis Set: AUG-CC-PVTZ
    Blend: AUG-CC-PVTZ
  Basis Set: (AUG-CC-PVTZ AUX)
    Blend: AUG-CC-PVTZ-JKFIT

    Orbital Energies [Eh]
    ---------------------

    Doubly Occupied:

       1A    -20.591370     2A    -11.272126     3A    -11.268368
       4A    -11.230555     5A    -11.229523     6A    -11.223318
       7A    -11.223052     8A    -11.219981     9A    -11.215971
      10A    -11.215310    11A    -11.215301    12A     -1.411595
      13A     -1.098130    14A     -1.081792    15A     -1.038619
      16A     -0.991957    17A     -0.930165    18A     -0.925620
      19A     -0.873340    20A     -0.816712    21A     -0.741426
      22A     -0.723189    23A     -0.655065    24A     -0.620688
      25A     -0.614098    26A     -0.610557    27A     -0.589377
      28A     -0.583606    29A     -0.564169    30A     -0.558945
      31A     -0.548865    32A     -0.534864    33A     -0.525641
      34A     -0.521536    35A     -0.514508    36A     -0.503907
      37A     -0.496611    38A     -0.495855    39A     -0.482596
      40A     -0.471973    41A     -0.359879    42A     -0.279154

  @DF-RHF Final Energy:  -463.00448671184284

   => Energetics <=

    Nuclear Repulsion Energy =            629.0641532684861659
    One-Electron Energy =               -1875.9986539967969748
    Two-Electron Energy =                 783.9300140164680215
    Total Energy =                       -463.0044867118429011
  Basis Set: (AUG-CC-PVTZ AUX)
    Blend: AUG-CC-PVTZ-RI
    Molecular point group: c1

    Geometry (in Angstrom), charge = 0, multiplicity = 1:

       Center              X                  Y                   Z               Mass
    ------------   -----------------  -----------------  -----------------  -----------------
         O            0.065445460561     1.021247180994     0.507632321768    15.994914619570
         C           -0.748767539439    -1.039785819006     0.126809321768    12.000000000000
         C            0.681432460561    -1.094631819006     0.062150321768    12.000000000000
         C           -1.078428539439     0.262235180994     0.394966321768    12.000000000000
         C            1.177999360561     0.160148380994     0.299834921768    12.000000000000
         C           -2.363219539439     1.000852180994     0.519644321768    12.000000000000
         C            2.477968460561     0.811073180994     0.340760321768    12.000000000000
         C           -1.689950539439    -2.182958819006    -0.088755678232    12.000000000000
         C            1.548716560561    -2.293450819006    -0.171054178232    12.000000000000
         C           -2.855586539439     1.555907180994    -0.824841678232    12.000000000000
         C            2.806148460561     1.573434180994    -0.951188678232    12.000000000000
         H            3.226662460561     0.029322180994     0.519227321768     1.007825032230
         H            2.523640460561     1.495241180994     1.197261321768     1.007825032230
         H           -2.222877539439     1.821481180994     1.234271321768     1.007825032230
         H           -3.119944539439     0.330675180994     0.948942321768     1.007825032230
         H           -1.429918539439    -3.039740819006     0.543942321768     1.007825032230
         H           -2.718942539439    -1.891261819006     0.145547321768     1.007825032230
         H           -1.671959539439    -2.527304819006    -1.131246678232     1.007825032230
         H            2.507052460561    -2.064460819006    -0.538951678232     1.007825032230
         H            1.623769460561    -2.917630819006     0.738371321768     1.007825032230
         H            1.036049460561    -2.965276819006    -0.928829678232     1.007825032230
         H            2.805922460561     0.892204180994    -1.806501678232     1.007825032230
         H            3.790166460561     2.047717180994    -0.885662678232     1.007825032230
         H            2.056909460561     2.350317180994    -1.131528678232     1.007825032230
         H           -2.106350539439     2.228882180994    -1.253887678232     1.007825032230
         H           -3.789839539439     2.111323180994    -0.700938678232     1.007825032230
         H           -3.028828539439     0.740501180994    -1.533588678232     1.007825032230

  Basis Set: AUG-CC-PVTZ
    Blend: AUG-CC-PVTZ
  Basis Set: (AUG-CC-PVTZ AUX)
    Blend: AUG-CC-PVTZ-JKFIT
	 Reference Energy          =    -463.0044867118428442 [Eh]
	 Singles Energy            =      -0.0000000000000000 [Eh]
	 Same-Spin Energy          =      -0.4977004862072530 [Eh]
	 Opposite-Spin Energy      =      -1.6686103860056445 [Eh]
	 Correlation Energy        =      -2.1663108722128976 [Eh]
	 Total Energy              =    -465.1707975840557197 [Eh]

	 ================> DF-SCS-MP2 Energies <==================
	-----------------------------------------------------------
	 SCS Same-Spin Scale       =       0.3333333333333333 [-]
	 SCS Opposite-Spin Scale   =       1.2000000000000000 [-]
	 SCS Same-Spin Energy      =      -0.1659001620690843 [Eh]
	 SCS Opposite-Spin Energy  =      -2.0023324632067734 [Eh]
	 SCS Correlation Energy    =      -2.1682326252758575 [Eh]
	 SCS Total Energy          =    -465.1727193371186786 [Eh]
	-----------------------------------------------------------

  Dipole Moment: [D]
     X:     0.0498      Y:    -0.6518      Z:    -0.2288     Total:     0.6926

*** Psi4 exiting successfully. Buy a developer a beer!
