                               Psi4 1.3.2 release

  ==> Input File <==

--------------------------------------------------------------------------
#psi4
#
memory 32 gb

molecule  {
0 1
  O        0.0427405     0.9850052     0.5012619
  C       -0.7418240    -1.0387750     0.1269710
  C        0.6435291    -1.0776669     0.0669728
  C       -1.0714850     0.2632460     0.3951280
  C        1.1400710     0.1773790     0.3033030
  C       -2.3562760     1.0018630     0.5198060
  C        2.4849120     0.8120840     0.3409220
  C       -1.6830070    -2.1819480    -0.0885940
  C        1.5125100    -2.3214750    -0.1762480
  C       -2.8486430     1.5569180    -0.8246800
  C        2.8130920     1.5744450    -0.9510270
  H        3.2336060     0.0303330     0.5193890
  H        2.5305840     1.4962520     1.1974230
  H       -2.2159340     1.8224920     1.2344330
  H       -3.1130010     0.3316860     0.9491040
  H       -1.4229750    -3.0387300     0.5441040
  H       -2.7119990    -1.8902510     0.1457090
  H       -1.6650160    -2.5262940    -1.1310850
  H        2.5139960    -2.0634500    -0.5387900
  H        1.6307130    -2.9166200     0.7385330
  H        1.0429930    -2.9642660    -0.9286680
  H        2.8128660     0.8932150    -1.8063400
  H        3.7971100     2.0487280    -0.8855010
  H        2.0638530     2.3513280    -1.1313670
  H       -2.0994070     2.2298930    -1.2537260
  H       -3.7828960     2.1123340    -0.7007770
  H       -3.0218850     0.7415120    -1.5334270
units angstrom
no_reorient  #important for SAPT in psi4, default
symmetry c1  #important for SAPT in psi4, default
}

set PROPERTIES_ORIGIN ["COM"]
properties('MP2/aug-cc-pvtz', properties = ['dipole'])
--------------------------------------------------------------------------

    Molecular point group: c1
  Charge       = 0
  Multiplicity = 1
  Basis Set: AUG-CC-PVTZ
    Blend: AUG-CC-PVTZ
  Basis Set: (AUG-CC-PVTZ AUX)
    Blend: AUG-CC-PVTZ-JKFIT

    Orbital Energies [Eh]
    ---------------------

    Doubly Occupied:

       1A    -20.599769     2A    -11.267288     3A    -11.265779
       4A    -11.232704     5A    -11.229939     6A    -11.222926
       7A    -11.221042     8A    -11.216034     9A    -11.215346
      10A    -11.213784    11A    -11.206516    12A     -1.447158
      13A     -1.100355    14A     -1.080580    15A     -1.037773
      16A     -0.985541    17A     -0.930932    18A     -0.930625
      19A     -0.871961    20A     -0.818775    21A     -0.753212
      22A     -0.727404    23A     -0.662786    24A     -0.633443
      25A     -0.610962    26A     -0.609840    27A     -0.590621
      28A     -0.581763    29A     -0.566403    30A     -0.552637
      31A     -0.546268    32A     -0.535518    33A     -0.527720
      34A     -0.522016    35A     -0.514319    36A     -0.505967
      37A     -0.496585    38A     -0.493014    39A     -0.483840
      40A     -0.471317    41A     -0.363666    42A     -0.275951

  @DF-RHF Final Energy:  -463.00893076123731

   => Energetics <=

    Nuclear Repulsion Energy =            631.2777248684457163
    One-Electron Energy =               -1880.3331520628337330
    Two-Electron Energy =                 786.0464964331505371
    Total Energy =                       -463.0089307612373659
  Basis Set: (AUG-CC-PVTZ AUX)
    Blend: AUG-CC-PVTZ-RI
    Molecular point group: c1

    Geometry (in Angstrom), charge = 0, multiplicity = 1:

       Center              X                  Y                   Z               Mass
    ------------   -----------------  -----------------  -----------------  -----------------
         O            0.049395767164     0.987663774452     0.501581025912    15.994914619570
         C           -0.735168732836    -1.036116425548     0.127290125912    12.000000000000
         C            0.650184367164    -1.075008325548     0.067291925912    12.000000000000
         C           -1.064829732836     0.265904574452     0.395447125912    12.000000000000
         C            1.146726267164     0.180037574452     0.303622125912    12.000000000000
         C           -2.349620732836     1.004521574452     0.520125125912    12.000000000000
         C            2.491567267164     0.814742574452     0.341241125912    12.000000000000
         C           -1.676351732836    -2.179289425548    -0.088274874088    12.000000000000
         C            1.519165267164    -2.318816425548    -0.175928874088    12.000000000000
         C           -2.841987732836     1.559576574452    -0.824360874088    12.000000000000
         C            2.819747267164     1.577103574452    -0.950707874088    12.000000000000
         H            3.240261267164     0.032991574452     0.519708125912     1.007825032230
         H            2.537239267164     1.498910574452     1.197742125912     1.007825032230
         H           -2.209278732836     1.825150574452     1.234752125912     1.007825032230
         H           -3.106345732836     0.334344574452     0.949423125912     1.007825032230
         H           -1.416319732836    -3.036071425548     0.544423125912     1.007825032230
         H           -2.705343732836    -1.887592425548     0.146028125912     1.007825032230
         H           -1.658360732836    -2.523635425548    -1.130765874088     1.007825032230
         H            2.520651267164    -2.060791425548    -0.538470874088     1.007825032230
         H            1.637368267164    -2.913961425548     0.738852125912     1.007825032230
         H            1.049648267164    -2.961607425548    -0.928348874088     1.007825032230
         H            2.819521267164     0.895873574452    -1.806020874088     1.007825032230
         H            3.803765267164     2.051386574452    -0.885181874088     1.007825032230
         H            2.070508267164     2.353986574452    -1.131047874088     1.007825032230
         H           -2.092751732836     2.232551574452    -1.253406874088     1.007825032230
         H           -3.776240732836     2.114992574452    -0.700457874088     1.007825032230
         H           -3.015229732836     0.744170574452    -1.533107874088     1.007825032230

  Basis Set: AUG-CC-PVTZ
    Blend: AUG-CC-PVTZ
  Basis Set: (AUG-CC-PVTZ AUX)
    Blend: AUG-CC-PVTZ-JKFIT
	 Reference Energy          =    -463.0089307612373091 [Eh]
	 Singles Energy            =      -0.0000000000000000 [Eh]
	 Same-Spin Energy          =      -0.4975453851314446 [Eh]
	 Opposite-Spin Energy      =      -1.6662204340289390 [Eh]
	 Correlation Energy        =      -2.1637658191603837 [Eh]
	 Total Energy              =    -465.1726965803977123 [Eh]

	 ================> DF-SCS-MP2 Energies <==================
	-----------------------------------------------------------
	 SCS Same-Spin Scale       =       0.3333333333333333 [-]
	 SCS Opposite-Spin Scale   =       1.2000000000000000 [-]
	 SCS Same-Spin Energy      =      -0.1658484617104815 [Eh]
	 SCS Opposite-Spin Energy  =      -1.9994645208347268 [Eh]
	 SCS Correlation Energy    =      -2.1653129825452084 [Eh]
	 SCS Total Energy          =    -465.1742437437825402 [Eh]
	-----------------------------------------------------------

  Dipole Moment: [D]
     X:     0.0519      Y:    -0.4651      Z:    -0.1849     Total:     0.5032

*** Psi4 exiting successfully. Buy a developer a beer!
