                               Psi4 1.3.2 release

  ==> Input File <==

--------------------------------------------------------------------------
#psi4
#
memory 32 gb

molecule  {
0 1
  O        0.0790305     1.0124731     0.5056427
  C       -0.7302423    -1.0358297     0.1271748
  C        0.6883760    -1.0936210     0.0623120
  C       -1.0714850     0.2632460     0.3951280
  C        1.1400710     0.1773790     0.3033030
  C       -2.3562760     1.0018630     0.5198060
  C        2.4849120     0.8120840     0.3409220
  C       -1.6830070    -2.1819480    -0.0885940
  C        1.5125100    -2.3214750    -0.1762480
  C       -2.8486430     1.5569180    -0.8246800
  C        2.8130920     1.5744450    -0.9510270
  H        3.2336060     0.0303330     0.5193890
  H        2.5305840     1.4962520     1.1974230
  H       -2.2159340     1.8224920     1.2344330
  H       -3.1130010     0.3316860     0.9491040
  H       -1.4229750    -3.0387300     0.5441040
  H       -2.7119990    -1.8902510     0.1457090
  H       -1.6650160    -2.5262940    -1.1310850
  H        2.5139960    -2.0634500    -0.5387900
  H        1.6307130    -2.9166200     0.7385330
  H        1.0429930    -2.9642660    -0.9286680
  H        2.8128660     0.8932150    -1.8063400
  H        3.7971100     2.0487280    -0.8855010
  H        2.0638530     2.3513280    -1.1313670
  H       -2.0994070     2.2298930    -1.2537260
  H       -3.7828960     2.1123340    -0.7007770
  H       -3.0218850     0.7415120    -1.5334270
units angstrom
no_reorient  #important for SAPT in psi4, default
symmetry c1  #important for SAPT in psi4, default
}

set PROPERTIES_ORIGIN ["COM"]
properties('MP2/aug-cc-pvtz', properties = ['dipole'])
--------------------------------------------------------------------------

    Molecular point group: c1
  Charge       = 0
  Multiplicity = 1
  Basis Set: AUG-CC-PVTZ
    Blend: AUG-CC-PVTZ
  Basis Set: (AUG-CC-PVTZ AUX)
    Blend: AUG-CC-PVTZ-JKFIT

    Orbital Energies [Eh]
    ---------------------

    Doubly Occupied:

       1A    -20.598899     2A    -11.268822     3A    -11.268729
       4A    -11.230839     5A    -11.229898     6A    -11.223261
       7A    -11.222336     8A    -11.215653     9A    -11.215140
      10A    -11.214783    11A    -11.213549    12A     -1.433860
      13A     -1.099044    14A     -1.079250    15A     -1.036583
      16A     -0.988870    17A     -0.931994    18A     -0.928344
      19A     -0.870602    20A     -0.816259    21A     -0.750494
      22A     -0.723087    23A     -0.659145    24A     -0.628719
      25A     -0.610910    26A     -0.609794    27A     -0.587562
      28A     -0.583351    29A     -0.567418    30A     -0.555071
      31A     -0.548767    32A     -0.533829    33A     -0.527395
      34A     -0.522929    35A     -0.520469    36A     -0.505584
      37A     -0.495617    38A     -0.492566    39A     -0.484193
      40A     -0.468562    41A     -0.361374    42A     -0.278200

  @DF-RHF Final Energy:  -463.01218140826478

   => Energetics <=

    Nuclear Repulsion Energy =            629.9910778827834292
    One-Electron Energy =               -1877.8030179326308371
    Two-Electron Energy =                 784.7997586415826845
    Total Energy =                       -463.0121814082647234
  Basis Set: (AUG-CC-PVTZ AUX)
    Blend: AUG-CC-PVTZ-RI
    Molecular point group: c1

    Geometry (in Angstrom), charge = 0, multiplicity = 1:

       Center              X                  Y                   Z               Mass
    ------------   -----------------  -----------------  -----------------  -----------------
         O            0.077418624778     1.013269717439     0.505852790221    15.994914619570
         C           -0.731854175222    -1.035033082561     0.127384890221    12.000000000000
         C            0.686764124778    -1.092824382561     0.062522090221    12.000000000000
         C           -1.073096875222     0.264042617439     0.395338090221    12.000000000000
         C            1.138459124778     0.178175617439     0.303513090221    12.000000000000
         C           -2.357887875222     1.002659617439     0.520016090221    12.000000000000
         C            2.483300124778     0.812880617439     0.341132090221    12.000000000000
         C           -1.684618875222    -2.181151382561    -0.088383909779    12.000000000000
         C            1.510898124778    -2.320678382561    -0.176037909779    12.000000000000
         C           -2.850254875222     1.557714617439    -0.824469909779    12.000000000000
         C            2.811480124778     1.575241617439    -0.950816909779    12.000000000000
         H            3.231994124778     0.031129617439     0.519599090221     1.007825032230
         H            2.528972124778     1.497048617439     1.197633090221     1.007825032230
         H           -2.217545875222     1.823288617439     1.234643090221     1.007825032230
         H           -3.114612875222     0.332482617439     0.949314090221     1.007825032230
         H           -1.424586875222    -3.037933382561     0.544314090221     1.007825032230
         H           -2.713610875222    -1.889454382561     0.145919090221     1.007825032230
         H           -1.666627875222    -2.525497382561    -1.130874909779     1.007825032230
         H            2.512384124778    -2.062653382561    -0.538579909779     1.007825032230
         H            1.629101124778    -2.915823382561     0.738743090221     1.007825032230
         H            1.041381124778    -2.963469382561    -0.928457909779     1.007825032230
         H            2.811254124778     0.894011617439    -1.806129909779     1.007825032230
         H            3.795498124778     2.049524617439    -0.885290909779     1.007825032230
         H            2.062241124778     2.352124617439    -1.131156909779     1.007825032230
         H           -2.101018875222     2.230689617439    -1.253515909779     1.007825032230
         H           -3.784507875222     2.113130617439    -0.700566909779     1.007825032230
         H           -3.023496875222     0.742308617439    -1.533216909779     1.007825032230

  Basis Set: AUG-CC-PVTZ
    Blend: AUG-CC-PVTZ
  Basis Set: (AUG-CC-PVTZ AUX)
    Blend: AUG-CC-PVTZ-JKFIT
	 Reference Energy          =    -463.0121814082647802 [Eh]
	 Singles Energy            =      -0.0000000000000000 [Eh]
	 Same-Spin Energy          =      -0.4971905930613038 [Eh]
	 Opposite-Spin Energy      =      -1.6668596980982413 [Eh]
	 Correlation Energy        =      -2.1640502911595449 [Eh]
	 Total Energy              =    -465.1762316994243065 [Eh]

	 ================> DF-SCS-MP2 Energies <==================
	-----------------------------------------------------------
	 SCS Same-Spin Scale       =       0.3333333333333333 [-]
	 SCS Opposite-Spin Scale   =       1.2000000000000000 [-]
	 SCS Same-Spin Energy      =      -0.1657301976871013 [Eh]
	 SCS Opposite-Spin Energy  =      -2.0002316377178895 [Eh]
	 SCS Correlation Energy    =      -2.1659618354049908 [Eh]
	 SCS Total Energy          =    -465.1781432436697514 [Eh]
	-----------------------------------------------------------

  Dipole Moment: [D]
     X:    -0.0500      Y:    -0.6067      Z:    -0.2071     Total:     0.6430

*** Psi4 exiting successfully. Buy a developer a beer!
