                               Psi4 1.4a3.dev225

  ==> Input File <==

--------------------------------------------------------------------------
#psi4
#
memory 32 gb

molecule  {
0 1
  O        0.0000040    -0.9323440    -0.5200900
  C       -0.7186120     1.1388030    -0.0293360
  C        0.7386000     1.1388091    -0.0293299
  C       -1.1092540    -0.1401520    -0.3350070
  C        1.1092550    -0.1401430    -0.3349960
  C       -2.4197690    -0.8327410    -0.4659430
  C        2.4197760    -0.8327180    -0.4659420
  C       -1.5881550     2.3237520     0.2504950
  C        1.5881310     2.3237650     0.2505070
  C       -2.6404590    -1.8837440     0.6266770
  C        2.6404800    -1.8837320     0.6266650
  H        3.2127060    -0.0780420    -0.4310990
  H        2.4812700    -1.3082390    -1.4528680
  H       -2.4812630    -1.3082740    -1.4528630
  H       -3.2127060    -0.0780720    -0.4311050
  H       -1.4004860     3.1330380    -0.4637010
  H       -2.6480190     2.0627510     0.1871390
  H       -1.4034730     2.7248980     1.2531230
  H        2.6479980     2.0627640     0.1871950
  H        1.4004870     3.1330370    -0.4637120
  H        1.4034130     2.7249310     1.2531200
  H        2.6185650    -1.4170920     1.6153140
  H        3.6057420    -2.3837880     0.5012060
  H        1.8526560    -2.6398250     0.5898280
  H       -1.8526300    -2.6398320     0.5898440
  H       -3.6057190    -2.3838080     0.5012310
  H       -2.6185400    -1.4170920     1.6153210
units angstrom
no_reorient  #important for SAPT in psi4, default
symmetry c1  #important for SAPT in psi4, default
}

set PROPERTIES_ORIGIN ["COM"]
properties('MP2/aug-cc-pvtz', properties = ['dipole'])
--------------------------------------------------------------------------

    Molecular point group: c1
  Charge       = 0
  Multiplicity = 1
  Basis Set: AUG-CC-PVTZ
    Blend: AUG-CC-PVTZ
  Basis Set: (AUG-CC-PVTZ AUX)
    Blend: AUG-CC-PVTZ-JKFIT

    Orbital Energies [Eh]
    ---------------------

    Doubly Occupied:

       1A    -20.596909     2A    -11.271129     3A    -11.271047
       4A    -11.230080     5A    -11.229509     6A    -11.222388
       7A    -11.222297     8A    -11.218413     9A    -11.217214
      10A    -11.213538    11A    -11.213339    12A     -1.430314
      13A     -1.096372    14A     -1.079777    15A     -1.036528
      16A     -0.992331    17A     -0.932911    18A     -0.926999
      19A     -0.869571    20A     -0.816425    21A     -0.752578
      22A     -0.716200    23A     -0.659733    24A     -0.628316
      25A     -0.611882    26A     -0.610629    27A     -0.585798
      28A     -0.582067    29A     -0.569106    30A     -0.556667
      31A     -0.552714    32A     -0.533072    33A     -0.531835
      34A     -0.525097    35A     -0.518394    36A     -0.505877
      37A     -0.493352    38A     -0.490873    39A     -0.484818
      40A     -0.463714    41A     -0.358337    42A     -0.282119

  @DF-RHF Final Energy:  -463.01417812457879

   => Energetics <=

    Nuclear Repulsion Energy =            629.8321392330047956
    One-Electron Energy =               -1877.4920896277797056
    Two-Electron Energy =                 784.6457722701961757
    Total Energy =                       -463.0141781245788479
  Basis Set: (AUG-CC-PVTZ AUX)
    Blend: AUG-CC-PVTZ-RI
    Molecular point group: c1

    Geometry (in Angstrom), charge = 0, multiplicity = 1:

       Center              X                  Y                   Z               Mass
    ------------   -----------------  -----------------  -----------------  -----------------
         O           -0.001573575637    -0.931153148830    -0.496640197279    15.994914619570
         C           -0.720189575637     1.139993851170    -0.005886197279    12.000000000000
         C            0.737022424363     1.139999951170    -0.005880097279    12.000000000000
         C           -1.110831575637    -0.138961148830    -0.311557197279    12.000000000000
         C            1.107677424363    -0.138952148830    -0.311546197279    12.000000000000
         C           -2.421346575637    -0.831550148830    -0.442493197279    12.000000000000
         C            2.418198424363    -0.831527148830    -0.442492197279    12.000000000000
         C           -1.589732575637     2.324942851170     0.273944802721    12.000000000000
         C            1.586553424363     2.324955851170     0.273956802721    12.000000000000
         C           -2.642036575637    -1.882553148830     0.650126802721    12.000000000000
         C            2.638902424363    -1.882541148830     0.650114802721    12.000000000000
         H            3.211128424363    -0.076851148830    -0.407649197279     1.007825032230
         H            2.479692424363    -1.307048148830    -1.429418197279     1.007825032230
         H           -2.482840575637    -1.307083148830    -1.429413197279     1.007825032230
         H           -3.214283575637    -0.076881148830    -0.407655197279     1.007825032230
         H           -1.402063575637     3.134228851170    -0.440251197279     1.007825032230
         H           -2.649596575637     2.063941851170     0.210588802721     1.007825032230
         H           -1.405050575637     2.726088851170     1.276572802721     1.007825032230
         H            2.646420424363     2.063954851170     0.210644802721     1.007825032230
         H            1.398909424363     3.134227851170    -0.440262197279     1.007825032230
         H            1.401835424363     2.726121851170     1.276569802721     1.007825032230
         H            2.616987424363    -1.415901148830     1.638763802721     1.007825032230
         H            3.604164424363    -2.382597148830     0.524655802721     1.007825032230
         H            1.851078424363    -2.638634148830     0.613277802721     1.007825032230
         H           -1.854207575637    -2.638641148830     0.613293802721     1.007825032230
         H           -3.607296575637    -2.382617148830     0.524680802721     1.007825032230
         H           -2.620117575637    -1.415901148830     1.638770802721     1.007825032230

  Basis Set: AUG-CC-PVTZ
    Blend: AUG-CC-PVTZ
  Basis Set: (AUG-CC-PVTZ AUX)
    Blend: AUG-CC-PVTZ-JKFIT
	 Reference Energy          =    -463.0141781245787911 [Eh]
	 Singles Energy            =      -0.0000000000000000 [Eh]
	 Same-Spin Energy          =      -0.4965549185850697 [Eh]
	 Opposite-Spin Energy      =      -1.6663874153966227 [Eh]
	 Correlation Energy        =      -2.1629423339816922 [Eh]
	 Total Energy              =    -465.1771204585604664 [Eh]

	 ================> DF-SCS-MP2 Energies <==================
	-----------------------------------------------------------
	 SCS Same-Spin Scale       =       0.3333333333333333 [-]
	 SCS Opposite-Spin Scale   =       1.2000000000000000 [-]
	 SCS Same-Spin Energy      =      -0.1655183061950232 [Eh]
	 SCS Opposite-Spin Energy  =      -1.9996648984759471 [Eh]
	 SCS Correlation Energy    =      -2.1651832046709703 [Eh]
	 SCS Total Energy          =    -465.1793613292497866 [Eh]
	-----------------------------------------------------------

  Dipole Moment: [D]
     X:    -0.0003      Y:     0.6535      Z:     0.2285     Total:     0.6923

*** Psi4 exiting successfully. Buy a developer a beer!
