                               Psi4 1.3.2 release

  ==> Input File <==

--------------------------------------------------------------------------
#psi4
#
memory 32 gb

molecule  {
0 1
  O        0.0723890     1.0222580     0.5077940
  C       -0.7418240    -1.0387750     0.1269710
  C        0.6851540    -1.1423961     0.0517548
  C       -1.0714850     0.2632460     0.3951280
  C        1.1400710     0.1773790     0.3033030
  C       -2.3562760     1.0018630     0.5198060
  C        2.4849120     0.8120840     0.3409220
  C       -1.6418778    -2.2130477    -0.0969153
  C        1.5125100    -2.3214750    -0.1762480
  C       -2.8486430     1.5569180    -0.8246800
  C        2.8130920     1.5744450    -0.9510270
  H        3.2336060     0.0303330     0.5193890
  H        2.5305840     1.4962520     1.1974230
  H       -2.2159340     1.8224920     1.2344330
  H       -3.1130010     0.3316860     0.9491040
  H       -1.4229750    -3.0387300     0.5441040
  H       -2.7119990    -1.8902510     0.1457090
  H       -1.6650160    -2.5262940    -1.1310850
  H        2.5139960    -2.0634500    -0.5387900
  H        1.6307130    -2.9166200     0.7385330
  H        1.0429930    -2.9642660    -0.9286680
  H        2.8128660     0.8932150    -1.8063400
  H        3.7971100     2.0487280    -0.8855010
  H        2.0638530     2.3513280    -1.1313670
  H       -2.0994070     2.2298930    -1.2537260
  H       -3.7828960     2.1123340    -0.7007770
  H       -3.0218850     0.7415120    -1.5334270
units angstrom
no_reorient  #important for SAPT in psi4, default
symmetry c1  #important for SAPT in psi4, default
}

set PROPERTIES_ORIGIN ["COM"]
properties('MP2/aug-cc-pvtz', properties = ['dipole'])
--------------------------------------------------------------------------

    Molecular point group: c1
  Charge       = 0
  Multiplicity = 1
  Basis Set: AUG-CC-PVTZ
    Blend: AUG-CC-PVTZ
  Basis Set: (AUG-CC-PVTZ AUX)
    Blend: AUG-CC-PVTZ-JKFIT

    Orbital Energies [Eh]
    ---------------------

    Doubly Occupied:

       1A    -20.602581     2A    -11.275669     3A    -11.270147
       4A    -11.230135     5A    -11.230034     6A    -11.222548
       7A    -11.221514     8A    -11.219090     9A    -11.216756
      10A    -11.215138    11A    -11.214704    12A     -1.430272
      13A     -1.099583    14A     -1.077756    15A     -1.036471
      16A     -0.992769    17A     -0.931430    18A     -0.927380
      19A     -0.869817    20A     -0.813052    21A     -0.748626
      22A     -0.721733    23A     -0.658240    24A     -0.627436
      25A     -0.611668    26A     -0.610398    27A     -0.587174
      28A     -0.585005    29A     -0.574717    30A     -0.562246
      31A     -0.550728    32A     -0.531242    33A     -0.528862
      34A     -0.524645    35A     -0.521567    36A     -0.505200
      37A     -0.494520    38A     -0.491451    39A     -0.484198
      40A     -0.459184    41A     -0.358743    42A     -0.273150

  @DF-RHF Final Energy:  -463.00196745860546

   => Energetics <=

    Nuclear Repulsion Energy =            628.9855730396965328
    One-Electron Energy =               -1875.7599165638002887
    Two-Electron Energy =                 783.7723760654981788
    Total Energy =                       -463.0019674586054634
  Basis Set: (AUG-CC-PVTZ AUX)
    Blend: AUG-CC-PVTZ-RI
    Molecular point group: c1

    Geometry (in Angstrom), charge = 0, multiplicity = 1:

       Center              X                  Y                   Z               Mass
    ------------   -----------------  -----------------  -----------------  -----------------
         O            0.069398768113     1.028559034518     0.509283196143    15.994914619570
         C           -0.744814231887    -1.032473965482     0.128460196143    12.000000000000
         C            0.682163768113    -1.136095065482     0.053243996143    12.000000000000
         C           -1.074475231887     0.269547034518     0.396617196143    12.000000000000
         C            1.137080768113     0.183680034518     0.304792196143    12.000000000000
         C           -2.359266231887     1.008164034518     0.521295196143    12.000000000000
         C            2.481921768113     0.818385034518     0.342411196143    12.000000000000
         C           -1.644868031887    -2.206746665482    -0.095426103857    12.000000000000
         C            1.509519768113    -2.315173965482    -0.174758803857    12.000000000000
         C           -2.851633231887     1.563219034518    -0.823190803857    12.000000000000
         C            2.810101768113     1.580746034518    -0.949537803857    12.000000000000
         H            3.230615768113     0.036634034518     0.520878196143     1.007825032230
         H            2.527593768113     1.502553034518     1.198912196143     1.007825032230
         H           -2.218924231887     1.828793034518     1.235922196143     1.007825032230
         H           -3.115991231887     0.337987034518     0.950593196143     1.007825032230
         H           -1.425965231887    -3.032428965482     0.545593196143     1.007825032230
         H           -2.714989231887    -1.883949965482     0.147198196143     1.007825032230
         H           -1.668006231887    -2.519992965482    -1.129595803857     1.007825032230
         H            2.511005768113    -2.057148965482    -0.537300803857     1.007825032230
         H            1.627722768113    -2.910318965482     0.740022196143     1.007825032230
         H            1.040002768113    -2.957964965482    -0.927178803857     1.007825032230
         H            2.809875768113     0.899516034518    -1.804850803857     1.007825032230
         H            3.794119768113     2.055029034518    -0.884011803857     1.007825032230
         H            2.060862768113     2.357629034518    -1.129877803857     1.007825032230
         H           -2.102397231887     2.236194034518    -1.252236803857     1.007825032230
         H           -3.785886231887     2.118635034518    -0.699287803857     1.007825032230
         H           -3.024875231887     0.747813034518    -1.531937803857     1.007825032230

  Basis Set: AUG-CC-PVTZ
    Blend: AUG-CC-PVTZ
  Basis Set: (AUG-CC-PVTZ AUX)
    Blend: AUG-CC-PVTZ-JKFIT
	 Reference Energy          =    -463.0019674586054634 [Eh]
	 Singles Energy            =      -0.0000000000000000 [Eh]
	 Same-Spin Energy          =      -0.4986114457324982 [Eh]
	 Opposite-Spin Energy      =      -1.6694261736640430 [Eh]
	 Correlation Energy        =      -2.1680376193965412 [Eh]
	 Total Energy              =    -465.1700050780020206 [Eh]

	 ================> DF-SCS-MP2 Energies <==================
	-----------------------------------------------------------
	 SCS Same-Spin Scale       =       0.3333333333333333 [-]
	 SCS Opposite-Spin Scale   =       1.2000000000000000 [-]
	 SCS Same-Spin Energy      =      -0.1662038152441661 [Eh]
	 SCS Opposite-Spin Energy  =      -2.0033114083968515 [Eh]
	 SCS Correlation Energy    =      -2.1695152236410173 [Eh]
	 SCS Total Energy          =    -465.1714826822465056 [Eh]
	-----------------------------------------------------------

  Dipole Moment: [D]
     X:     0.0069      Y:    -0.6696      Z:    -0.2142     Total:     0.7031

*** Psi4 exiting successfully. Buy a developer a beer!
