                               Psi4 1.3.2 release

  ==> Input File <==

--------------------------------------------------------------------------
#psi4
#
memory 32 gb

molecule  {
0 1
  O        0.0723890     1.0222580     0.5077940
  C       -0.7418240    -1.0387750     0.1269710
  C        0.6883760    -1.0936210     0.0623120
  C       -1.0714850     0.2632460     0.3951280
  C        1.1400710     0.1773790     0.3033030
  C       -2.5290549     1.1011923     0.5365727
  C        2.4849120     0.8120840     0.3409220
  C       -1.6830070    -2.1819480    -0.0885940
  C        1.5125100    -2.3214750    -0.1762480
  C       -2.8486430     1.5569180    -0.8246800
  C        2.8130920     1.5744450    -0.9510270
  H        3.2336060     0.0303330     0.5193890
  H        2.5305840     1.4962520     1.1974230
  H       -2.2159340     1.8224920     1.2344330
  H       -3.1130010     0.3316860     0.9491040
  H       -1.4229750    -3.0387300     0.5441040
  H       -2.7119990    -1.8902510     0.1457090
  H       -1.6650160    -2.5262940    -1.1310850
  H        2.5139960    -2.0634500    -0.5387900
  H        1.6307130    -2.9166200     0.7385330
  H        1.0429930    -2.9642660    -0.9286680
  H        2.8128660     0.8932150    -1.8063400
  H        3.7971100     2.0487280    -0.8855010
  H        2.0638530     2.3513280    -1.1313670
  H       -2.0994070     2.2298930    -1.2537260
  H       -3.7828960     2.1123340    -0.7007770
  H       -3.0218850     0.7415120    -1.5334270
units angstrom
no_reorient  #important for SAPT in psi4, default
symmetry c1  #important for SAPT in psi4, default
}

set PROPERTIES_ORIGIN ["COM"]
properties('MP2/aug-cc-pvtz', properties = ['dipole'])
--------------------------------------------------------------------------

    Molecular point group: c1
  Charge       = 0
  Multiplicity = 1
  Basis Set: AUG-CC-PVTZ
    Blend: AUG-CC-PVTZ
  Basis Set: (AUG-CC-PVTZ AUX)
    Blend: AUG-CC-PVTZ-JKFIT

    Orbital Energies [Eh]
    ---------------------

    Doubly Occupied:

       1A    -20.597033     2A    -11.272048     3A    -11.266431
       4A    -11.237022     5A    -11.228450     6A    -11.221805
       7A    -11.221414     8A    -11.215591     9A    -11.213972
      10A    -11.213508    11A    -11.211478    12A     -1.426041
      13A     -1.095426    14A     -1.071399    15A     -1.041204
      16A     -0.990726    17A     -0.930142    18A     -0.922820
      19A     -0.862732    20A     -0.820618    21A     -0.744624
      22A     -0.718875    23A     -0.650373    24A     -0.629794
      25A     -0.621724    26A     -0.604911    27A     -0.588281
      28A     -0.579210    29A     -0.566010    30A     -0.555803
      31A     -0.550328    32A     -0.546029    33A     -0.530226
      34A     -0.522934    35A     -0.521498    36A     -0.509824
      37A     -0.505348    38A     -0.488081    39A     -0.477159
      40A     -0.433963    41A     -0.358595    42A     -0.278012

  @DF-RHF Final Energy:  -462.98260156249091

   => Energetics <=

    Nuclear Repulsion Energy =            626.4621174922274349
    One-Electron Energy =               -1870.8065075994113613
    Two-Electron Energy =                 781.3617885446930131
    Total Energy =                       -462.9826015624909132
  Basis Set: (AUG-CC-PVTZ AUX)
    Blend: AUG-CC-PVTZ-RI
    Molecular point group: c1

    Geometry (in Angstrom), charge = 0, multiplicity = 1:

       Center              X                  Y                   Z               Mass
    ------------   -----------------  -----------------  -----------------  -----------------
         O            0.086018747646     1.014422513533     0.506471323436    15.994914619570
         C           -0.728194252354    -1.046610486467     0.125648323436    12.000000000000
         C            0.702005747646    -1.101456486467     0.060989323436    12.000000000000
         C           -1.057855252354     0.255410513533     0.393805323436    12.000000000000
         C            1.153700747646     0.169543513533     0.301980323436    12.000000000000
         C           -2.515425152354     1.093356813533     0.535250023436    12.000000000000
         C            2.498541747646     0.804248513533     0.339599323436    12.000000000000
         C           -1.669377252354    -2.189783486467    -0.089916676564    12.000000000000
         C            1.526139747646    -2.329310486467    -0.177570676564    12.000000000000
         C           -2.835013252354     1.549082513533    -0.826002676564    12.000000000000
         C            2.826721747646     1.566609513533    -0.952349676564    12.000000000000
         H            3.247235747646     0.022497513533     0.518066323436     1.007825032230
         H            2.544213747646     1.488416513533     1.196100323436     1.007825032230
         H           -2.202304252354     1.814656513533     1.233110323436     1.007825032230
         H           -3.099371252354     0.323850513533     0.947781323436     1.007825032230
         H           -1.409345252354    -3.046565486467     0.542781323436     1.007825032230
         H           -2.698369252354    -1.898086486467     0.144386323436     1.007825032230
         H           -1.651386252354    -2.534129486467    -1.132407676564     1.007825032230
         H            2.527625747646    -2.071285486467    -0.540112676564     1.007825032230
         H            1.644342747646    -2.924455486467     0.737210323436     1.007825032230
         H            1.056622747646    -2.972101486467    -0.929990676564     1.007825032230
         H            2.826495747646     0.885379513533    -1.807662676564     1.007825032230
         H            3.810739747646     2.040892513533    -0.886823676564     1.007825032230
         H            2.077482747646     2.343492513533    -1.132689676564     1.007825032230
         H           -2.085777252354     2.222057513533    -1.255048676564     1.007825032230
         H           -3.769266252354     2.104498513533    -0.702099676564     1.007825032230
         H           -3.008255252354     0.733676513533    -1.534749676564     1.007825032230

  Basis Set: AUG-CC-PVTZ
    Blend: AUG-CC-PVTZ
  Basis Set: (AUG-CC-PVTZ AUX)
    Blend: AUG-CC-PVTZ-JKFIT
	 Reference Energy          =    -462.9826015624909132 [Eh]
	 Singles Energy            =      -0.0000000000000000 [Eh]
	 Same-Spin Energy          =      -0.4971672482577864 [Eh]
	 Opposite-Spin Energy      =      -1.6685915366469661 [Eh]
	 Correlation Energy        =      -2.1657587849047526 [Eh]
	 Total Energy              =    -465.1483603473956805 [Eh]

	 ================> DF-SCS-MP2 Energies <==================
	-----------------------------------------------------------
	 SCS Same-Spin Scale       =       0.3333333333333333 [-]
	 SCS Opposite-Spin Scale   =       1.2000000000000000 [-]
	 SCS Same-Spin Energy      =      -0.1657224160859288 [Eh]
	 SCS Opposite-Spin Energy  =      -2.0023098439763594 [Eh]
	 SCS Correlation Energy    =      -2.1680322600622883 [Eh]
	 SCS Total Energy          =    -465.1506338225531749 [Eh]
	-----------------------------------------------------------

  Dipole Moment: [D]
     X:    -0.1445      Y:    -0.5659      Z:    -0.2493     Total:     0.6350

*** Psi4 exiting successfully. Buy a developer a beer!
