                               Psi4 1.3.2 release

  ==> Input File <==

--------------------------------------------------------------------------
#psi4
#
memory 32 gb

molecule  {
0 1
  O        0.0723890     1.0222580     0.5077940
  C       -0.7418240    -1.0387750     0.1269710
  C        0.6883760    -1.0936210     0.0623120
  C       -1.0714850     0.2632460     0.3951280
  C        1.1094211     0.2478489     0.2906587
  C       -2.3562760     1.0018630     0.5198060
  C        2.4849120     0.8120840     0.3409220
  C       -1.6830070    -2.1819480    -0.0885940
  C        1.5125100    -2.3214750    -0.1762480
  C       -2.8486430     1.5569180    -0.8246800
  C        2.8130920     1.5744450    -0.9510270
  H        3.2742111     0.0709118     0.5175530
  H        2.5305840     1.4962520     1.1974230
  H       -2.2159340     1.8224920     1.2344330
  H       -3.1130010     0.3316860     0.9491040
  H       -1.4229750    -3.0387300     0.5441040
  H       -2.7119990    -1.8902510     0.1457090
  H       -1.6650160    -2.5262940    -1.1310850
  H        2.5139960    -2.0634500    -0.5387900
  H        1.6307130    -2.9166200     0.7385330
  H        1.0429930    -2.9642660    -0.9286680
  H        2.8128660     0.8932150    -1.8063400
  H        3.7971100     2.0487280    -0.8855010
  H        2.0638530     2.3513280    -1.1313670
  H       -2.0994070     2.2298930    -1.2537260
  H       -3.7828960     2.1123340    -0.7007770
  H       -3.0218850     0.7415120    -1.5334270
units angstrom
no_reorient  #important for SAPT in psi4, default
symmetry c1  #important for SAPT in psi4, default
}

set PROPERTIES_ORIGIN ["COM"]
properties('MP2/aug-cc-pvtz', properties = ['dipole'])
--------------------------------------------------------------------------

    Molecular point group: c1
  Charge       = 0
  Multiplicity = 1
  Basis Set: AUG-CC-PVTZ
    Blend: AUG-CC-PVTZ
  Basis Set: (AUG-CC-PVTZ AUX)
    Blend: AUG-CC-PVTZ-JKFIT

    Orbital Energies [Eh]
    ---------------------

    Doubly Occupied:

       1A    -20.609852     2A    -11.275912     3A    -11.266477
       4A    -11.230277     5A    -11.229966     6A    -11.223491
       7A    -11.221213     8A    -11.217593     9A    -11.215169
      10A    -11.214783    11A    -11.214580    12A     -1.457753
      13A     -1.096661    14A     -1.078337    15A     -1.036826
      16A     -0.987014    17A     -0.934897    18A     -0.927635
      19A     -0.869178    20A     -0.815456    21A     -0.757503
      22A     -0.721208    23A     -0.666779    24A     -0.637338
      25A     -0.612221    26A     -0.609019    27A     -0.592638
      28A     -0.582152    29A     -0.569528    30A     -0.554543
      31A     -0.548894    32A     -0.533078    33A     -0.531143
      34A     -0.529202    35A     -0.519531    36A     -0.506609
      37A     -0.495573    38A     -0.490740    39A     -0.484356
      40A     -0.457999    41A     -0.357136    42A     -0.271028

  @DF-RHF Final Energy:  -463.00492257921007

   => Energetics <=

    Nuclear Repulsion Energy =            629.8836757482549729
    One-Electron Energy =               -1877.4746223136551180
    Two-Electron Energy =                 784.5860239861900709
    Total Energy =                       -463.0049225792100742
  Basis Set: (AUG-CC-PVTZ AUX)
    Blend: AUG-CC-PVTZ-RI
    Molecular point group: c1

    Geometry (in Angstrom), charge = 0, multiplicity = 1:

       Center              X                  Y                   Z               Mass
    ------------   -----------------  -----------------  -----------------  -----------------
         O            0.074537880473     1.016430245839     0.508803574936    15.994914619570
         C           -0.739675119527    -1.044602754161     0.127980574936    12.000000000000
         C            0.690524880473    -1.099448754161     0.063321574936    12.000000000000
         C           -1.069336119527     0.257418245839     0.396137574936    12.000000000000
         C            1.111569980473     0.242021145839     0.291668274936    12.000000000000
         C           -2.354127119527     0.996035245839     0.520815574936    12.000000000000
         C            2.487060880473     0.806256245839     0.341931574936    12.000000000000
         C           -1.680858119527    -2.187775754161    -0.087584425064    12.000000000000
         C            1.514658880473    -2.327302754161    -0.175238425064    12.000000000000
         C           -2.846494119527     1.551090245839    -0.823670425064    12.000000000000
         C            2.815240880473     1.568617245839    -0.950017425064    12.000000000000
         H            3.276359980473     0.065084045839     0.518562574936     1.007825032230
         H            2.532732880473     1.490424245839     1.198432574936     1.007825032230
         H           -2.213785119527     1.816664245839     1.235442574936     1.007825032230
         H           -3.110852119527     0.325858245839     0.950113574936     1.007825032230
         H           -1.420826119527    -3.044557754161     0.545113574936     1.007825032230
         H           -2.709850119527    -1.896078754161     0.146718574936     1.007825032230
         H           -1.662867119527    -2.532121754161    -1.130075425064     1.007825032230
         H            2.516144880473    -2.069277754161    -0.537780425064     1.007825032230
         H            1.632861880473    -2.922447754161     0.739542574936     1.007825032230
         H            1.045141880473    -2.970093754161    -0.927658425064     1.007825032230
         H            2.815014880473     0.887387245839    -1.805330425064     1.007825032230
         H            3.799258880473     2.042900245839    -0.884491425064     1.007825032230
         H            2.066001880473     2.345500245839    -1.130357425064     1.007825032230
         H           -2.097258119527     2.224065245839    -1.252716425064     1.007825032230
         H           -3.780747119527     2.106506245839    -0.699767425064     1.007825032230
         H           -3.019736119527     0.735684245839    -1.532417425064     1.007825032230

  Basis Set: AUG-CC-PVTZ
    Blend: AUG-CC-PVTZ
  Basis Set: (AUG-CC-PVTZ AUX)
    Blend: AUG-CC-PVTZ-JKFIT
	 Reference Energy          =    -463.0049225792100742 [Eh]
	 Singles Energy            =      -0.0000000000000000 [Eh]
	 Same-Spin Energy          =      -0.4980136219976396 [Eh]
	 Opposite-Spin Energy      =      -1.6673179960476276 [Eh]
	 Correlation Energy        =      -2.1653316180452671 [Eh]
	 Total Energy              =    -465.1702541972553604 [Eh]

	 ================> DF-SCS-MP2 Energies <==================
	-----------------------------------------------------------
	 SCS Same-Spin Scale       =       0.3333333333333333 [-]
	 SCS Opposite-Spin Scale   =       1.2000000000000000 [-]
	 SCS Same-Spin Energy      =      -0.1660045406658799 [Eh]
	 SCS Opposite-Spin Energy  =      -2.0007815952571533 [Eh]
	 SCS Correlation Energy    =      -2.1667861359230329 [Eh]
	 SCS Total Energy          =    -465.1717087151330929 [Eh]
	-----------------------------------------------------------

  Dipole Moment: [D]
     X:    -0.0922      Y:    -0.5458      Z:    -0.1581     Total:     0.5757

*** Psi4 exiting successfully. Buy a developer a beer!
