                               Psi4 1.3.2 release

  ==> Input File <==

--------------------------------------------------------------------------
#psi4
#
memory 32 gb

molecule  {
0 1
  O        0.0723890     1.0222580     0.5077940
  C       -0.7418240    -1.0387750     0.1269710
  C        0.6883760    -1.0936210     0.0623120
  C       -1.0714850     0.2632460     0.3951280
  C        1.1400710     0.1773790     0.3033030
  C       -2.3562760     1.0018630     0.5198060
  C        2.3945067     0.7694167     0.3383931
  C       -1.6830070    -2.1819480    -0.0885940
  C        1.5125100    -2.3214750    -0.1762480
  C       -2.8486430     1.5569180    -0.8246800
  C        2.8130920     1.5744450    -0.9510270
  H        3.2336060     0.0303330     0.5193890
  H        2.5305840     1.4962520     1.1974230
  H       -2.2159340     1.8224920     1.2344330
  H       -3.1130010     0.3316860     0.9491040
  H       -1.4229750    -3.0387300     0.5441040
  H       -2.7119990    -1.8902510     0.1457090
  H       -1.6650160    -2.5262940    -1.1310850
  H        2.5139960    -2.0634500    -0.5387900
  H        1.6307130    -2.9166200     0.7385330
  H        1.0429930    -2.9642660    -0.9286680
  H        2.8128660     0.8932150    -1.8063400
  H        3.7971100     2.0487280    -0.8855010
  H        2.0638530     2.3513280    -1.1313670
  H       -2.0994070     2.2298930    -1.2537260
  H       -3.7828960     2.1123340    -0.7007770
  H       -3.0218850     0.7415120    -1.5334270
units angstrom
no_reorient  #important for SAPT in psi4, default
symmetry c1  #important for SAPT in psi4, default
}

set PROPERTIES_ORIGIN ["COM"]
properties('MP2/aug-cc-pvtz', properties = ['dipole'])
--------------------------------------------------------------------------

    Molecular point group: c1
  Charge       = 0
  Multiplicity = 1
  Basis Set: AUG-CC-PVTZ
    Blend: AUG-CC-PVTZ
  Basis Set: (AUG-CC-PVTZ AUX)
    Blend: AUG-CC-PVTZ-JKFIT

    Orbital Energies [Eh]
    ---------------------

    Doubly Occupied:

       1A    -20.598641     2A    -11.271115     3A    -11.264445
       4A    -11.230791     5A    -11.230245     6A    -11.223769
       7A    -11.223418     8A    -11.217841     9A    -11.216547
      10A    -11.216103    11A    -11.216042    12A     -1.431351
      13A     -1.100776    14A     -1.086530    15A     -1.036560
      16A     -0.989056    17A     -0.933381    18A     -0.929769
      19A     -0.875702    20A     -0.813025    21A     -0.751996
      22A     -0.722440    23A     -0.663132    24A     -0.629444
      25A     -0.614264    26A     -0.606388    27A     -0.588885
      28A     -0.579701    29A     -0.568730    30A     -0.556697
      31A     -0.549785    32A     -0.538215    33A     -0.529159
      34A     -0.524636    35A     -0.520673    36A     -0.502984
      37A     -0.495107    38A     -0.490115    39A     -0.479249
      40A     -0.465635    41A     -0.361215    42A     -0.277442

  @DF-RHF Final Energy:  -462.99923853141809

   => Energetics <=

    Nuclear Repulsion Energy =            631.2810355848416748
    One-Electron Energy =               -1880.3185525058540861
    Two-Electron Energy =                 786.0382783895943248
    Total Energy =                       -462.9992385314180865
  Basis Set: (AUG-CC-PVTZ AUX)
    Blend: AUG-CC-PVTZ-RI
    Molecular point group: c1

    Geometry (in Angstrom), charge = 0, multiplicity = 1:

       Center              X                  Y                   Z               Mass
    ------------   -----------------  -----------------  -----------------  -----------------
         O            0.079520703655     1.025623919727     0.507993457440    15.994914619570
         C           -0.734692296345    -1.035409080273     0.127170457440    12.000000000000
         C            0.695507703655    -1.090255080273     0.062511457440    12.000000000000
         C           -1.064353296345     0.266611919727     0.395327457440    12.000000000000
         C            1.147202703655     0.180744919727     0.303502457440    12.000000000000
         C           -2.349144296345     1.005228919727     0.520005457440    12.000000000000
         C            2.401638403655     0.772782619727     0.338592557440    12.000000000000
         C           -1.675875296345    -2.178582080273    -0.088394542560    12.000000000000
         C            1.519641703655    -2.318109080273    -0.176048542560    12.000000000000
         C           -2.841511296345     1.560283919727    -0.824480542560    12.000000000000
         C            2.820223703655     1.577810919727    -0.950827542560    12.000000000000
         H            3.240737703655     0.033698919727     0.519588457440     1.007825032230
         H            2.537715703655     1.499617919727     1.197622457440     1.007825032230
         H           -2.208802296345     1.825857919727     1.234632457440     1.007825032230
         H           -3.105869296345     0.335051919727     0.949303457440     1.007825032230
         H           -1.415843296345    -3.035364080273     0.544303457440     1.007825032230
         H           -2.704867296345    -1.886885080273     0.145908457440     1.007825032230
         H           -1.657884296345    -2.522928080273    -1.130885542560     1.007825032230
         H            2.521127703655    -2.060084080273    -0.538590542560     1.007825032230
         H            1.637844703655    -2.913254080273     0.738732457440     1.007825032230
         H            1.050124703655    -2.960900080273    -0.928468542560     1.007825032230
         H            2.819997703655     0.896580919727    -1.806140542560     1.007825032230
         H            3.804241703655     2.052093919727    -0.885301542560     1.007825032230
         H            2.070984703655     2.354693919727    -1.131167542560     1.007825032230
         H           -2.092275296345     2.233258919727    -1.253526542560     1.007825032230
         H           -3.775764296345     2.115699919727    -0.700577542560     1.007825032230
         H           -3.014753296345     0.744877919727    -1.533227542560     1.007825032230

  Basis Set: AUG-CC-PVTZ
    Blend: AUG-CC-PVTZ
  Basis Set: (AUG-CC-PVTZ AUX)
    Blend: AUG-CC-PVTZ-JKFIT
	 Reference Energy          =    -462.9992385314180865 [Eh]
	 Singles Energy            =      -0.0000000000000000 [Eh]
	 Same-Spin Energy          =      -0.4984559856661558 [Eh]
	 Opposite-Spin Energy      =      -1.6686482982322874 [Eh]
	 Correlation Energy        =      -2.1671042838984431 [Eh]
	 Total Energy              =    -465.1663428153165114 [Eh]

	 ================> DF-SCS-MP2 Energies <==================
	-----------------------------------------------------------
	 SCS Same-Spin Scale       =       0.3333333333333333 [-]
	 SCS Opposite-Spin Scale   =       1.2000000000000000 [-]
	 SCS Same-Spin Energy      =      -0.1661519952220519 [Eh]
	 SCS Opposite-Spin Energy  =      -2.0023779578787448 [Eh]
	 SCS Correlation Energy    =      -2.1685299531007969 [Eh]
	 SCS Total Energy          =    -465.1677684845188878 [Eh]
	-----------------------------------------------------------

  Dipole Moment: [D]
     X:    -0.0899      Y:    -0.6988      Z:    -0.2138     Total:     0.7363

*** Psi4 exiting successfully. Buy a developer a beer!
