                               Psi4 1.3.2 release

  ==> Input File <==

--------------------------------------------------------------------------
#psi4
#
memory 32 gb

molecule  {
0 1
  O        0.0723890     1.0222580     0.5077940
  C       -0.7418240    -1.0387750     0.1269710
  C        0.6834510    -1.1077721     0.1124033
  C       -1.0714850     0.2632460     0.3951280
  C        1.1400710     0.1773790     0.3033030
  C       -2.3562760     1.0018630     0.5198060
  C        2.4849120     0.8120840     0.3409220
  C       -1.6830070    -2.1819480    -0.0885940
  C        1.5125100    -2.3214750    -0.1762480
  C       -2.8486430     1.5569180    -0.8246800
  C        2.8130920     1.5744450    -0.9510270
  H        3.2336060     0.0303330     0.5193890
  H        2.5305840     1.4962520     1.1974230
  H       -2.2159340     1.8224920     1.2344330
  H       -3.1130010     0.3316860     0.9491040
  H       -1.4229750    -3.0387300     0.5441040
  H       -2.7119990    -1.8902510     0.1457090
  H       -1.6650160    -2.5262940    -1.1310850
  H        2.5139960    -2.0634500    -0.5387900
  H        1.6095917    -2.8907383     0.7572981
  H        1.0429930    -2.9642660    -0.9286680
  H        2.8128660     0.8932150    -1.8063400
  H        3.7971100     2.0487280    -0.8855010
  H        2.0638530     2.3513280    -1.1313670
  H       -2.0994070     2.2298930    -1.2537260
  H       -3.7828960     2.1123340    -0.7007770
  H       -3.0218850     0.7415120    -1.5334270
units angstrom
no_reorient  #important for SAPT in psi4, default
symmetry c1  #important for SAPT in psi4, default
}

set PROPERTIES_ORIGIN ["COM"]
properties('MP2/aug-cc-pvtz', properties = ['dipole'])
--------------------------------------------------------------------------

    Molecular point group: c1
  Charge       = 0
  Multiplicity = 1
  Basis Set: AUG-CC-PVTZ
    Blend: AUG-CC-PVTZ
  Basis Set: (AUG-CC-PVTZ AUX)
    Blend: AUG-CC-PVTZ-JKFIT

    Orbital Energies [Eh]
    ---------------------

    Doubly Occupied:

       1A    -20.598746     2A    -11.269546     3A    -11.269403
       4A    -11.230045     5A    -11.229993     6A    -11.223201
       7A    -11.222999     8A    -11.216354     9A    -11.215382
      10A    -11.214977    11A    -11.214658    12A     -1.429498
      13A     -1.099297    14A     -1.078451    15A     -1.036247
      16A     -0.990120    17A     -0.932182    18A     -0.927347
      19A     -0.870149    20A     -0.814890    21A     -0.748482
      22A     -0.722410    23A     -0.657528    24A     -0.627698
      25A     -0.611170    26A     -0.609363    27A     -0.586793
      28A     -0.583596    29A     -0.569729    30A     -0.557018
      31A     -0.549532    32A     -0.533912    33A     -0.527762
      34A     -0.523511    35A     -0.519591    36A     -0.505238
      37A     -0.495222    38A     -0.492064    39A     -0.483697
      40A     -0.467984    41A     -0.360671    42A     -0.277372

  @DF-RHF Final Energy:  -463.01038861977480

   => Energetics <=

    Nuclear Repulsion Energy =            629.5481207078909165
    One-Electron Energy =               -1876.9293567994131990
    Two-Electron Energy =                 784.3708474717473109
    Total Energy =                       -463.0103886197748579
  Basis Set: (AUG-CC-PVTZ AUX)
    Blend: AUG-CC-PVTZ-RI
    Molecular point group: c1

    Geometry (in Angstrom), charge = 0, multiplicity = 1:

       Center              X                  Y                   Z               Mass
    ------------   -----------------  -----------------  -----------------  -----------------
         O            0.072917520215     1.023202947163     0.503718188933    15.994914619570
         C           -0.741295479785    -1.037830052837     0.122895188933    12.000000000000
         C            0.683979520215    -1.106827152837     0.108327488933    12.000000000000
         C           -1.070956479785     0.264190947163     0.391052188933    12.000000000000
         C            1.140599520215     0.178323947163     0.299227188933    12.000000000000
         C           -2.355747479785     1.002807947163     0.515730188933    12.000000000000
         C            2.485440520215     0.813028947163     0.336846188933    12.000000000000
         C           -1.682478479785    -2.181003052837    -0.092669811067    12.000000000000
         C            1.513038520215    -2.320530052837    -0.180323811067    12.000000000000
         C           -2.848114479785     1.557862947163    -0.828755811067    12.000000000000
         C            2.813620520215     1.575389947163    -0.955102811067    12.000000000000
         H            3.234134520215     0.031277947163     0.515313188933     1.007825032230
         H            2.531112520215     1.497196947163     1.193347188933     1.007825032230
         H           -2.215405479785     1.823436947163     1.230357188933     1.007825032230
         H           -3.112472479785     0.332630947163     0.945028188933     1.007825032230
         H           -1.422446479785    -3.037785052837     0.540028188933     1.007825032230
         H           -2.711470479785    -1.889306052837     0.141633188933     1.007825032230
         H           -1.664487479785    -2.525349052837    -1.135160811067     1.007825032230
         H            2.514524520215    -2.062505052837    -0.542865811067     1.007825032230
         H            1.610120220215    -2.889793352837     0.753222288933     1.007825032230
         H            1.043521520215    -2.963321052837    -0.932743811067     1.007825032230
         H            2.813394520215     0.894159947163    -1.810415811067     1.007825032230
         H            3.797638520215     2.049672947163    -0.889576811067     1.007825032230
         H            2.064381520215     2.352272947163    -1.135442811067     1.007825032230
         H           -2.098878479785     2.230837947163    -1.257801811067     1.007825032230
         H           -3.782367479785     2.113278947163    -0.704852811067     1.007825032230
         H           -3.021356479785     0.742456947163    -1.537502811067     1.007825032230

  Basis Set: AUG-CC-PVTZ
    Blend: AUG-CC-PVTZ
  Basis Set: (AUG-CC-PVTZ AUX)
    Blend: AUG-CC-PVTZ-JKFIT
	 Reference Energy          =    -463.0103886197748011 [Eh]
	 Singles Energy            =      -0.0000000000000000 [Eh]
	 Same-Spin Energy          =      -0.4973607199812229 [Eh]
	 Opposite-Spin Energy      =      -1.6675622196267770 [Eh]
	 Correlation Energy        =      -2.1649229396080001 [Eh]
	 Total Energy              =    -465.1753115593828056 [Eh]

	 ================> DF-SCS-MP2 Energies <==================
	-----------------------------------------------------------
	 SCS Same-Spin Scale       =       0.3333333333333333 [-]
	 SCS Opposite-Spin Scale   =       1.2000000000000000 [-]
	 SCS Same-Spin Energy      =      -0.1657869066604076 [Eh]
	 SCS Opposite-Spin Energy  =      -2.0010746635521324 [Eh]
	 SCS Correlation Energy    =      -2.1668615702125402 [Eh]
	 SCS Total Energy          =    -465.1772501899873191 [Eh]
	-----------------------------------------------------------

  Dipole Moment: [D]
     X:    -0.0279      Y:    -0.6542      Z:    -0.2483     Total:     0.7003

*** Psi4 exiting successfully. Buy a developer a beer!
