                               Psi4 1.3.2 release

  ==> Input File <==

--------------------------------------------------------------------------
#psi4
#
memory 32 gb

molecule  {
0 1
  O        0.0449571     1.0608123     0.5163118
  C       -0.7883931    -1.0495625     0.1263602
  C        0.6883760    -1.0936210     0.0623120
  C       -1.0714850     0.2632460     0.3951280
  C        1.1400710     0.1773790     0.3033030
  C       -2.3562760     1.0018630     0.5198060
  C        2.4849120     0.8120840     0.3409220
  C       -1.6830070    -2.1819480    -0.0885940
  C        1.5125100    -2.3214750    -0.1762480
  C       -2.8486430     1.5569180    -0.8246800
  C        2.8130920     1.5744450    -0.9510270
  H        3.2336060     0.0303330     0.5193890
  H        2.5305840     1.4962520     1.1974230
  H       -2.2159340     1.8224920     1.2344330
  H       -3.1130010     0.3316860     0.9491040
  H       -1.4229750    -3.0387300     0.5441040
  H       -2.7119990    -1.8902510     0.1457090
  H       -1.6650160    -2.5262940    -1.1310850
  H        2.5139960    -2.0634500    -0.5387900
  H        1.6307130    -2.9166200     0.7385330
  H        1.0429930    -2.9642660    -0.9286680
  H        2.8128660     0.8932150    -1.8063400
  H        3.7971100     2.0487280    -0.8855010
  H        2.0638530     2.3513280    -1.1313670
  H       -2.0994070     2.2298930    -1.2537260
  H       -3.7828960     2.1123340    -0.7007770
  H       -3.0218850     0.7415120    -1.5334270
units angstrom
no_reorient  #important for SAPT in psi4, default
symmetry c1  #important for SAPT in psi4, default
}

set PROPERTIES_ORIGIN ["COM"]
properties('MP2/aug-cc-pvtz', properties = ['dipole'])
--------------------------------------------------------------------------

    Molecular point group: c1
  Charge       = 0
  Multiplicity = 1
  Basis Set: AUG-CC-PVTZ
    Blend: AUG-CC-PVTZ
  Basis Set: (AUG-CC-PVTZ AUX)
    Blend: AUG-CC-PVTZ-JKFIT

    Orbital Energies [Eh]
    ---------------------

    Doubly Occupied:

       1A    -20.597679     2A    -11.272983     3A    -11.272409
       4A    -11.230582     5A    -11.227086     6A    -11.225220
       7A    -11.224130     8A    -11.222773     9A    -11.217477
      10A    -11.214666    11A    -11.214409    12A     -1.414485
      13A     -1.098413    14A     -1.077685    15A     -1.034843
      16A     -0.995125    17A     -0.933764    18A     -0.924773
      19A     -0.868314    20A     -0.813508    21A     -0.744448
      22A     -0.716766    23A     -0.654092    24A     -0.623076
      25A     -0.611553    26A     -0.609495    27A     -0.586726
      28A     -0.582196    29A     -0.568804    30A     -0.558763
      31A     -0.553872    32A     -0.536654    33A     -0.531295
      34A     -0.524708    35A     -0.521494    36A     -0.504260
      37A     -0.494018    38A     -0.492392    39A     -0.481514
      40A     -0.459901    41A     -0.358648    42A     -0.281929

  @DF-RHF Final Energy:  -463.00560823529008

   => Energetics <=

    Nuclear Repulsion Energy =            628.0012711259421394
    One-Electron Energy =               -1873.8599020023864341
    Two-Electron Energy =                 782.8530226411542117
    Total Energy =                       -463.0056082352900830
  Basis Set: (AUG-CC-PVTZ AUX)
    Blend: AUG-CC-PVTZ-RI
    Molecular point group: c1

    Geometry (in Angstrom), charge = 0, multiplicity = 1:

       Center              X                  Y                   Z               Mass
    ------------   -----------------  -----------------  -----------------  -----------------
         O            0.051515154986     1.057609526719     0.515464330256    15.994914619570
         C           -0.781835045014    -1.052765273281     0.125512730256    12.000000000000
         C            0.694934054986    -1.096823773281     0.061464530256    12.000000000000
         C           -1.064926945014     0.260043226719     0.394280530256    12.000000000000
         C            1.146629054986     0.174176226719     0.302455530256    12.000000000000
         C           -2.349717945014     0.998660226719     0.518958530256    12.000000000000
         C            2.491470054986     0.808881226719     0.340074530256    12.000000000000
         C           -1.676448945014    -2.185150773281    -0.089441469744    12.000000000000
         C            1.519068054986    -2.324677773281    -0.177095469744    12.000000000000
         C           -2.842084945014     1.553715226719    -0.825527469744    12.000000000000
         C            2.819650054986     1.571242226719    -0.951874469744    12.000000000000
         H            3.240164054986     0.027130226719     0.518541530256     1.007825032230
         H            2.537142054986     1.493049226719     1.196575530256     1.007825032230
         H           -2.209375945014     1.819289226719     1.233585530256     1.007825032230
         H           -3.106442945014     0.328483226719     0.948256530256     1.007825032230
         H           -1.416416945014    -3.041932773281     0.543256530256     1.007825032230
         H           -2.705440945014    -1.893453773281     0.144861530256     1.007825032230
         H           -1.658457945014    -2.529496773281    -1.131932469744     1.007825032230
         H            2.520554054986    -2.066652773281    -0.539637469744     1.007825032230
         H            1.637271054986    -2.919822773281     0.737685530256     1.007825032230
         H            1.049551054986    -2.967468773281    -0.929515469744     1.007825032230
         H            2.819424054986     0.890012226719    -1.807187469744     1.007825032230
         H            3.803668054986     2.045525226719    -0.886348469744     1.007825032230
         H            2.070411054986     2.348125226719    -1.132214469744     1.007825032230
         H           -2.092848945014     2.226690226719    -1.254573469744     1.007825032230
         H           -3.776337945014     2.109131226719    -0.701624469744     1.007825032230
         H           -3.015326945014     0.738309226719    -1.534274469744     1.007825032230

  Basis Set: AUG-CC-PVTZ
    Blend: AUG-CC-PVTZ
  Basis Set: (AUG-CC-PVTZ AUX)
    Blend: AUG-CC-PVTZ-JKFIT
	 Reference Energy          =    -463.0056082352900830 [Eh]
	 Singles Energy            =      -0.0000000000000000 [Eh]
	 Same-Spin Energy          =      -0.4969065767399717 [Eh]
	 Opposite-Spin Energy      =      -1.6684810085497639 [Eh]
	 Correlation Energy        =      -2.1653875852897357 [Eh]
	 Total Energy              =    -465.1709958205798330 [Eh]

	 ================> DF-SCS-MP2 Energies <==================
	-----------------------------------------------------------
	 SCS Same-Spin Scale       =       0.3333333333333333 [-]
	 SCS Opposite-Spin Scale   =       1.2000000000000000 [-]
	 SCS Same-Spin Energy      =      -0.1656355255799906 [Eh]
	 SCS Opposite-Spin Energy  =      -2.0021772102597164 [Eh]
	 SCS Correlation Energy    =      -2.1678127358397070 [Eh]
	 SCS Total Energy          =    -465.1734209711298149 [Eh]
	-----------------------------------------------------------

  Dipole Moment: [D]
     X:     0.0620      Y:    -0.8314      Z:    -0.2518     Total:     0.8709

*** Psi4 exiting successfully. Buy a developer a beer!
