                               Psi4 1.3.2 release

  ==> Input File <==

--------------------------------------------------------------------------
#psi4
#
memory 32 gb

molecule  {
0 1
  O        0.0723890     1.0222580     0.5077940
  C       -0.7418240    -1.0387750     0.1269710
  C        0.6883760    -1.0936210     0.0623120
  C       -1.0714850     0.2632460     0.3951280
  C        1.1400710     0.1773790     0.3033030
  C       -2.3562760     1.0018630     0.5198060
  C        2.4849120     0.8120840     0.3409220
  C       -1.6830070    -2.1819480    -0.0885940
  C        1.5125100    -2.3214750    -0.1762480
  C       -2.8486430     1.5569180    -0.8246800
  C        2.8346303     1.5588712    -0.9544677
  H        3.2426506     0.0355670     0.5033451
  H        2.5305840     1.4962520     1.1974230
  H       -2.2159340     1.8224920     1.2344330
  H       -3.1130010     0.3316860     0.9491040
  H       -1.4229750    -3.0387300     0.5441040
  H       -2.7119990    -1.8902510     0.1457090
  H       -1.6650160    -2.5262940    -1.1310850
  H        2.5139960    -2.0634500    -0.5387900
  H        1.6307130    -2.9166200     0.7385330
  H        1.0429930    -2.9642660    -0.9286680
  H        2.8128660     0.8932150    -1.8063400
  H        3.7971100     2.0487280    -0.8855010
  H        2.0638530     2.3513280    -1.1313670
  H       -2.0994070     2.2298930    -1.2537260
  H       -3.7828960     2.1123340    -0.7007770
  H       -3.0218850     0.7415120    -1.5334270
units angstrom
no_reorient  #important for SAPT in psi4, default
symmetry c1  #important for SAPT in psi4, default
}

set PROPERTIES_ORIGIN ["COM"]
properties('MP2/aug-cc-pvtz', properties = ['dipole'])
--------------------------------------------------------------------------

    Molecular point group: c1
  Charge       = 0
  Multiplicity = 1
  Basis Set: AUG-CC-PVTZ
    Blend: AUG-CC-PVTZ
  Basis Set: (AUG-CC-PVTZ AUX)
    Blend: AUG-CC-PVTZ-JKFIT

    Orbital Energies [Eh]
    ---------------------

    Doubly Occupied:

       1A    -20.598794     2A    -11.269804     3A    -11.269727
       4A    -11.230179     5A    -11.229996     6A    -11.223266
       7A    -11.222946     8A    -11.216418     9A    -11.215498
      10A    -11.215276    11A    -11.214470    12A     -1.429814
      13A     -1.098875    14A     -1.078821    15A     -1.036248
      16A     -0.990175    17A     -0.932416    18A     -0.927840
      19A     -0.869991    20A     -0.815384    21A     -0.749437
      22A     -0.721893    23A     -0.658232    24A     -0.627497
      25A     -0.611545    26A     -0.609796    27A     -0.586673
      28A     -0.583710    29A     -0.567852    30A     -0.555827
      31A     -0.549609    32A     -0.535432    33A     -0.527636
      34A     -0.523987    35A     -0.521793    36A     -0.505004
      37A     -0.494841    38A     -0.492821    39A     -0.480951
      40A     -0.467655    41A     -0.360779    42A     -0.279148

  @DF-RHF Final Energy:  -463.01113019083704

   => Energetics <=

    Nuclear Repulsion Energy =            629.4515197149315782
    One-Electron Energy =               -1876.7291847923524983
    Two-Electron Energy =                 784.2665348865838268
    Total Energy =                       -463.0111301908369796
  Basis Set: (AUG-CC-PVTZ AUX)
    Blend: AUG-CC-PVTZ-RI
    Molecular point group: c1

    Geometry (in Angstrom), charge = 0, multiplicity = 1:

       Center              X                  Y                   Z               Mass
    ------------   -----------------  -----------------  -----------------  -----------------
         O            0.070630107082     1.023451971882     0.508171678736    15.994914619570
         C           -0.743582892918    -1.037581028118     0.127348678736    12.000000000000
         C            0.686617107082    -1.092427028118     0.062689678736    12.000000000000
         C           -1.073243892918     0.264439971882     0.395505678736    12.000000000000
         C            1.138312107082     0.178572971882     0.303680678736    12.000000000000
         C           -2.358034892918     1.003056971882     0.520183678736    12.000000000000
         C            2.483153107082     0.813277971882     0.341299678736    12.000000000000
         C           -1.684765892918    -2.180754028118    -0.088216321264    12.000000000000
         C            1.510751107082    -2.320281028118    -0.175870321264    12.000000000000
         C           -2.850401892918     1.558111971882    -0.824302321264    12.000000000000
         C            2.832871407082     1.560065171882    -0.954090021264    12.000000000000
         H            3.240891707082     0.036760971882     0.503722778736     1.007825032230
         H            2.528825107082     1.497445971882     1.197800678736     1.007825032230
         H           -2.217692892918     1.823685971882     1.234810678736     1.007825032230
         H           -3.114759892918     0.332879971882     0.949481678736     1.007825032230
         H           -1.424733892918    -3.037536028118     0.544481678736     1.007825032230
         H           -2.713757892918    -1.889057028118     0.146086678736     1.007825032230
         H           -1.666774892918    -2.525100028118    -1.130707321264     1.007825032230
         H            2.512237107082    -2.062256028118    -0.538412321264     1.007825032230
         H            1.628954107082    -2.915426028118     0.738910678736     1.007825032230
         H            1.041234107082    -2.963072028118    -0.928290321264     1.007825032230
         H            2.811107107082     0.894408971882    -1.805962321264     1.007825032230
         H            3.795351107082     2.049921971882    -0.885123321264     1.007825032230
         H            2.062094107082     2.352521971882    -1.130989321264     1.007825032230
         H           -2.101165892918     2.231086971882    -1.253348321264     1.007825032230
         H           -3.784654892918     2.113527971882    -0.700399321264     1.007825032230
         H           -3.023643892918     0.742705971882    -1.533049321264     1.007825032230

  Basis Set: AUG-CC-PVTZ
    Blend: AUG-CC-PVTZ
  Basis Set: (AUG-CC-PVTZ AUX)
    Blend: AUG-CC-PVTZ-JKFIT
	 Reference Energy          =    -463.0111301908370365 [Eh]
	 Singles Energy            =      -0.0000000000000000 [Eh]
	 Same-Spin Energy          =      -0.4971086775805103 [Eh]
	 Opposite-Spin Energy      =      -1.6671604528068691 [Eh]
	 Correlation Energy        =      -2.1642691303873796 [Eh]
	 Total Energy              =    -465.1753993212244040 [Eh]

	 ================> DF-SCS-MP2 Energies <==================
	-----------------------------------------------------------
	 SCS Same-Spin Scale       =       0.3333333333333333 [-]
	 SCS Opposite-Spin Scale   =       1.2000000000000000 [-]
	 SCS Same-Spin Energy      =      -0.1657028925268368 [Eh]
	 SCS Opposite-Spin Energy  =      -2.0005925433682430 [Eh]
	 SCS Correlation Energy    =      -2.1662954358950799 [Eh]
	 SCS Total Energy          =    -465.1774256267320879 [Eh]
	-----------------------------------------------------------

  Dipole Moment: [D]
     X:    -0.0291      Y:    -0.6628      Z:    -0.2192     Total:     0.6988

*** Psi4 exiting successfully. Buy a developer a beer!
