                               Psi4 1.3.2 release

  ==> Input File <==

--------------------------------------------------------------------------
#psi4
#
memory 32 gb

molecule  {
0 1
  O        0.0855843     1.0026311     0.5034830
  C       -0.7186865    -1.0327855     0.1273990
  C        0.6883760    -1.0936210     0.0623120
  C       -1.0714850     0.2632460     0.3951280
  C        1.1400710     0.1773790     0.3033030
  C       -2.3562760     1.0018630     0.5198060
  C        2.4849120     0.8120840     0.3409220
  C       -1.6830070    -2.1819480    -0.0885940
  C        1.5125100    -2.3214750    -0.1762480
  C       -2.8486430     1.5569180    -0.8246800
  C        2.8130920     1.5744450    -0.9510270
  H        3.2336060     0.0303330     0.5193890
  H        2.5305840     1.4962520     1.1974230
  H       -2.2159340     1.8224920     1.2344330
  H       -3.1130010     0.3316860     0.9491040
  H       -1.4229750    -3.0387300     0.5441040
  H       -2.7119990    -1.8902510     0.1457090
  H       -1.6650160    -2.5262940    -1.1310850
  H        2.5139960    -2.0634500    -0.5387900
  H        1.6307130    -2.9166200     0.7385330
  H        1.0429930    -2.9642660    -0.9286680
  H        2.8128660     0.8932150    -1.8063400
  H        3.7971100     2.0487280    -0.8855010
  H        2.0638530     2.3513280    -1.1313670
  H       -2.0994070     2.2298930    -1.2537260
  H       -3.7828960     2.1123340    -0.7007770
  H       -3.0218850     0.7415120    -1.5334270
units angstrom
no_reorient  #important for SAPT in psi4, default
symmetry c1  #important for SAPT in psi4, default
}

set PROPERTIES_ORIGIN ["COM"]
properties('MP2/aug-cc-pvtz', properties = ['dipole'])
--------------------------------------------------------------------------

    Molecular point group: c1
  Charge       = 0
  Multiplicity = 1
  Basis Set: AUG-CC-PVTZ
    Blend: AUG-CC-PVTZ
  Basis Set: (AUG-CC-PVTZ AUX)
    Blend: AUG-CC-PVTZ-JKFIT

    Orbital Energies [Eh]
    ---------------------

    Doubly Occupied:

       1A    -20.599163     2A    -11.268208     3A    -11.267814
       4A    -11.231530     5A    -11.229832     6A    -11.223299
       7A    -11.221799     8A    -11.215793     9A    -11.214920
      10A    -11.214526    11A    -11.211432    12A     -1.438148
      13A     -1.099400    14A     -1.079644    15A     -1.036964
      16A     -0.987697    17A     -0.931657    18A     -0.929106
      19A     -0.871048    20A     -0.817018    21A     -0.751495
      22A     -0.724451    23A     -0.660316    24A     -0.630247
      25A     -0.610842    26A     -0.609849    27A     -0.588411
      28A     -0.582884    29A     -0.567097    30A     -0.554321
      31A     -0.547915    32A     -0.534268    33A     -0.527339
      34A     -0.522589    35A     -0.518431    36A     -0.505812
      37A     -0.495989    38A     -0.492597    39A     -0.484382
      40A     -0.469706    41A     -0.362074    42A     -0.277448

  @DF-RHF Final Energy:  -463.01173998404113

   => Energetics <=

    Nuclear Repulsion Energy =            630.4108701371224015
    One-Electron Energy =               -1878.6302892759003953
    Two-Electron Energy =                 785.2076791547368657
    Total Energy =                       -463.0117399840411281
  Basis Set: (AUG-CC-PVTZ AUX)
    Blend: AUG-CC-PVTZ-RI
    Molecular point group: c1

    Geometry (in Angstrom), charge = 0, multiplicity = 1:

       Center              X                  Y                   Z               Mass
    ------------   -----------------  -----------------  -----------------  -----------------
         O            0.082371735276     1.004222428576     0.503902489333    15.994914619570
         C           -0.721899064724    -1.031194171424     0.127818489333    12.000000000000
         C            0.685163435276    -1.092029671424     0.062731489333    12.000000000000
         C           -1.074697564724     0.264837328576     0.395547489333    12.000000000000
         C            1.136858435276     0.178970328576     0.303722489333    12.000000000000
         C           -2.359488564724     1.003454328576     0.520225489333    12.000000000000
         C            2.481699435276     0.813675328576     0.341341489333    12.000000000000
         C           -1.686219564724    -2.180356671424    -0.088174510667    12.000000000000
         C            1.509297435276    -2.319883671424    -0.175828510667    12.000000000000
         C           -2.851855564724     1.558509328576    -0.824260510667    12.000000000000
         C            2.809879435276     1.576036328576    -0.950607510667    12.000000000000
         H            3.230393435276     0.031924328576     0.519808489333     1.007825032230
         H            2.527371435276     1.497843328576     1.197842489333     1.007825032230
         H           -2.219146564724     1.824083328576     1.234852489333     1.007825032230
         H           -3.116213564724     0.333277328576     0.949523489333     1.007825032230
         H           -1.426187564724    -3.037138671424     0.544523489333     1.007825032230
         H           -2.715211564724    -1.888659671424     0.146128489333     1.007825032230
         H           -1.668228564724    -2.524702671424    -1.130665510667     1.007825032230
         H            2.510783435276    -2.061858671424    -0.538370510667     1.007825032230
         H            1.627500435276    -2.915028671424     0.738952489333     1.007825032230
         H            1.039780435276    -2.962674671424    -0.928248510667     1.007825032230
         H            2.809653435276     0.894806328576    -1.805920510667     1.007825032230
         H            3.793897435276     2.050319328576    -0.885081510667     1.007825032230
         H            2.060640435276     2.352919328576    -1.130947510667     1.007825032230
         H           -2.102619564724     2.231484328576    -1.253306510667     1.007825032230
         H           -3.786108564724     2.113925328576    -0.700357510667     1.007825032230
         H           -3.025097564724     0.743103328576    -1.533007510667     1.007825032230

  Basis Set: AUG-CC-PVTZ
    Blend: AUG-CC-PVTZ
  Basis Set: (AUG-CC-PVTZ AUX)
    Blend: AUG-CC-PVTZ-JKFIT
	 Reference Energy          =    -463.0117399840411281 [Eh]
	 Singles Energy            =      -0.0000000000000000 [Eh]
	 Same-Spin Energy          =      -0.4972975470368690 [Eh]
	 Opposite-Spin Energy      =      -1.6666230261625914 [Eh]
	 Correlation Energy        =      -2.1639205731994604 [Eh]
	 Total Energy              =    -465.1756605572405761 [Eh]

	 ================> DF-SCS-MP2 Energies <==================
	-----------------------------------------------------------
	 SCS Same-Spin Scale       =       0.3333333333333333 [-]
	 SCS Opposite-Spin Scale   =       1.2000000000000000 [-]
	 SCS Same-Spin Energy      =      -0.1657658490122896 [Eh]
	 SCS Opposite-Spin Energy  =      -1.9999476313951097 [Eh]
	 SCS Correlation Energy    =      -2.1657134804073994 [Eh]
	 SCS Total Energy          =    -465.1774534644485470 [Eh]
	-----------------------------------------------------------

  Dipole Moment: [D]
     X:    -0.0674      Y:    -0.5598      Z:    -0.1980     Total:     0.5976

*** Psi4 exiting successfully. Buy a developer a beer!
