                               Psi4 1.3.2 release

  ==> Input File <==

--------------------------------------------------------------------------
#psi4
#
memory 32 gb

molecule  {
0 1
  O        0.0723890     1.0222580     0.5077940
  C       -0.7418240    -1.0387750     0.1269710
  C        0.7882007    -1.0974491     0.0577989
  C       -1.0714850     0.2632460     0.3951280
  C        1.1400710     0.1773790     0.3033030
  C       -2.3562760     1.0018630     0.5198060
  C        2.4849120     0.8120840     0.3409220
  C       -1.6830070    -2.1819480    -0.0885940
  C        1.5125100    -2.3214750    -0.1762480
  C       -2.8486430     1.5569180    -0.8246800
  C        2.8130920     1.5744450    -0.9510270
  H        3.2336060     0.0303330     0.5193890
  H        2.5305840     1.4962520     1.1974230
  H       -2.2159340     1.8224920     1.2344330
  H       -3.1130010     0.3316860     0.9491040
  H       -1.4229750    -3.0387300     0.5441040
  H       -2.7119990    -1.8902510     0.1457090
  H       -1.6650160    -2.5262940    -1.1310850
  H        2.5139960    -2.0634500    -0.5387900
  H        1.6307130    -2.9166200     0.7385330
  H        1.0429930    -2.9642660    -0.9286680
  H        2.8128660     0.8932150    -1.8063400
  H        3.7971100     2.0487280    -0.8855010
  H        2.0638530     2.3513280    -1.1313670
  H       -2.0994070     2.2298930    -1.2537260
  H       -3.7828960     2.1123340    -0.7007770
  H       -3.0218850     0.7415120    -1.5334270
units angstrom
no_reorient  #important for SAPT in psi4, default
symmetry c1  #important for SAPT in psi4, default
}

set PROPERTIES_ORIGIN ["COM"]
properties('MP2/aug-cc-pvtz', properties = ['dipole'])
--------------------------------------------------------------------------

    Molecular point group: c1
  Charge       = 0
  Multiplicity = 1
  Basis Set: AUG-CC-PVTZ
    Blend: AUG-CC-PVTZ
  Basis Set: (AUG-CC-PVTZ AUX)
    Blend: AUG-CC-PVTZ-JKFIT

    Orbital Energies [Eh]
    ---------------------

    Doubly Occupied:

       1A    -20.596515     2A    -11.270290     3A    -11.269980
       4A    -11.230508     5A    -11.227375     6A    -11.222696
       7A    -11.222059     8A    -11.220687     9A    -11.218145
      10A    -11.215732    11A    -11.213947    12A     -1.428003
      13A     -1.094818    14A     -1.079820    15A     -1.034708
      16A     -0.996458    17A     -0.935341    18A     -0.926710
      19A     -0.867819    20A     -0.816663    21A     -0.754024
      22A     -0.707311    23A     -0.658038    24A     -0.627811
      25A     -0.611299    26A     -0.610640    27A     -0.586952
      28A     -0.584903    29A     -0.570204    30A     -0.559206
      31A     -0.555759    32A     -0.541789    33A     -0.530801
      34A     -0.523420    35A     -0.518754    36A     -0.505281
      37A     -0.494213    38A     -0.493092    39A     -0.484034
      40A     -0.447359    41A     -0.351013    42A     -0.288001

  @DF-RHF Final Energy:  -463.00461359621431

   => Energetics <=

    Nuclear Repulsion Energy =            628.8954602698278222
    One-Electron Energy =               -1875.6157921748069839
    Two-Electron Energy =                 783.7157183087647354
    Total Energy =                       -463.0046135962143126
  Basis Set: (AUG-CC-PVTZ AUX)
    Blend: AUG-CC-PVTZ-RI
    Molecular point group: c1

    Geometry (in Angstrom), charge = 0, multiplicity = 1:

       Center              X                  Y                   Z               Mass
    ------------   -----------------  -----------------  -----------------  -----------------
         O            0.064514404206     1.022560088231     0.508149981119    15.994914619570
         C           -0.749698595794    -1.038472911769     0.127326981119    12.000000000000
         C            0.780326104206    -1.097147011769     0.058154881119    12.000000000000
         C           -1.079359595794     0.263548088231     0.395483981119    12.000000000000
         C            1.132196404206     0.177681088231     0.303658981119    12.000000000000
         C           -2.364150595794     1.002165088231     0.520161981119    12.000000000000
         C            2.477037404206     0.812386088231     0.341277981119    12.000000000000
         C           -1.690881595794    -2.181645911769    -0.088238018881    12.000000000000
         C            1.504635404206    -2.321172911769    -0.175892018881    12.000000000000
         C           -2.856517595794     1.557220088231    -0.824324018881    12.000000000000
         C            2.805217404206     1.574747088231    -0.950671018881    12.000000000000
         H            3.225731404206     0.030635088231     0.519744981119     1.007825032230
         H            2.522709404206     1.496554088231     1.197778981119     1.007825032230
         H           -2.223808595794     1.822794088231     1.234788981119     1.007825032230
         H           -3.120875595794     0.331988088231     0.949459981119     1.007825032230
         H           -1.430849595794    -3.038427911769     0.544459981119     1.007825032230
         H           -2.719873595794    -1.889948911769     0.146064981119     1.007825032230
         H           -1.672890595794    -2.525991911769    -1.130729018881     1.007825032230
         H            2.506121404206    -2.063147911769    -0.538434018881     1.007825032230
         H            1.622838404206    -2.916317911769     0.738888981119     1.007825032230
         H            1.035118404206    -2.963963911769    -0.928312018881     1.007825032230
         H            2.804991404206     0.893517088231    -1.805984018881     1.007825032230
         H            3.789235404206     2.049030088231    -0.885145018881     1.007825032230
         H            2.055978404206     2.351630088231    -1.131011018881     1.007825032230
         H           -2.107281595794     2.230195088231    -1.253370018881     1.007825032230
         H           -3.790770595794     2.112636088231    -0.700421018881     1.007825032230
         H           -3.029759595794     0.741814088231    -1.533071018881     1.007825032230

  Basis Set: AUG-CC-PVTZ
    Blend: AUG-CC-PVTZ
  Basis Set: (AUG-CC-PVTZ AUX)
    Blend: AUG-CC-PVTZ-JKFIT
	 Reference Energy          =    -463.0046135962143126 [Eh]
	 Singles Energy            =      -0.0000000000000000 [Eh]
	 Same-Spin Energy          =      -0.4958890728432762 [Eh]
	 Opposite-Spin Energy      =      -1.6661912765469262 [Eh]
	 Correlation Energy        =      -2.1620803493902025 [Eh]
	 Total Energy              =    -465.1666939456044929 [Eh]

	 ================> DF-SCS-MP2 Energies <==================
	-----------------------------------------------------------
	 SCS Same-Spin Scale       =       0.3333333333333333 [-]
	 SCS Opposite-Spin Scale   =       1.2000000000000000 [-]
	 SCS Same-Spin Energy      =      -0.1652963576144254 [Eh]
	 SCS Opposite-Spin Energy  =      -1.9994295318563113 [Eh]
	 SCS Correlation Energy    =      -2.1647258894707369 [Eh]
	 SCS Total Energy          =    -465.1693394856850432 [Eh]
	-----------------------------------------------------------

  Dipole Moment: [D]
     X:    -0.0379      Y:    -0.7257      Z:    -0.2296     Total:     0.7621

*** Psi4 exiting successfully. Buy a developer a beer!
