                               Psi4 1.3.2 release

  ==> Input File <==

--------------------------------------------------------------------------
#psi4
#
memory 32 gb

molecule  {
0 1
  O        0.0723890     1.0222580     0.5077940
  C       -0.7427365    -1.0634229     0.1228587
  C        0.6883760    -1.0936210     0.0623120
  C       -1.0714850     0.2632460     0.3951280
  C        1.1400710     0.1773790     0.3033030
  C       -2.3562760     1.0018630     0.5198060
  C        2.4849120     0.8120840     0.3409220
  C       -1.6830070    -2.1819480    -0.0885940
  C        1.4905776    -2.3356204    -0.1777783
  C       -2.8486430     1.5569180    -0.8246800
  C        2.8130920     1.5744450    -0.9510270
  H        3.2336060     0.0303330     0.5193890
  H        2.5305840     1.4962520     1.1974230
  H       -2.2159340     1.8224920     1.2344330
  H       -3.1130010     0.3316860     0.9491040
  H       -1.4229750    -3.0387300     0.5441040
  H       -2.7119990    -1.8902510     0.1457090
  H       -1.6650160    -2.5262940    -1.1310850
  H        2.5139960    -2.0634500    -0.5387900
  H        1.6307130    -2.9166200     0.7385330
  H        1.0429930    -2.9642660    -0.9286680
  H        2.8128660     0.8932150    -1.8063400
  H        3.7971100     2.0487280    -0.8855010
  H        2.0638530     2.3513280    -1.1313670
  H       -2.0994070     2.2298930    -1.2537260
  H       -3.7828960     2.1123340    -0.7007770
  H       -3.0218850     0.7415120    -1.5334270
units angstrom
no_reorient  #important for SAPT in psi4, default
symmetry c1  #important for SAPT in psi4, default
}

set PROPERTIES_ORIGIN ["COM"]
properties('MP2/aug-cc-pvtz', properties = ['dipole'])
--------------------------------------------------------------------------

    Molecular point group: c1
  Charge       = 0
  Multiplicity = 1
  Basis Set: AUG-CC-PVTZ
    Blend: AUG-CC-PVTZ
  Basis Set: (AUG-CC-PVTZ AUX)
    Blend: AUG-CC-PVTZ-JKFIT

    Orbital Energies [Eh]
    ---------------------

    Doubly Occupied:

       1A    -20.600564     2A    -11.272816     3A    -11.269638
       4A    -11.230147     5A    -11.229997     6A    -11.222552
       7A    -11.222469     8A    -11.217357     9A    -11.216271
      10A    -11.215512    11A    -11.214488    12A     -1.429913
      13A     -1.099039    14A     -1.078289    15A     -1.036319
      16A     -0.991314    17A     -0.931948    18A     -0.927488
      19A     -0.869995    20A     -0.814220    21A     -0.748757
      22A     -0.722075    23A     -0.658018    24A     -0.627721
      25A     -0.611088    26A     -0.610026    27A     -0.586874
      28A     -0.583868    29A     -0.570800    30A     -0.558440
      31A     -0.549001    32A     -0.531811    33A     -0.529238
      34A     -0.526602    35A     -0.521208    36A     -0.505359
      37A     -0.495020    38A     -0.492090    39A     -0.483943
      40A     -0.464248    41A     -0.359321    42A     -0.276021

  @DF-RHF Final Energy:  -463.00857312470526

   => Energetics <=

    Nuclear Repulsion Energy =            629.2755277607143398
    One-Electron Energy =               -1876.3644745217832224
    Two-Electron Energy =                 784.0803736363635608
    Total Energy =                       -463.0085731247053218
  Basis Set: (AUG-CC-PVTZ AUX)
    Blend: AUG-CC-PVTZ-RI
    Molecular point group: c1

    Geometry (in Angstrom), charge = 0, multiplicity = 1:

       Center              X                  Y                   Z               Mass
    ------------   -----------------  -----------------  -----------------  -----------------
         O            0.074191199406     1.025318319117     0.508239081761    15.994914619570
         C           -0.740934300594    -1.060362580883     0.123303781761    12.000000000000
         C            0.690178199406    -1.090560680883     0.062757081761    12.000000000000
         C           -1.069682800594     0.266306319117     0.395573081761    12.000000000000
         C            1.141873199406     0.180439319117     0.303748081761    12.000000000000
         C           -2.354473800594     1.004923319117     0.520251081761    12.000000000000
         C            2.486714199406     0.815144319117     0.341367081761    12.000000000000
         C           -1.681204800594    -2.178887680883    -0.088148918239    12.000000000000
         C            1.492379799406    -2.332560080883    -0.177333218239    12.000000000000
         C           -2.846840800594     1.559978319117    -0.824234918239    12.000000000000
         C            2.814894199406     1.577505319117    -0.950581918239    12.000000000000
         H            3.235408199406     0.033393319117     0.519834081761     1.007825032230
         H            2.532386199406     1.499312319117     1.197868081761     1.007825032230
         H           -2.214131800594     1.825552319117     1.234878081761     1.007825032230
         H           -3.111198800594     0.334746319117     0.949549081761     1.007825032230
         H           -1.421172800594    -3.035669680883     0.544549081761     1.007825032230
         H           -2.710196800594    -1.887190680883     0.146154081761     1.007825032230
         H           -1.663213800594    -2.523233680883    -1.130639918239     1.007825032230
         H            2.515798199406    -2.060389680883    -0.538344918239     1.007825032230
         H            1.632515199406    -2.913559680883     0.738978081761     1.007825032230
         H            1.044795199406    -2.961205680883    -0.928222918239     1.007825032230
         H            2.814668199406     0.896275319117    -1.805894918239     1.007825032230
         H            3.798912199406     2.051788319117    -0.885055918239     1.007825032230
         H            2.065655199406     2.354388319117    -1.130921918239     1.007825032230
         H           -2.097604800594     2.232953319117    -1.253280918239     1.007825032230
         H           -3.781093800594     2.115394319117    -0.700331918239     1.007825032230
         H           -3.020082800594     0.744572319117    -1.532981918239     1.007825032230

  Basis Set: AUG-CC-PVTZ
    Blend: AUG-CC-PVTZ
  Basis Set: (AUG-CC-PVTZ AUX)
    Blend: AUG-CC-PVTZ-JKFIT
	 Reference Energy          =    -463.0085731247052649 [Eh]
	 Singles Energy            =      -0.0000000000000000 [Eh]
	 Same-Spin Energy          =      -0.4977954992004493 [Eh]
	 Opposite-Spin Energy      =      -1.6681564913922782 [Eh]
	 Correlation Energy        =      -2.1659519905927276 [Eh]
	 Total Energy              =    -465.1745251152979677 [Eh]

	 ================> DF-SCS-MP2 Energies <==================
	-----------------------------------------------------------
	 SCS Same-Spin Scale       =       0.3333333333333333 [-]
	 SCS Opposite-Spin Scale   =       1.2000000000000000 [-]
	 SCS Same-Spin Energy      =      -0.1659318330668164 [Eh]
	 SCS Opposite-Spin Energy  =      -2.0017877896707339 [Eh]
	 SCS Correlation Energy    =      -2.1677196227375504 [Eh]
	 SCS Total Energy          =    -465.1762927474428011 [Eh]
	-----------------------------------------------------------

  Dipole Moment: [D]
     X:    -0.0479      Y:    -0.6605      Z:    -0.2153     Total:     0.6964

*** Psi4 exiting successfully. Buy a developer a beer!
