                               Psi4 1.3.2 release

  ==> Input File <==

--------------------------------------------------------------------------
#psi4
#
memory 32 gb

molecule  {
0 1
  O        0.0723890     1.0222580     0.5077940
  C       -0.7418240    -1.0387750     0.1269710
  C        0.6883760    -1.0936210     0.0623120
  C       -1.0660560     0.2713602     0.4036791
  C        1.1400710     0.1773790     0.3033030
  C       -2.3562760     1.0018630     0.5198060
  C        2.4849120     0.8120840     0.3409220
  C       -1.6830070    -2.1819480    -0.0885940
  C        1.5125100    -2.3214750    -0.1762480
  C       -2.8486430     1.5569180    -0.8246800
  C        2.8130920     1.5744450    -0.9510270
  H        3.2336060     0.0303330     0.5193890
  H        2.5305840     1.4962520     1.1974230
  H       -2.2068152     1.8198310     1.2356338
  H       -3.1130010     0.3316860     0.9491040
  H       -1.4229750    -3.0387300     0.5441040
  H       -2.7119990    -1.8902510     0.1457090
  H       -1.6650160    -2.5262940    -1.1310850
  H        2.5139960    -2.0634500    -0.5387900
  H        1.6307130    -2.9166200     0.7385330
  H        1.0429930    -2.9642660    -0.9286680
  H        2.8128660     0.8932150    -1.8063400
  H        3.7971100     2.0487280    -0.8855010
  H        2.0638530     2.3513280    -1.1313670
  H       -2.0994070     2.2298930    -1.2537260
  H       -3.7828960     2.1123340    -0.7007770
  H       -3.0218850     0.7415120    -1.5334270
units angstrom
no_reorient  #important for SAPT in psi4, default
symmetry c1  #important for SAPT in psi4, default
}

set PROPERTIES_ORIGIN ["COM"]
properties('MP2/aug-cc-pvtz', properties = ['dipole'])
--------------------------------------------------------------------------

    Molecular point group: c1
  Charge       = 0
  Multiplicity = 1
  Basis Set: AUG-CC-PVTZ
    Blend: AUG-CC-PVTZ
  Basis Set: (AUG-CC-PVTZ AUX)
    Blend: AUG-CC-PVTZ-JKFIT

    Orbital Energies [Eh]
    ---------------------

    Doubly Occupied:

       1A    -20.600224     2A    -11.270257     3A    -11.269073
       4A    -11.230057     5A    -11.229989     6A    -11.222978
       7A    -11.222933     8A    -11.216444     9A    -11.215706
      10A    -11.215203    11A    -11.214609    12A     -1.433551
      13A     -1.098094    14A     -1.078977    15A     -1.036193
      16A     -0.989592    17A     -0.932121    18A     -0.928191
      19A     -0.870362    20A     -0.815324    21A     -0.750759
      22A     -0.721518    23A     -0.658702    24A     -0.628373
      25A     -0.611079    26A     -0.609658    27A     -0.587453
      28A     -0.583286    29A     -0.568053    30A     -0.555700
      31A     -0.549574    32A     -0.533545    33A     -0.528350
      34A     -0.525062    35A     -0.521398    36A     -0.505551
      37A     -0.495633    38A     -0.491772    39A     -0.484475
      40A     -0.465909    41A     -0.360008    42A     -0.277860

  @DF-RHF Final Energy:  -463.01181265584449

   => Energetics <=

    Nuclear Repulsion Energy =            629.6119591179334520
    One-Electron Energy =               -1877.0403493575804532
    Two-Electron Energy =                 784.4165775838023364
    Total Energy =                       -463.0118126558445510
  Basis Set: (AUG-CC-PVTZ AUX)
    Blend: AUG-CC-PVTZ-RI
    Molecular point group: c1

    Geometry (in Angstrom), charge = 0, multiplicity = 1:

       Center              X                  Y                   Z               Mass
    ------------   -----------------  -----------------  -----------------  -----------------
         O            0.071900398123     1.021635649162     0.507111455766    15.994914619570
         C           -0.742312601877    -1.039397350838     0.126288455766    12.000000000000
         C            0.687887398123    -1.094243350838     0.061629455766    12.000000000000
         C           -1.066544601877     0.270737849162     0.402996555766    12.000000000000
         C            1.139582398123     0.176756649162     0.302620455766    12.000000000000
         C           -2.356764601877     1.001240649162     0.519123455766    12.000000000000
         C            2.484423398123     0.811461649162     0.340239455766    12.000000000000
         C           -1.683495601877    -2.182570350838    -0.089276544234    12.000000000000
         C            1.512021398123    -2.322097350838    -0.176930544234    12.000000000000
         C           -2.849131601877     1.556295649162    -0.825362544234    12.000000000000
         C            2.812603398123     1.573822649162    -0.951709544234    12.000000000000
         H            3.233117398123     0.029710649162     0.518706455766     1.007825032230
         H            2.530095398123     1.495629649162     1.196740455766     1.007825032230
         H           -2.207303801877     1.819208649162     1.234951255766     1.007825032230
         H           -3.113489601877     0.331063649162     0.948421455766     1.007825032230
         H           -1.423463601877    -3.039352350838     0.543421455766     1.007825032230
         H           -2.712487601877    -1.890873350838     0.145026455766     1.007825032230
         H           -1.665504601877    -2.526916350838    -1.131767544234     1.007825032230
         H            2.513507398123    -2.064072350838    -0.539472544234     1.007825032230
         H            1.630224398123    -2.917242350838     0.737850455766     1.007825032230
         H            1.042504398123    -2.964888350838    -0.929350544234     1.007825032230
         H            2.812377398123     0.892592649162    -1.807022544234     1.007825032230
         H            3.796621398123     2.048105649162    -0.886183544234     1.007825032230
         H            2.063364398123     2.350705649162    -1.132049544234     1.007825032230
         H           -2.099895601877     2.229270649162    -1.254408544234     1.007825032230
         H           -3.783384601877     2.111711649162    -0.701459544234     1.007825032230
         H           -3.022373601877     0.740889649162    -1.534109544234     1.007825032230

  Basis Set: AUG-CC-PVTZ
    Blend: AUG-CC-PVTZ
  Basis Set: (AUG-CC-PVTZ AUX)
    Blend: AUG-CC-PVTZ-JKFIT
	 Reference Energy          =    -463.0118126558444942 [Eh]
	 Singles Energy            =      -0.0000000000000000 [Eh]
	 Same-Spin Energy          =      -0.4972283749363455 [Eh]
	 Opposite-Spin Energy      =      -1.6671345271297660 [Eh]
	 Correlation Energy        =      -2.1643629020661113 [Eh]
	 Total Energy              =    -465.1761755579105966 [Eh]

	 ================> DF-SCS-MP2 Energies <==================
	-----------------------------------------------------------
	 SCS Same-Spin Scale       =       0.3333333333333333 [-]
	 SCS Opposite-Spin Scale   =       1.2000000000000000 [-]
	 SCS Same-Spin Energy      =      -0.1657427916454485 [Eh]
	 SCS Opposite-Spin Energy  =      -2.0005614325557191 [Eh]
	 SCS Correlation Energy    =      -2.1663042242011676 [Eh]
	 SCS Total Energy          =    -465.1781168800456499 [Eh]
	-----------------------------------------------------------

  Dipole Moment: [D]
     X:    -0.0147      Y:    -0.6386      Z:    -0.2171     Total:     0.6747

*** Psi4 exiting successfully. Buy a developer a beer!
