                               Psi4 1.3.2 release

  ==> Input File <==

--------------------------------------------------------------------------
#psi4
#
memory 32 gb

molecule  {
0 1
  O        0.0723890     1.0222580     0.5077940
  C       -0.7418240    -1.0387750     0.1269710
  C        0.6883760    -1.0936210     0.0623120
  C       -0.9884393     0.3183505     0.4033076
  C        1.1400710     0.1773790     0.3033030
  C       -2.3562760     1.0018630     0.5198060
  C        2.4849120     0.8120840     0.3409220
  C       -1.6830070    -2.1819480    -0.0885940
  C        1.5125100    -2.3214750    -0.1762480
  C       -2.8486430     1.5569180    -0.8246800
  C        2.8130920     1.5744450    -0.9510270
  H        3.2336060     0.0303330     0.5193890
  H        2.5305840     1.4962520     1.1974230
  H       -2.2159340     1.8224920     1.2344330
  H       -3.1130010     0.3316860     0.9491040
  H       -1.4229750    -3.0387300     0.5441040
  H       -2.7119990    -1.8902510     0.1457090
  H       -1.6650160    -2.5262940    -1.1310850
  H        2.5139960    -2.0634500    -0.5387900
  H        1.6307130    -2.9166200     0.7385330
  H        1.0429930    -2.9642660    -0.9286680
  H        2.8128660     0.8932150    -1.8063400
  H        3.7971100     2.0487280    -0.8855010
  H        2.0638530     2.3513280    -1.1313670
  H       -2.0994070     2.2298930    -1.2537260
  H       -3.7828960     2.1123340    -0.7007770
  H       -3.0218850     0.7415120    -1.5334270
units angstrom
no_reorient  #important for SAPT in psi4, default
symmetry c1  #important for SAPT in psi4, default
}

set PROPERTIES_ORIGIN ["COM"]
properties('MP2/aug-cc-pvtz', properties = ['dipole'])
--------------------------------------------------------------------------

    Molecular point group: c1
  Charge       = 0
  Multiplicity = 1
  Basis Set: AUG-CC-PVTZ
    Blend: AUG-CC-PVTZ
  Basis Set: (AUG-CC-PVTZ AUX)
    Blend: AUG-CC-PVTZ-JKFIT

    Orbital Energies [Eh]
    ---------------------

    Doubly Occupied:

       1A    -20.614272     2A    -11.275102     3A    -11.264170
       4A    -11.231185     5A    -11.229403     6A    -11.223256
       7A    -11.222267     8A    -11.218870     9A    -11.215472
      10A    -11.213797    11A    -11.210398    12A     -1.476376
      13A     -1.099440    14A     -1.075228    15A     -1.033125
      16A     -0.986849    17A     -0.937683    18A     -0.929880
      19A     -0.866636    20A     -0.815535    21A     -0.764063
      22A     -0.722103    23A     -0.668700    24A     -0.644292
      25A     -0.610576    26A     -0.606859    27A     -0.592084
      28A     -0.580365    29A     -0.570520    30A     -0.554854
      31A     -0.549218    32A     -0.538651    33A     -0.534050
      34A     -0.528641    35A     -0.518793    36A     -0.506243
      37A     -0.494834    38A     -0.487311    39A     -0.484913
      40A     -0.452674    41A     -0.359300    42A     -0.272510

  @DF-RHF Final Energy:  -463.00320626101586

   => Energetics <=

    Nuclear Repulsion Energy =            630.5496577782730583
    One-Electron Energy =               -1878.7447350438308149
    Two-Electron Energy =                 785.1918710045418948
    Total Energy =                       -463.0032062610158619
  Basis Set: (AUG-CC-PVTZ AUX)
    Blend: AUG-CC-PVTZ-RI
    Molecular point group: c1

    Geometry (in Angstrom), charge = 0, multiplicity = 1:

       Center              X                  Y                   Z               Mass
    ------------   -----------------  -----------------  -----------------  -----------------
         O            0.065838016141     1.017911188252     0.507148717086    15.994914619570
         C           -0.748374983859    -1.043121811748     0.126325717086    12.000000000000
         C            0.681825016141    -1.097967811748     0.061666717086    12.000000000000
         C           -0.994990283859     0.314003688252     0.402662317086    12.000000000000
         C            1.133520016141     0.173032188252     0.302657717086    12.000000000000
         C           -2.362826983859     0.997516188252     0.519160717086    12.000000000000
         C            2.478361016141     0.807737188252     0.340276717086    12.000000000000
         C           -1.689557983859    -2.186294811748    -0.089239282914    12.000000000000
         C            1.505959016141    -2.325821811748    -0.176893282914    12.000000000000
         C           -2.855193983859     1.552571188252    -0.825325282914    12.000000000000
         C            2.806541016141     1.570098188252    -0.951672282914    12.000000000000
         H            3.227055016141     0.025986188252     0.518743717086     1.007825032230
         H            2.524033016141     1.491905188252     1.196777717086     1.007825032230
         H           -2.222484983859     1.818145188252     1.233787717086     1.007825032230
         H           -3.119551983859     0.327339188252     0.948458717086     1.007825032230
         H           -1.429525983859    -3.043076811748     0.543458717086     1.007825032230
         H           -2.718549983859    -1.894597811748     0.145063717086     1.007825032230
         H           -1.671566983859    -2.530640811748    -1.131730282914     1.007825032230
         H            2.507445016141    -2.067796811748    -0.539435282914     1.007825032230
         H            1.624162016141    -2.920966811748     0.737887717086     1.007825032230
         H            1.036442016141    -2.968612811748    -0.929313282914     1.007825032230
         H            2.806315016141     0.888868188252    -1.806985282914     1.007825032230
         H            3.790559016141     2.044381188252    -0.886146282914     1.007825032230
         H            2.057302016141     2.346981188252    -1.132012282914     1.007825032230
         H           -2.105957983859     2.225546188252    -1.254371282914     1.007825032230
         H           -3.789446983859     2.107987188252    -0.701422282914     1.007825032230
         H           -3.028435983859     0.737165188252    -1.534072282914     1.007825032230

  Basis Set: AUG-CC-PVTZ
    Blend: AUG-CC-PVTZ
  Basis Set: (AUG-CC-PVTZ AUX)
    Blend: AUG-CC-PVTZ-JKFIT
	 Reference Energy          =    -463.0032062610158619 [Eh]
	 Singles Energy            =      -0.0000000000000000 [Eh]
	 Same-Spin Energy          =      -0.4971754148034448 [Eh]
	 Opposite-Spin Energy      =      -1.6657233016135269 [Eh]
	 Correlation Energy        =      -2.1628987164169717 [Eh]
	 Total Energy              =    -465.1661049774328376 [Eh]

	 ================> DF-SCS-MP2 Energies <==================
	-----------------------------------------------------------
	 SCS Same-Spin Scale       =       0.3333333333333333 [-]
	 SCS Opposite-Spin Scale   =       1.2000000000000000 [-]
	 SCS Same-Spin Energy      =      -0.1657251382678149 [Eh]
	 SCS Opposite-Spin Energy  =      -1.9988679619362322 [Eh]
	 SCS Correlation Energy    =      -2.1645931002040473 [Eh]
	 SCS Total Energy          =    -465.1677993612199202 [Eh]
	-----------------------------------------------------------

  Dipole Moment: [D]
     X:     0.1171      Y:    -0.5565      Z:    -0.1809     Total:     0.5968

*** Psi4 exiting successfully. Buy a developer a beer!
