                               Psi4 1.3.2 release

  ==> Input File <==

--------------------------------------------------------------------------
#psi4
#
memory 32 gb

molecule  {
0 1
  O        0.0723890     1.0222580     0.5077940
  C       -0.7418240    -1.0387750     0.1269710
  C        0.6883760    -1.0936210     0.0623120
  C       -1.0440562     0.2247097     0.3865193
  C        1.1091251     0.1411349     0.2971232
  C       -2.3562760     1.0018630     0.5198060
  C        2.4849120     0.8120840     0.3409220
  C       -1.6830070    -2.1819480    -0.0885940
  C        1.5125100    -2.3214750    -0.1762480
  C       -2.8486430     1.5569180    -0.8246800
  C        2.8130920     1.5744450    -0.9510270
  H        3.2336060     0.0303330     0.5193890
  H        2.5305840     1.4962520     1.1974230
  H       -2.2159340     1.8224920     1.2344330
  H       -3.1130010     0.3316860     0.9491040
  H       -1.4229750    -3.0387300     0.5441040
  H       -2.7119990    -1.8902510     0.1457090
  H       -1.6650160    -2.5262940    -1.1310850
  H        2.5139960    -2.0634500    -0.5387900
  H        1.6307130    -2.9166200     0.7385330
  H        1.0429930    -2.9642660    -0.9286680
  H        2.8128660     0.8932150    -1.8063400
  H        3.7971100     2.0487280    -0.8855010
  H        2.0638530     2.3513280    -1.1313670
  H       -2.0994070     2.2298930    -1.2537260
  H       -3.7828960     2.1123340    -0.7007770
  H       -3.0218850     0.7415120    -1.5334270
units angstrom
no_reorient  #important for SAPT in psi4, default
symmetry c1  #important for SAPT in psi4, default
}

set PROPERTIES_ORIGIN ["COM"]
properties('MP2/aug-cc-pvtz', properties = ['dipole'])
--------------------------------------------------------------------------

    Molecular point group: c1
  Charge       = 0
  Multiplicity = 1
  Basis Set: AUG-CC-PVTZ
    Blend: AUG-CC-PVTZ
  Basis Set: (AUG-CC-PVTZ AUX)
    Blend: AUG-CC-PVTZ-JKFIT

    Orbital Energies [Eh]
    ---------------------

    Doubly Occupied:

       1A    -20.597223     2A    -11.265760     3A    -11.265590
       4A    -11.230902     5A    -11.230740     6A    -11.224534
       7A    -11.224208     8A    -11.214616     9A    -11.213827
      10A    -11.211193    11A    -11.210122    12A     -1.432857
      13A     -1.109942    14A     -1.072088    15A     -1.029867
      16A     -0.993017    17A     -0.940596    18A     -0.925452
      19A     -0.862965    20A     -0.817278    21A     -0.752023
      22A     -0.722904    23A     -0.656959    24A     -0.631013
      25A     -0.607066    26A     -0.606157    27A     -0.584630
      28A     -0.580928    29A     -0.568176    30A     -0.557021
      31A     -0.550899    32A     -0.533241    33A     -0.530124
      34A     -0.529597    35A     -0.518393    36A     -0.504316
      37A     -0.492347    38A     -0.489637    39A     -0.476859
      40A     -0.466408    41A     -0.370304    42A     -0.290362

  @DF-RHF Final Energy:  -463.00995904573296

   => Energetics <=

    Nuclear Repulsion Energy =            630.5296959118891209
    One-Electron Energy =               -1878.8950220229485240
    Two-Electron Energy =                 785.3553670653263907
    Total Energy =                       -463.0099590457330123
  Basis Set: (AUG-CC-PVTZ AUX)
    Blend: AUG-CC-PVTZ-RI
    Molecular point group: c1

    Geometry (in Angstrom), charge = 0, multiplicity = 1:

       Center              X                  Y                   Z               Mass
    ------------   -----------------  -----------------  -----------------  -----------------
         O            0.072666525304     1.028157162617     0.508960556366    15.994914619570
         C           -0.741546474696    -1.032875837383     0.128137556366    12.000000000000
         C            0.688653525304    -1.087721837383     0.063478556366    12.000000000000
         C           -1.043778674696     0.230608862617     0.387685856366    12.000000000000
         C            1.109402625304     0.147034062617     0.298289756366    12.000000000000
         C           -2.355998474696     1.007762162617     0.520972556366    12.000000000000
         C            2.485189525304     0.817983162617     0.342088556366    12.000000000000
         C           -1.682729474696    -2.176048837383    -0.087427443634    12.000000000000
         C            1.512787525304    -2.315575837383    -0.175081443634    12.000000000000
         C           -2.848365474696     1.562817162617    -0.823513443634    12.000000000000
         C            2.813369525304     1.580344162617    -0.949860443634    12.000000000000
         H            3.233883525304     0.036232162617     0.520555556366     1.007825032230
         H            2.530861525304     1.502151162617     1.198589556366     1.007825032230
         H           -2.215656474696     1.828391162617     1.235599556366     1.007825032230
         H           -3.112723474696     0.337585162617     0.950270556366     1.007825032230
         H           -1.422697474696    -3.032830837383     0.545270556366     1.007825032230
         H           -2.711721474696    -1.884351837383     0.146875556366     1.007825032230
         H           -1.664738474696    -2.520394837383    -1.129918443634     1.007825032230
         H            2.514273525304    -2.057550837383    -0.537623443634     1.007825032230
         H            1.630990525304    -2.910720837383     0.739699556366     1.007825032230
         H            1.043270525304    -2.958366837383    -0.927501443634     1.007825032230
         H            2.813143525304     0.899114162617    -1.805173443634     1.007825032230
         H            3.797387525304     2.054627162617    -0.884334443634     1.007825032230
         H            2.064130525304     2.357227162617    -1.130200443634     1.007825032230
         H           -2.099129474696     2.235792162617    -1.252559443634     1.007825032230
         H           -3.782618474696     2.118233162617    -0.699610443634     1.007825032230
         H           -3.021607474696     0.747411162617    -1.532260443634     1.007825032230

  Basis Set: AUG-CC-PVTZ
    Blend: AUG-CC-PVTZ
  Basis Set: (AUG-CC-PVTZ AUX)
    Blend: AUG-CC-PVTZ-JKFIT
	 Reference Energy          =    -463.0099590457329555 [Eh]
	 Singles Energy            =      -0.0000000000000000 [Eh]
	 Same-Spin Energy          =      -0.4948004429454484 [Eh]
	 Opposite-Spin Energy      =      -1.6644322515662546 [Eh]
	 Correlation Energy        =      -2.1592326945117031 [Eh]
	 Total Energy              =    -465.1691917402446848 [Eh]

	 ================> DF-SCS-MP2 Energies <==================
	-----------------------------------------------------------
	 SCS Same-Spin Scale       =       0.3333333333333333 [-]
	 SCS Opposite-Spin Scale   =       1.2000000000000000 [-]
	 SCS Same-Spin Energy      =      -0.1649334809818161 [Eh]
	 SCS Opposite-Spin Energy  =      -1.9973187018795056 [Eh]
	 SCS Correlation Energy    =      -2.1622521828613217 [Eh]
	 SCS Total Energy          =    -465.1722112285942785 [Eh]
	-----------------------------------------------------------

  Dipole Moment: [D]
     X:    -0.0402      Y:    -0.7909      Z:    -0.2384     Total:     0.8270

*** Psi4 exiting successfully. Buy a developer a beer!
