                               Psi4 1.4a3.dev225

  ==> Input File <==

--------------------------------------------------------------------------
#psi4
#
memory 32 gb

molecule  {
0 1
  O        0.0000040    -0.9323440    -0.5200900
  C       -0.7186120     1.1388030    -0.0293360
  C        0.7186000     1.1388090    -0.0293300
  C       -1.1092540    -0.1401520    -0.3350070
  C        1.1149506    -0.1587897    -0.3394525
  C       -2.4197690    -0.8327410    -0.4659430
  C        2.4197760    -0.8327180    -0.4659420
  C       -1.5881550     2.3237520     0.2504950
  C        1.5881310     2.3237650     0.2505070
  C       -2.6404590    -1.8837440     0.6266770
  C        2.6404800    -1.8837320     0.6266650
  H        3.2127060    -0.0780420    -0.4310990
  H        2.4812700    -1.3082390    -1.4528680
  H       -2.4812630    -1.3082740    -1.4528630
  H       -3.2127060    -0.0780720    -0.4311050
  H       -1.4004860     3.1330380    -0.4637010
  H       -2.6480190     2.0627510     0.1871390
  H       -1.4034730     2.7248980     1.2531230
  H        2.6479980     2.0627640     0.1871950
  H        1.4004870     3.1330370    -0.4637120
  H        1.4034130     2.7249310     1.2531200
  H        2.6185650    -1.4170920     1.6153140
  H        3.6057420    -2.3837880     0.5012060
  H        1.8526560    -2.6398250     0.5898280
  H       -1.8526300    -2.6398320     0.5898440
  H       -3.6057190    -2.3838080     0.5012310
  H       -2.6185400    -1.4170920     1.6153210
units angstrom
no_reorient  #important for SAPT in psi4, default
symmetry c1  #important for SAPT in psi4, default
}

set PROPERTIES_ORIGIN ["COM"]
properties('MP2/aug-cc-pvtz', properties = ['dipole'])
--------------------------------------------------------------------------

    Molecular point group: c1
  Charge       = 0
  Multiplicity = 1
  Basis Set: AUG-CC-PVTZ
    Blend: AUG-CC-PVTZ
  Basis Set: (AUG-CC-PVTZ AUX)
    Blend: AUG-CC-PVTZ-JKFIT

    Orbital Energies [Eh]
    ---------------------

    Doubly Occupied:

       1A    -20.598744     2A    -11.272703     3A    -11.270761
       4A    -11.230064     5A    -11.229599     6A    -11.222559
       7A    -11.221901     8A    -11.218570     9A    -11.217095
      10A    -11.213827    11A    -11.213442    12A     -1.432864
      13A     -1.095912    14A     -1.080819    15A     -1.037947
      16A     -0.990137    17A     -0.931582    18A     -0.927133
      19A     -0.871173    20A     -0.816305    21A     -0.751490
      22A     -0.718859    23A     -0.660857    24A     -0.628935
      25A     -0.612345    26A     -0.610995    27A     -0.585376
      28A     -0.583578    29A     -0.568978    30A     -0.555826
      31A     -0.551729    32A     -0.532611    33A     -0.531783
      34A     -0.524796    35A     -0.517171    36A     -0.506267
      37A     -0.493440    38A     -0.491644    39A     -0.485658
      40A     -0.466002    41A     -0.358581    42A     -0.277509

  @DF-RHF Final Energy:  -463.01241550242662

   => Energetics <=

    Nuclear Repulsion Energy =            629.8815213642145636
    One-Electron Energy =               -1877.5727470916174298
    Two-Electron Energy =                 784.6788102249763597
    Total Energy =                       -463.0124155024266202
  Basis Set: (AUG-CC-PVTZ AUX)
    Blend: AUG-CC-PVTZ-RI
    Molecular point group: c1

    Geometry (in Angstrom), charge = 0, multiplicity = 1:

       Center              X                  Y                   Z               Mass
    ------------   -----------------  -----------------  -----------------  -----------------
         O           -0.000445172599    -0.929682195433    -0.496288638250    15.994914619570
         C           -0.719061172599     1.141464804567    -0.005534638250    12.000000000000
         C            0.718150827401     1.141470804567    -0.005528638250    12.000000000000
         C           -1.109703172599    -0.137490195433    -0.311205638250    12.000000000000
         C            1.114501427401    -0.156127895433    -0.315651138250    12.000000000000
         C           -2.420218172599    -0.830079195433    -0.442141638250    12.000000000000
         C            2.419326827401    -0.830056195433    -0.442140638250    12.000000000000
         C           -1.588604172599     2.326413804567     0.274296361750    12.000000000000
         C            1.587681827401     2.326426804567     0.274308361750    12.000000000000
         C           -2.640908172599    -1.881082195433     0.650478361750    12.000000000000
         C            2.640030827401    -1.881070195433     0.650466361750    12.000000000000
         H            3.212256827401    -0.075380195433    -0.407297638250     1.007825032230
         H            2.480820827401    -1.305577195433    -1.429066638250     1.007825032230
         H           -2.481712172599    -1.305612195433    -1.429061638250     1.007825032230
         H           -3.213155172599    -0.075410195433    -0.407303638250     1.007825032230
         H           -1.400935172599     3.135699804567    -0.439899638250     1.007825032230
         H           -2.648468172599     2.065412804567     0.210940361750     1.007825032230
         H           -1.403922172599     2.727559804567     1.276924361750     1.007825032230
         H            2.647548827401     2.065425804567     0.210996361750     1.007825032230
         H            1.400037827401     3.135698804567    -0.439910638250     1.007825032230
         H            1.402963827401     2.727592804567     1.276921361750     1.007825032230
         H            2.618115827401    -1.414430195433     1.639115361750     1.007825032230
         H            3.605292827401    -2.381126195433     0.525007361750     1.007825032230
         H            1.852206827401    -2.637163195433     0.613629361750     1.007825032230
         H           -1.853079172599    -2.637170195433     0.613645361750     1.007825032230
         H           -3.606168172599    -2.381146195433     0.525032361750     1.007825032230
         H           -2.618989172599    -1.414430195433     1.639122361750     1.007825032230

  Basis Set: AUG-CC-PVTZ
    Blend: AUG-CC-PVTZ
  Basis Set: (AUG-CC-PVTZ AUX)
    Blend: AUG-CC-PVTZ-JKFIT
	 Reference Energy          =    -463.0124155024266202 [Eh]
	 Singles Energy            =      -0.0000000000000000 [Eh]
	 Same-Spin Energy          =      -0.4973955443109834 [Eh]
	 Opposite-Spin Energy      =      -1.6672406927423422 [Eh]
	 Correlation Energy        =      -2.1646362370533256 [Eh]
	 Total Energy              =    -465.1770517394799640 [Eh]

	 ================> DF-SCS-MP2 Energies <==================
	-----------------------------------------------------------
	 SCS Same-Spin Scale       =       0.3333333333333333 [-]
	 SCS Opposite-Spin Scale   =       1.2000000000000000 [-]
	 SCS Same-Spin Energy      =      -0.1657985147703278 [Eh]
	 SCS Opposite-Spin Energy  =      -2.0006888312908107 [Eh]
	 SCS Correlation Energy    =      -2.1664873460611385 [Eh]
	 SCS Total Energy          =    -465.1789028484877804 [Eh]
	-----------------------------------------------------------

  Dipole Moment: [D]
     X:    -0.0028      Y:     0.6094      Z:     0.2174     Total:     0.6470

*** Psi4 exiting successfully. Buy a developer a beer!
