                               Psi4 1.3.2 release

  ==> Input File <==

--------------------------------------------------------------------------
#psi4
#
memory 32 gb

molecule  {
0 1
  O        0.0723890     1.0222580     0.5077940
  C       -0.7418240    -1.0387750     0.1269710
  C        0.6883760    -1.0936210     0.0623120
  C       -1.0233458     0.0731164     0.3559700
  C        1.1400710     0.1773790     0.3033030
  C       -2.3562760     1.0018630     0.5198060
  C        2.4849120     0.8120840     0.3409220
  C       -1.6830070    -2.1819480    -0.0885940
  C        1.5125100    -2.3214750    -0.1762480
  C       -2.8486430     1.5569180    -0.8246800
  C        2.8130920     1.5744450    -0.9510270
  H        3.2336060     0.0303330     0.5193890
  H        2.5305840     1.4962520     1.1974230
  H       -2.2159340     1.8224920     1.2344330
  H       -3.1130010     0.3316860     0.9491040
  H       -1.4229750    -3.0387300     0.5441040
  H       -2.7119990    -1.8902510     0.1457090
  H       -1.6650160    -2.5262940    -1.1310850
  H        2.5139960    -2.0634500    -0.5387900
  H        1.6307130    -2.9166200     0.7385330
  H        1.0429930    -2.9642660    -0.9286680
  H        2.8128660     0.8932150    -1.8063400
  H        3.7971100     2.0487280    -0.8855010
  H        2.0638530     2.3513280    -1.1313670
  H       -2.0994070     2.2298930    -1.2537260
  H       -3.7828960     2.1123340    -0.7007770
  H       -3.0218850     0.7415120    -1.5334270
units angstrom
no_reorient  #important for SAPT in psi4, default
symmetry c1  #important for SAPT in psi4, default
}

set PROPERTIES_ORIGIN ["COM"]
properties('MP2/aug-cc-pvtz', properties = ['dipole'])
--------------------------------------------------------------------------

    Molecular point group: c1
  Charge       = 0
  Multiplicity = 1
  Basis Set: AUG-CC-PVTZ
    Blend: AUG-CC-PVTZ
  Basis Set: (AUG-CC-PVTZ AUX)
    Blend: AUG-CC-PVTZ-JKFIT

    Orbital Energies [Eh]
    ---------------------

    Doubly Occupied:

       1A    -20.584108     2A    -11.271166     3A    -11.252427
       4A    -11.234962     5A    -11.229625     6A    -11.228895
       7A    -11.222223     8A    -11.214855     9A    -11.214021
      10A    -11.213156    11A    -11.194532    12A     -1.406205
      13A     -1.134616    14A     -1.069083    15A     -1.024917
      16A     -0.997781    17A     -0.951253    18A     -0.917460
      19A     -0.859468    20A     -0.822025    21A     -0.741413
      22A     -0.719560    23A     -0.652266    24A     -0.627080
      25A     -0.606699    26A     -0.604526    27A     -0.587868
      28A     -0.576020    29A     -0.566106    30A     -0.557787
      31A     -0.551633    32A     -0.537494    33A     -0.532897
      34A     -0.522502    35A     -0.514007    36A     -0.502140
      37A     -0.492566    38A     -0.487196    39A     -0.478729
      40A     -0.446430    41A     -0.394348    42A     -0.296308

  @DF-RHF Final Energy:  -462.94832620213344

   => Energetics <=

    Nuclear Repulsion Energy =            631.0685693603196569
    One-Electron Energy =               -1879.9570878647480185
    Two-Electron Energy =                 785.9401923022948040
    Total Energy =                       -462.9483262021334440
  Basis Set: (AUG-CC-PVTZ AUX)
    Blend: AUG-CC-PVTZ-RI
    Molecular point group: c1

    Geometry (in Angstrom), charge = 0, multiplicity = 1:

       Center              X                  Y                   Z               Mass
    ------------   -----------------  -----------------  -----------------  -----------------
         O            0.068591616476     1.037256487836     0.510882945130    15.994914619570
         C           -0.745621383524    -1.023776512164     0.130059945130    12.000000000000
         C            0.684578616476    -1.078622512164     0.065400945130    12.000000000000
         C           -1.027143183524     0.088114887836     0.359058945130    12.000000000000
         C            1.136273616476     0.192377487836     0.306391945130    12.000000000000
         C           -2.360073383524     1.016861487836     0.522894945130    12.000000000000
         C            2.481114616476     0.827082487836     0.344010945130    12.000000000000
         C           -1.686804383524    -2.166949512164    -0.085505054870    12.000000000000
         C            1.508712616476    -2.306476512164    -0.173159054870    12.000000000000
         C           -2.852440383524     1.571916487836    -0.821591054870    12.000000000000
         C            2.809294616476     1.589443487836    -0.947938054870    12.000000000000
         H            3.229808616476     0.045331487836     0.522477945130     1.007825032230
         H            2.526786616476     1.511250487836     1.200511945130     1.007825032230
         H           -2.219731383524     1.837490487836     1.237521945130     1.007825032230
         H           -3.116798383524     0.346684487836     0.952192945130     1.007825032230
         H           -1.426772383524    -3.023731512164     0.547192945130     1.007825032230
         H           -2.715796383524    -1.875252512164     0.148797945130     1.007825032230
         H           -1.668813383524    -2.511295512164    -1.127996054870     1.007825032230
         H            2.510198616476    -2.048451512164    -0.535701054870     1.007825032230
         H            1.626915616476    -2.901621512164     0.741621945130     1.007825032230
         H            1.039195616476    -2.949267512164    -0.925579054870     1.007825032230
         H            2.809068616476     0.908213487836    -1.803251054870     1.007825032230
         H            3.793312616476     2.063726487836    -0.882412054870     1.007825032230
         H            2.060055616476     2.366326487836    -1.128278054870     1.007825032230
         H           -2.103204383524     2.244891487836    -1.250637054870     1.007825032230
         H           -3.786693383524     2.127332487836    -0.697688054870     1.007825032230
         H           -3.025682383524     0.756510487836    -1.530338054870     1.007825032230

  Basis Set: AUG-CC-PVTZ
    Blend: AUG-CC-PVTZ
  Basis Set: (AUG-CC-PVTZ AUX)
    Blend: AUG-CC-PVTZ-JKFIT
	 Reference Energy          =    -462.9483262021334440 [Eh]
	 Singles Energy            =      -0.0000000000000000 [Eh]
	 Same-Spin Energy          =      -0.4942256312463556 [Eh]
	 Opposite-Spin Energy      =      -1.6654794251415845 [Eh]
	 Correlation Energy        =      -2.1597050563879403 [Eh]
	 Total Energy              =    -465.1080312585214074 [Eh]

	 ================> DF-SCS-MP2 Energies <==================
	-----------------------------------------------------------
	 SCS Same-Spin Scale       =       0.3333333333333333 [-]
	 SCS Opposite-Spin Scale   =       1.2000000000000000 [-]
	 SCS Same-Spin Energy      =      -0.1647418770821185 [Eh]
	 SCS Opposite-Spin Energy  =      -1.9985753101699013 [Eh]
	 SCS Correlation Energy    =      -2.1633171872520198 [Eh]
	 SCS Total Energy          =    -465.1116433893854492 [Eh]
	-----------------------------------------------------------

  Dipole Moment: [D]
     X:    -0.0956      Y:    -1.0183      Z:    -0.2881     Total:     1.0626

*** Psi4 exiting successfully. Buy a developer a beer!
