                               Psi4 1.3.2 release

  ==> Input File <==

--------------------------------------------------------------------------
#psi4
#
memory 32 gb

molecule  {
0 1
  O        0.0723890     1.0222580     0.5077940
  C       -0.7418240    -1.0387750     0.1269710
  C        0.6883760    -1.0936210     0.0623120
  C       -1.0714850     0.2632460     0.3951280
  C        1.1531460     0.1501975     0.3751049
  C       -2.3562760     1.0018630     0.5198060
  C        2.4849120     0.8120840     0.3409220
  C       -1.6830070    -2.1819480    -0.0885940
  C        1.5125100    -2.3214750    -0.1762480
  C       -2.8486430     1.5569180    -0.8246800
  C        2.8841842     1.5939523    -0.9189559
  H        3.2336060     0.0303330     0.5193890
  H        2.5305840     1.4962520     1.1974230
  H       -2.2159340     1.8224920     1.2344330
  H       -3.1130010     0.3316860     0.9491040
  H       -1.4229750    -3.0387300     0.5441040
  H       -2.7119990    -1.8902510     0.1457090
  H       -1.6650160    -2.5262940    -1.1310850
  H        2.5139960    -2.0634500    -0.5387900
  H        1.6307130    -2.9166200     0.7385330
  H        1.0429930    -2.9642660    -0.9286680
  H        2.8128660     0.8932150    -1.8063400
  H        3.7971100     2.0487280    -0.8855010
  H        2.0638530     2.3513280    -1.1313670
  H       -2.0994070     2.2298930    -1.2537260
  H       -3.7828960     2.1123340    -0.7007770
  H       -3.0218850     0.7415120    -1.5334270
units angstrom
no_reorient  #important for SAPT in psi4, default
symmetry c1  #important for SAPT in psi4, default
}

set PROPERTIES_ORIGIN ["COM"]
properties('MP2/aug-cc-pvtz', properties = ['dipole'])
--------------------------------------------------------------------------

    Molecular point group: c1
  Charge       = 0
  Multiplicity = 1
  Basis Set: AUG-CC-PVTZ
    Blend: AUG-CC-PVTZ
  Basis Set: (AUG-CC-PVTZ AUX)
    Blend: AUG-CC-PVTZ-JKFIT

    Orbital Energies [Eh]
    ---------------------

    Doubly Occupied:

       1A    -20.596127     2A    -11.271937     3A    -11.269487
       4A    -11.230756     5A    -11.229616     6A    -11.223642
       7A    -11.223585     8A    -11.218944     9A    -11.216105
      10A    -11.216053    11A    -11.215586    12A     -1.422868
      13A     -1.099955    14A     -1.078122    15A     -1.035691
      16A     -0.991421    17A     -0.933158    18A     -0.928232
      19A     -0.872260    20A     -0.816102    21A     -0.746414
      22A     -0.721974    23A     -0.656016    24A     -0.626156
      25A     -0.610202    26A     -0.607934    27A     -0.591260
      28A     -0.580489    29A     -0.568155    30A     -0.556544
      31A     -0.550608    32A     -0.546057    33A     -0.527548
      34A     -0.522378    35A     -0.520578    36A     -0.504273
      37A     -0.493247    38A     -0.488520    39A     -0.475666
      40A     -0.466741    41A     -0.361769    42A     -0.281507

  @DF-RHF Final Energy:  -463.00091638126230

   => Energetics <=

    Nuclear Repulsion Energy =            628.5412307072006115
    One-Electron Energy =               -1874.8969261027393713
    Two-Electron Energy =                 783.3547790142764597
    Total Energy =                       -463.0009163812623001
  Basis Set: (AUG-CC-PVTZ AUX)
    Blend: AUG-CC-PVTZ-RI
    Molecular point group: c1

    Geometry (in Angstrom), charge = 0, multiplicity = 1:

       Center              X                  Y                   Z               Mass
    ------------   -----------------  -----------------  -----------------  -----------------
         O            0.065749546579     1.022863487948     0.499599940259    15.994914619570
         C           -0.748463453421    -1.038169512052     0.118776940259    12.000000000000
         C            0.681736546579    -1.093015512052     0.054117940259    12.000000000000
         C           -1.078124453421     0.263851487948     0.386933940259    12.000000000000
         C            1.146506546579     0.150802987948     0.366910840259    12.000000000000
         C           -2.362915453421     1.002468487948     0.511611940259    12.000000000000
         C            2.478272546579     0.812689487948     0.332727940259    12.000000000000
         C           -1.689646453421    -2.181342512052    -0.096788059741    12.000000000000
         C            1.505870546579    -2.320869512052    -0.184442059741    12.000000000000
         C           -2.855282453421     1.557523487948    -0.832874059741    12.000000000000
         C            2.877544746579     1.594557787948    -0.927149959741    12.000000000000
         H            3.226966546579     0.030938487948     0.511194940259     1.007825032230
         H            2.523944546579     1.496857487948     1.189228940259     1.007825032230
         H           -2.222573453421     1.823097487948     1.226238940259     1.007825032230
         H           -3.119640453421     0.332291487948     0.940909940259     1.007825032230
         H           -1.429614453421    -3.038124512052     0.535909940259     1.007825032230
         H           -2.718638453421    -1.889645512052     0.137514940259     1.007825032230
         H           -1.671655453421    -2.525688512052    -1.139279059741     1.007825032230
         H            2.507356546579    -2.062844512052    -0.546984059741     1.007825032230
         H            1.624073546579    -2.916014512052     0.730338940259     1.007825032230
         H            1.036353546579    -2.963660512052    -0.936862059741     1.007825032230
         H            2.806226546579     0.893820487948    -1.814534059741     1.007825032230
         H            3.790470546579     2.049333487948    -0.893695059741     1.007825032230
         H            2.057213546579     2.351933487948    -1.139561059741     1.007825032230
         H           -2.106046453421     2.230498487948    -1.261920059741     1.007825032230
         H           -3.789535453421     2.112939487948    -0.708971059741     1.007825032230
         H           -3.028524453421     0.742117487948    -1.541621059741     1.007825032230

  Basis Set: AUG-CC-PVTZ
    Blend: AUG-CC-PVTZ
  Basis Set: (AUG-CC-PVTZ AUX)
    Blend: AUG-CC-PVTZ-JKFIT
	 Reference Energy          =    -463.0009163812623001 [Eh]
	 Singles Energy            =      -0.0000000000000000 [Eh]
	 Same-Spin Energy          =      -0.4972845305035622 [Eh]
	 Opposite-Spin Energy      =      -1.6679209486638003 [Eh]
	 Correlation Energy        =      -2.1652054791673625 [Eh]
	 Total Energy              =    -465.1661218604296550 [Eh]

	 ================> DF-SCS-MP2 Energies <==================
	-----------------------------------------------------------
	 SCS Same-Spin Scale       =       0.3333333333333333 [-]
	 SCS Opposite-Spin Scale   =       1.2000000000000000 [-]
	 SCS Same-Spin Energy      =      -0.1657615101678541 [Eh]
	 SCS Opposite-Spin Energy  =      -2.0015051383965603 [Eh]
	 SCS Correlation Energy    =      -2.1672666485644143 [Eh]
	 SCS Total Energy          =    -465.1681830298267073 [Eh]
	-----------------------------------------------------------

  Dipole Moment: [D]
     X:    -0.0657      Y:    -0.6976      Z:    -0.2488     Total:     0.7435

*** Psi4 exiting successfully. Buy a developer a beer!
