                               Psi4 1.4a3.dev225

  ==> Input File <==

--------------------------------------------------------------------------
#psi4
#
memory 32 gb

molecule  {
0 1
  O        0.0000040    -0.9323440    -0.5200900
  C       -0.7186120     1.1388030    -0.0293360
  C        0.7186000     1.1388090    -0.0293300
  C       -1.1149494    -0.1587987    -0.3394636
  C        1.1092550    -0.1401430    -0.3349960
  C       -2.4197690    -0.8327410    -0.4659430
  C        2.4197760    -0.8327180    -0.4659420
  C       -1.5881550     2.3237520     0.2504950
  C        1.5881310     2.3237650     0.2505070
  C       -2.6404590    -1.8837440     0.6266770
  C        2.6404800    -1.8837320     0.6266650
  H        3.2127060    -0.0780420    -0.4310990
  H        2.4812700    -1.3082390    -1.4528680
  H       -2.4812630    -1.3082740    -1.4528630
  H       -3.2127060    -0.0780720    -0.4311050
  H       -1.4004860     3.1330380    -0.4637010
  H       -2.6480190     2.0627510     0.1871390
  H       -1.4034730     2.7248980     1.2531230
  H        2.6479980     2.0627640     0.1871950
  H        1.4004870     3.1330370    -0.4637120
  H        1.4034130     2.7249310     1.2531200
  H        2.6185650    -1.4170920     1.6153140
  H        3.6057420    -2.3837880     0.5012060
  H        1.8526560    -2.6398250     0.5898280
  H       -1.8526300    -2.6398320     0.5898440
  H       -3.6057190    -2.3838080     0.5012310
  H       -2.6185400    -1.4170920     1.6153210
units angstrom
no_reorient  #important for SAPT in psi4, default
symmetry c1  #important for SAPT in psi4, default
}

set PROPERTIES_ORIGIN ["COM"]
properties('MP2/aug-cc-pvtz', properties = ['dipole'])
--------------------------------------------------------------------------

    Molecular point group: c1
  Charge       = 0
  Multiplicity = 1
  Basis Set: AUG-CC-PVTZ
    Blend: AUG-CC-PVTZ
  Basis Set: (AUG-CC-PVTZ AUX)
    Blend: AUG-CC-PVTZ-JKFIT

    Orbital Energies [Eh]
    ---------------------

    Doubly Occupied:

       1A    -20.598744     2A    -11.272703     3A    -11.270761
       4A    -11.230064     5A    -11.229599     6A    -11.222559
       7A    -11.221901     8A    -11.218570     9A    -11.217095
      10A    -11.213827    11A    -11.213442    12A     -1.432864
      13A     -1.095912    14A     -1.080819    15A     -1.037947
      16A     -0.990137    17A     -0.931582    18A     -0.927133
      19A     -0.871173    20A     -0.816305    21A     -0.751490
      22A     -0.718859    23A     -0.660857    24A     -0.628935
      25A     -0.612345    26A     -0.610995    27A     -0.585376
      28A     -0.583578    29A     -0.568978    30A     -0.555826
      31A     -0.551729    32A     -0.532611    33A     -0.531783
      34A     -0.524796    35A     -0.517171    36A     -0.506267
      37A     -0.493440    38A     -0.491644    39A     -0.485658
      40A     -0.466002    41A     -0.358581    42A     -0.277509

  @DF-RHF Final Energy:  -463.01241550623524

   => Energetics <=

    Nuclear Repulsion Energy =            629.8815208706051862
    One-Electron Energy =               -1877.5727461118096926
    Two-Electron Energy =                 784.6788097349691498
    Total Energy =                       -463.0124155062352429
  Basis Set: (AUG-CC-PVTZ AUX)
    Blend: AUG-CC-PVTZ-RI
    Molecular point group: c1

    Geometry (in Angstrom), charge = 0, multiplicity = 1:

       Center              X                  Y                   Z               Mass
    ------------   -----------------  -----------------  -----------------  -----------------
         O            0.000453406789    -0.929682195433    -0.496288630361    15.994914619570
         C           -0.718162593211     1.141464804567    -0.005534630361    12.000000000000
         C            0.719049406789     1.141470804567    -0.005528630361    12.000000000000
         C           -1.114499993211    -0.156136895433    -0.315662230361    12.000000000000
         C            1.109704406789    -0.137481195433    -0.311194630361    12.000000000000
         C           -2.419319593211    -0.830079195433    -0.442141630361    12.000000000000
         C            2.420225406789    -0.830056195433    -0.442140630361    12.000000000000
         C           -1.587705593211     2.326413804567     0.274296369639    12.000000000000
         C            1.588580406789     2.326426804567     0.274308369639    12.000000000000
         C           -2.640009593211    -1.881082195433     0.650478369639    12.000000000000
         C            2.640929406789    -1.881070195433     0.650466369639    12.000000000000
         H            3.213155406789    -0.075380195433    -0.407297630361     1.007825032230
         H            2.481719406789    -1.305577195433    -1.429066630361     1.007825032230
         H           -2.480813593211    -1.305612195433    -1.429061630361     1.007825032230
         H           -3.212256593211    -0.075410195433    -0.407303630361     1.007825032230
         H           -1.400036593211     3.135699804567    -0.439899630361     1.007825032230
         H           -2.647569593211     2.065412804567     0.210940369639     1.007825032230
         H           -1.403023593211     2.727559804567     1.276924369639     1.007825032230
         H            2.648447406789     2.065425804567     0.210996369639     1.007825032230
         H            1.400936406789     3.135698804567    -0.439910630361     1.007825032230
         H            1.403862406789     2.727592804567     1.276921369639     1.007825032230
         H            2.619014406789    -1.414430195433     1.639115369639     1.007825032230
         H            3.606191406789    -2.381126195433     0.525007369639     1.007825032230
         H            1.853105406789    -2.637163195433     0.613629369639     1.007825032230
         H           -1.852180593211    -2.637170195433     0.613645369639     1.007825032230
         H           -3.605269593211    -2.381146195433     0.525032369639     1.007825032230
         H           -2.618090593211    -1.414430195433     1.639122369639     1.007825032230

  Basis Set: AUG-CC-PVTZ
    Blend: AUG-CC-PVTZ
  Basis Set: (AUG-CC-PVTZ AUX)
    Blend: AUG-CC-PVTZ-JKFIT
	 Reference Energy          =    -463.0124155062352429 [Eh]
	 Singles Energy            =      -0.0000000000000000 [Eh]
	 Same-Spin Energy          =      -0.4973955427327907 [Eh]
	 Opposite-Spin Energy      =      -1.6672406895096925 [Eh]
	 Correlation Energy        =      -2.1646362322424832 [Eh]
	 Total Energy              =    -465.1770517384777008 [Eh]

	 ================> DF-SCS-MP2 Energies <==================
	-----------------------------------------------------------
	 SCS Same-Spin Scale       =       0.3333333333333333 [-]
	 SCS Opposite-Spin Scale   =       1.2000000000000000 [-]
	 SCS Same-Spin Energy      =      -0.1657985142442636 [Eh]
	 SCS Opposite-Spin Energy  =      -2.0006888274116310 [Eh]
	 SCS Correlation Energy    =      -2.1664873416558947 [Eh]
	 SCS Total Energy          =    -465.1789028478911519 [Eh]
	-----------------------------------------------------------

  Dipole Moment: [D]
     X:     0.0028      Y:     0.6094      Z:     0.2174     Total:     0.6470

*** Psi4 exiting successfully. Buy a developer a beer!
