                               Psi4 1.3.2 release

  ==> Input File <==

--------------------------------------------------------------------------
#psi4
#
memory 32 gb

molecule  {
0 1
  O        0.0284154     0.9660069     0.4979050
  C       -0.7418240    -1.0387750     0.1269710
  C        0.6213291    -1.0691152     0.0694116
  C       -1.0714850     0.2632460     0.3951280
  C        1.1400710     0.1773790     0.3033030
  C       -2.3562760     1.0018630     0.5198060
  C        2.4849120     0.8120840     0.3409220
  C       -1.6830070    -2.1819480    -0.0885940
  C        1.5125100    -2.3214750    -0.1762480
  C       -2.8486430     1.5569180    -0.8246800
  C        2.8130920     1.5744450    -0.9510270
  H        3.2336060     0.0303330     0.5193890
  H        2.5305840     1.4962520     1.1974230
  H       -2.2159340     1.8224920     1.2344330
  H       -3.1130010     0.3316860     0.9491040
  H       -1.4229750    -3.0387300     0.5441040
  H       -2.7119990    -1.8902510     0.1457090
  H       -1.6650160    -2.5262940    -1.1310850
  H        2.5139960    -2.0634500    -0.5387900
  H        1.6307130    -2.9166200     0.7385330
  H        1.0429930    -2.9642660    -0.9286680
  H        2.8128660     0.8932150    -1.8063400
  H        3.7971100     2.0487280    -0.8855010
  H        2.0638530     2.3513280    -1.1313670
  H       -2.0994070     2.2298930    -1.2537260
  H       -3.7828960     2.1123340    -0.7007770
  H       -3.0218850     0.7415120    -1.5334270
units angstrom
no_reorient  #important for SAPT in psi4, default
symmetry c1  #important for SAPT in psi4, default
}

set PROPERTIES_ORIGIN ["COM"]
properties('MP2/aug-cc-pvtz', properties = ['dipole'])
--------------------------------------------------------------------------

    Molecular point group: c1
  Charge       = 0
  Multiplicity = 1
  Basis Set: AUG-CC-PVTZ
    Blend: AUG-CC-PVTZ
  Basis Set: (AUG-CC-PVTZ AUX)
    Blend: AUG-CC-PVTZ-JKFIT

    Orbital Energies [Eh]
    ---------------------

    Doubly Occupied:

       1A    -20.600374     2A    -11.266370     3A    -11.263772
       4A    -11.233923     5A    -11.229995     6A    -11.222769
       7A    -11.220036     8A    -11.216441     9A    -11.215556
      10A    -11.212635    11A    -11.201920    12A     -1.456765
      13A     -1.101664    14A     -1.081579    15A     -1.038603
      16A     -0.983613    17A     -0.932259    18A     -0.930141
      19A     -0.872815    20A     -0.820811    21A     -0.754589
      22A     -0.730420    23A     -0.665517    24A     -0.637200
      25A     -0.611072    26A     -0.609964    27A     -0.592500
      28A     -0.580722    29A     -0.565713    30A     -0.551027
      31A     -0.544812    32A     -0.536491    33A     -0.528293
      34A     -0.522174    35A     -0.510729    36A     -0.505709
      37A     -0.497137    38A     -0.493260    39A     -0.482224
      40A     -0.472099    41A     -0.365469    42A     -0.274488

  @DF-RHF Final Energy:  -463.00342875849532

   => Energetics <=

    Nuclear Repulsion Energy =            632.1728754078548036
    One-Electron Energy =               -1882.0852988832775736
    Two-Electron Energy =                 786.9089947169272818
    Total Energy =                       -463.0034287584953745
  Basis Set: (AUG-CC-PVTZ AUX)
    Blend: AUG-CC-PVTZ-RI
    Molecular point group: c1

    Geometry (in Angstrom), charge = 0, multiplicity = 1:

       Center              X                  Y                   Z               Mass
    ------------   -----------------  -----------------  -----------------  -----------------
         O            0.038328150574     0.969988480198     0.498384707758    15.994914619570
         C           -0.731911249426    -1.034793419802     0.127450707758    12.000000000000
         C            0.631241850574    -1.065133619802     0.069891307758    12.000000000000
         C           -1.061572249426     0.267227580198     0.395607707758    12.000000000000
         C            1.149983750574     0.181360580198     0.303782707758    12.000000000000
         C           -2.346363249426     1.005844580198     0.520285707758    12.000000000000
         C            2.494824750574     0.816065580198     0.341401707758    12.000000000000
         C           -1.673094249426    -2.177966419802    -0.088114292242    12.000000000000
         C            1.522422750574    -2.317493419802    -0.175768292242    12.000000000000
         C           -2.838730249426     1.560899580198    -0.824200292242    12.000000000000
         C            2.823004750574     1.578426580198    -0.950547292242    12.000000000000
         H            3.243518750574     0.034314580198     0.519868707758     1.007825032230
         H            2.540496750574     1.500233580198     1.197902707758     1.007825032230
         H           -2.206021249426     1.826473580198     1.234912707758     1.007825032230
         H           -3.103088249426     0.335667580198     0.949583707758     1.007825032230
         H           -1.413062249426    -3.034748419802     0.544583707758     1.007825032230
         H           -2.702086249426    -1.886269419802     0.146188707758     1.007825032230
         H           -1.655103249426    -2.522312419802    -1.130605292242     1.007825032230
         H            2.523908750574    -2.059468419802    -0.538310292242     1.007825032230
         H            1.640625750574    -2.912638419802     0.739012707758     1.007825032230
         H            1.052905750574    -2.960284419802    -0.928188292242     1.007825032230
         H            2.822778750574     0.897196580198    -1.805860292242     1.007825032230
         H            3.807022750574     2.052709580198    -0.885021292242     1.007825032230
         H            2.073765750574     2.355309580198    -1.130887292242     1.007825032230
         H           -2.089494249426     2.233874580198    -1.253246292242     1.007825032230
         H           -3.772983249426     2.116315580198    -0.700297292242     1.007825032230
         H           -3.011972249426     0.745493580198    -1.532947292242     1.007825032230

  Basis Set: AUG-CC-PVTZ
    Blend: AUG-CC-PVTZ
  Basis Set: (AUG-CC-PVTZ AUX)
    Blend: AUG-CC-PVTZ-JKFIT
	 Reference Energy          =    -463.0034287584953177 [Eh]
	 Singles Energy            =      -0.0000000000000000 [Eh]
	 Same-Spin Energy          =      -0.4978405480222791 [Eh]
	 Opposite-Spin Energy      =      -1.6659214601830388 [Eh]
	 Correlation Energy        =      -2.1637620082053179 [Eh]
	 Total Energy              =    -465.1671907667006280 [Eh]

	 ================> DF-SCS-MP2 Energies <==================
	-----------------------------------------------------------
	 SCS Same-Spin Scale       =       0.3333333333333333 [-]
	 SCS Opposite-Spin Scale   =       1.2000000000000000 [-]
	 SCS Same-Spin Energy      =      -0.1659468493407597 [Eh]
	 SCS Opposite-Spin Energy  =      -1.9991057522196465 [Eh]
	 SCS Correlation Energy    =      -2.1650526015604061 [Eh]
	 SCS Total Energy          =    -465.1684813600557504 [Eh]
	-----------------------------------------------------------

  Dipole Moment: [D]
     X:     0.0826      Y:    -0.3664      Z:    -0.1683     Total:     0.4116

*** Psi4 exiting successfully. Buy a developer a beer!
