                               Psi4 1.3.2 release

  ==> Input File <==

--------------------------------------------------------------------------
#psi4
#
memory 32 gb

molecule  {
0 1
  O        0.0723890     1.0222580     0.5077940
  C       -0.7418240    -1.0387750     0.1269710
  C        0.6851932    -1.1426150     0.0528088
  C       -1.1176441     0.2508255     0.3944276
  C        1.1400710     0.1773790     0.3033030
  C       -2.3562760     1.0018630     0.5198060
  C        2.4849120     0.8120840     0.3409220
  C       -1.6830070    -2.1819480    -0.0885940
  C        1.5125100    -2.3214750    -0.1762480
  C       -2.8486430     1.5569180    -0.8246800
  C        2.8130920     1.5744450    -0.9510270
  H        3.2336060     0.0303330     0.5193890
  H        2.5305840     1.4962520     1.1974230
  H       -2.2159340     1.8224920     1.2344330
  H       -3.1130010     0.3316860     0.9491040
  H       -1.4229750    -3.0387300     0.5441040
  H       -2.7119990    -1.8902510     0.1457090
  H       -1.6650160    -2.5262940    -1.1310850
  H        2.5139960    -2.0634500    -0.5387900
  H        1.6307130    -2.9166200     0.7385330
  H        1.0429930    -2.9642660    -0.9286680
  H        2.8128660     0.8932150    -1.8063400
  H        3.7971100     2.0487280    -0.8855010
  H        2.0638530     2.3513280    -1.1313670
  H       -2.0994070     2.2298930    -1.2537260
  H       -3.7828960     2.1123340    -0.7007770
  H       -3.0218850     0.7415120    -1.5334270
units angstrom
no_reorient  #important for SAPT in psi4, default
symmetry c1  #important for SAPT in psi4, default
}

set PROPERTIES_ORIGIN ["COM"]
properties('MP2/aug-cc-pvtz', properties = ['dipole'])
--------------------------------------------------------------------------

    Molecular point group: c1
  Charge       = 0
  Multiplicity = 1
  Basis Set: AUG-CC-PVTZ
    Blend: AUG-CC-PVTZ
  Basis Set: (AUG-CC-PVTZ AUX)
    Blend: AUG-CC-PVTZ-JKFIT

    Orbital Energies [Eh]
    ---------------------

    Doubly Occupied:

       1A    -20.595315     2A    -11.278442     3A    -11.268644
       4A    -11.230573     5A    -11.229546     6A    -11.222056
       7A    -11.221312     8A    -11.220482     9A    -11.218490
      10A    -11.215592    11A    -11.215194    12A     -1.412084
      13A     -1.099150    14A     -1.080385    15A     -1.038846
      16A     -0.994331    17A     -0.928965    18A     -0.925112
      19A     -0.872762    20A     -0.813748    21A     -0.741546
      22A     -0.721747    23A     -0.655137    24A     -0.622010
      25A     -0.614117    26A     -0.610646    27A     -0.587550
      28A     -0.584400    29A     -0.567912    30A     -0.557389
      31A     -0.553786    32A     -0.533848    33A     -0.528701
      34A     -0.524093    35A     -0.517456    36A     -0.504685
      37A     -0.497685    38A     -0.494650    39A     -0.482483
      40A     -0.465909    41A     -0.357588    42A     -0.272953

  @DF-RHF Final Energy:  -463.00049758578814

   => Energetics <=

    Nuclear Repulsion Energy =            628.4727770671072449
    One-Electron Energy =               -1874.7919104643931405
    Two-Electron Energy =                 783.3186358114977565
    Total Energy =                       -463.0004975857881391
  Basis Set: (AUG-CC-PVTZ AUX)
    Blend: AUG-CC-PVTZ-RI
    Molecular point group: c1

    Geometry (in Angstrom), charge = 0, multiplicity = 1:

       Center              X                  Y                   Z               Mass
    ------------   -----------------  -----------------  -----------------  -----------------
         O            0.076281416073     1.027102793181     0.508598876388    15.994914619570
         C           -0.737931583927    -1.033930206819     0.127775876388    12.000000000000
         C            0.689085616073    -1.137770206819     0.053613676388    12.000000000000
         C           -1.113751683927     0.255670293181     0.395232476388    12.000000000000
         C            1.143963416073     0.182223793181     0.304107876388    12.000000000000
         C           -2.352383583927     1.006707793181     0.520610876388    12.000000000000
         C            2.488804416073     0.816928793181     0.341726876388    12.000000000000
         C           -1.679114583927    -2.177103206819    -0.087789123612    12.000000000000
         C            1.516402416073    -2.316630206819    -0.175443123612    12.000000000000
         C           -2.844750583927     1.561762793181    -0.823875123612    12.000000000000
         C            2.816984416073     1.579289793181    -0.950222123612    12.000000000000
         H            3.237498416073     0.035177793181     0.520193876388     1.007825032230
         H            2.534476416073     1.501096793181     1.198227876388     1.007825032230
         H           -2.212041583927     1.827336793181     1.235237876388     1.007825032230
         H           -3.109108583927     0.336530793181     0.949908876388     1.007825032230
         H           -1.419082583927    -3.033885206819     0.544908876388     1.007825032230
         H           -2.708106583927    -1.885406206819     0.146513876388     1.007825032230
         H           -1.661123583927    -2.521449206819    -1.130280123612     1.007825032230
         H            2.517888416073    -2.058605206819    -0.537985123612     1.007825032230
         H            1.634605416073    -2.911775206819     0.739337876388     1.007825032230
         H            1.046885416073    -2.959421206819    -0.927863123612     1.007825032230
         H            2.816758416073     0.898059793181    -1.805535123612     1.007825032230
         H            3.801002416073     2.053572793181    -0.884696123612     1.007825032230
         H            2.067745416073     2.356172793181    -1.130562123612     1.007825032230
         H           -2.095514583927     2.234737793181    -1.252921123612     1.007825032230
         H           -3.779003583927     2.117178793181    -0.699972123612     1.007825032230
         H           -3.017992583927     0.746356793181    -1.532622123612     1.007825032230

  Basis Set: AUG-CC-PVTZ
    Blend: AUG-CC-PVTZ
  Basis Set: (AUG-CC-PVTZ AUX)
    Blend: AUG-CC-PVTZ-JKFIT
	 Reference Energy          =    -463.0004975857881391 [Eh]
	 Singles Energy            =      -0.0000000000000000 [Eh]
	 Same-Spin Energy          =      -0.4990617797611939 [Eh]
	 Opposite-Spin Energy      =      -1.6705346109824550 [Eh]
	 Correlation Energy        =      -2.1695963907436489 [Eh]
	 Total Energy              =    -465.1700939765318026 [Eh]

	 ================> DF-SCS-MP2 Energies <==================
	-----------------------------------------------------------
	 SCS Same-Spin Scale       =       0.3333333333333333 [-]
	 SCS Opposite-Spin Scale   =       1.2000000000000000 [-]
	 SCS Same-Spin Energy      =      -0.1663539265870646 [Eh]
	 SCS Opposite-Spin Energy  =      -2.0046415331789458 [Eh]
	 SCS Correlation Energy    =      -2.1709954597660106 [Eh]
	 SCS Total Energy          =    -465.1714930455541435 [Eh]
	-----------------------------------------------------------

  Dipole Moment: [D]
     X:    -0.0872      Y:    -0.6702      Z:    -0.2222     Total:     0.7114

*** Psi4 exiting successfully. Buy a developer a beer!
