                               Psi4 1.3.2 release

  ==> Input File <==

--------------------------------------------------------------------------
#psi4
#
memory 32 gb

molecule  {
0 1
  O        0.0656604     1.0319851     0.5099367
  C       -0.7534308    -1.0416211     0.1267876
  C        0.6883760    -1.0936210     0.0623120
  C       -1.0714850     0.2632460     0.3951280
  C        1.1400710     0.1773790     0.3033030
  C       -2.3562760     1.0018630     0.5198060
  C        2.4849120     0.8120840     0.3409220
  C       -1.6830070    -2.1819480    -0.0885940
  C        1.5125100    -2.3214750    -0.1762480
  C       -2.8486430     1.5569180    -0.8246800
  C        2.8130920     1.5744450    -0.9510270
  H        3.2336060     0.0303330     0.5193890
  H        2.5305840     1.4962520     1.1974230
  H       -2.2159340     1.8224920     1.2344330
  H       -3.1130010     0.3316860     0.9491040
  H       -1.4229750    -3.0387300     0.5441040
  H       -2.7119990    -1.8902510     0.1457090
  H       -1.6650160    -2.5262940    -1.1310850
  H        2.5139960    -2.0634500    -0.5387900
  H        1.6307130    -2.9166200     0.7385330
  H        1.0429930    -2.9642660    -0.9286680
  H        2.8128660     0.8932150    -1.8063400
  H        3.7971100     2.0487280    -0.8855010
  H        2.0638530     2.3513280    -1.1313670
  H       -2.0994070     2.2298930    -1.2537260
  H       -3.7828960     2.1123340    -0.7007770
  H       -3.0218850     0.7415120    -1.5334270
units angstrom
no_reorient  #important for SAPT in psi4, default
symmetry c1  #important for SAPT in psi4, default
}

set PROPERTIES_ORIGIN ["COM"]
properties('MP2/aug-cc-pvtz', properties = ['dipole'])
--------------------------------------------------------------------------

    Molecular point group: c1
  Charge       = 0
  Multiplicity = 1
  Basis Set: AUG-CC-PVTZ
    Blend: AUG-CC-PVTZ
  Basis Set: (AUG-CC-PVTZ AUX)
    Blend: AUG-CC-PVTZ-JKFIT

    Orbital Energies [Eh]
    ---------------------

    Doubly Occupied:

       1A    -20.598392     2A    -11.270501     3A    -11.270149
       4A    -11.230103     5A    -11.229394     6A    -11.223439
       7A    -11.223117     8A    -11.218146     9A    -11.215877
      10A    -11.215313    11A    -11.214574    12A     -1.425706
      13A     -1.098570    14A     -1.078539    15A     -1.035854
      16A     -0.991314    17A     -0.932689    18A     -0.926854
      19A     -0.869696    20A     -0.814956    21A     -0.748266
      22A     -0.720457    23A     -0.656965    24A     -0.626037
      25A     -0.611130    26A     -0.609683    27A     -0.586312
      28A     -0.583806    29A     -0.568024    30A     -0.556559
      31A     -0.550609    32A     -0.533142    33A     -0.529269
      34A     -0.524629    35A     -0.521596    36A     -0.505095
      37A     -0.494933    38A     -0.492492    39A     -0.483414
      40A     -0.465659    41A     -0.360134    42A     -0.279704

  @DF-RHF Final Energy:  -463.01125152428608

   => Energetics <=

    Nuclear Repulsion Energy =            629.1735645560663670
    One-Electron Energy =               -1876.1874373123309852
    Two-Electron Energy =                 784.0026212319785373
    Total Energy =                       -463.0112515242860809
  Basis Set: (AUG-CC-PVTZ AUX)
    Blend: AUG-CC-PVTZ-RI
    Molecular point group: c1

    Geometry (in Angstrom), charge = 0, multiplicity = 1:

       Center              X                  Y                   Z               Mass
    ------------   -----------------  -----------------  -----------------  -----------------
         O            0.067283571028     1.031186951527     0.509725834956    15.994914619570
         C           -0.751807628972    -1.042419248473     0.126576734956    12.000000000000
         C            0.689999171028    -1.094419148473     0.062101134956    12.000000000000
         C           -1.069861828972     0.262447851527     0.394917134956    12.000000000000
         C            1.141694171028     0.176580851527     0.303092134956    12.000000000000
         C           -2.354652828972     1.001064851527     0.519595134956    12.000000000000
         C            2.486535171028     0.811285851527     0.340711134956    12.000000000000
         C           -1.681383828972    -2.182746148473    -0.088804865044    12.000000000000
         C            1.514133171028    -2.322273148473    -0.176458865044    12.000000000000
         C           -2.847019828972     1.556119851527    -0.824890865044    12.000000000000
         C            2.814715171028     1.573646851527    -0.951237865044    12.000000000000
         H            3.235229171028     0.029534851527     0.519178134956     1.007825032230
         H            2.532207171028     1.495453851527     1.197212134956     1.007825032230
         H           -2.214310828972     1.821693851527     1.234222134956     1.007825032230
         H           -3.111377828972     0.330887851527     0.948893134956     1.007825032230
         H           -1.421351828972    -3.039528148473     0.543893134956     1.007825032230
         H           -2.710375828972    -1.891049148473     0.145498134956     1.007825032230
         H           -1.663392828972    -2.527092148473    -1.131295865044     1.007825032230
         H            2.515619171028    -2.064248148473    -0.539000865044     1.007825032230
         H            1.632336171028    -2.917418148473     0.738322134956     1.007825032230
         H            1.044616171028    -2.965064148473    -0.928878865044     1.007825032230
         H            2.814489171028     0.892416851527    -1.806550865044     1.007825032230
         H            3.798733171028     2.047929851527    -0.885711865044     1.007825032230
         H            2.065476171028     2.350529851527    -1.131577865044     1.007825032230
         H           -2.097783828972     2.229094851527    -1.253936865044     1.007825032230
         H           -3.781272828972     2.111535851527    -0.700987865044     1.007825032230
         H           -3.020261828972     0.740713851527    -1.533637865044     1.007825032230

  Basis Set: AUG-CC-PVTZ
    Blend: AUG-CC-PVTZ
  Basis Set: (AUG-CC-PVTZ AUX)
    Blend: AUG-CC-PVTZ-JKFIT
	 Reference Energy          =    -463.0112515242860809 [Eh]
	 Singles Energy            =      -0.0000000000000000 [Eh]
	 Same-Spin Energy          =      -0.4970234290785268 [Eh]
	 Opposite-Spin Energy      =      -1.6674180621033763 [Eh]
	 Correlation Energy        =      -2.1644414911819032 [Eh]
	 Total Energy              =    -465.1756930154679708 [Eh]

	 ================> DF-SCS-MP2 Energies <==================
	-----------------------------------------------------------
	 SCS Same-Spin Scale       =       0.3333333333333333 [-]
	 SCS Opposite-Spin Scale   =       1.2000000000000000 [-]
	 SCS Same-Spin Energy      =      -0.1656744763595089 [Eh]
	 SCS Opposite-Spin Energy  =      -2.0009016745240515 [Eh]
	 SCS Correlation Energy    =      -2.1665761508835604 [Eh]
	 SCS Total Energy          =    -465.1778276751696239 [Eh]
	-----------------------------------------------------------

  Dipole Moment: [D]
     X:    -0.0101      Y:    -0.6984      Z:    -0.2252     Total:     0.7339

*** Psi4 exiting successfully. Buy a developer a beer!
