                               Psi4 1.3.2 release

  ==> Input File <==

--------------------------------------------------------------------------
#psi4
#
memory 32 gb

molecule  {
0 1
  O        0.0723890     1.0222580     0.5077940
  C       -0.7418240    -1.0387750     0.1269710
  C        0.6883760    -1.0936210     0.0623120
  C       -1.0714850     0.2632460     0.3951280
  C        1.1400710     0.1773790     0.3033030
  C       -2.3562760     1.0018630     0.5198060
  C        2.4849120     0.8120840     0.3409220
  C       -1.6830070    -2.1819480    -0.0885940
  C        1.5125100    -2.3214750    -0.1762480
  C       -2.8486430     1.5569180    -0.8246800
  C        2.8022850     1.5821451    -0.9491590
  H        3.2289980     0.0278052     0.5273909
  H        2.5305840     1.4962520     1.1974230
  H       -2.2159340     1.8224920     1.2344330
  H       -3.1130010     0.3316860     0.9491040
  H       -1.4229750    -3.0387300     0.5441040
  H       -2.7119990    -1.8902510     0.1457090
  H       -1.6650160    -2.5262940    -1.1310850
  H        2.5139960    -2.0634500    -0.5387900
  H        1.6307130    -2.9166200     0.7385330
  H        1.0429930    -2.9642660    -0.9286680
  H        2.8128660     0.8932150    -1.8063400
  H        3.7971100     2.0487280    -0.8855010
  H        2.0638530     2.3513280    -1.1313670
  H       -2.0994070     2.2298930    -1.2537260
  H       -3.7828960     2.1123340    -0.7007770
  H       -3.0218850     0.7415120    -1.5334270
units angstrom
no_reorient  #important for SAPT in psi4, default
symmetry c1  #important for SAPT in psi4, default
}

set PROPERTIES_ORIGIN ["COM"]
properties('MP2/aug-cc-pvtz', properties = ['dipole'])
--------------------------------------------------------------------------

    Molecular point group: c1
  Charge       = 0
  Multiplicity = 1
  Basis Set: AUG-CC-PVTZ
    Blend: AUG-CC-PVTZ
  Basis Set: (AUG-CC-PVTZ AUX)
    Blend: AUG-CC-PVTZ-JKFIT

    Orbital Energies [Eh]
    ---------------------

    Doubly Occupied:

       1A    -20.598571     2A    -11.269554     3A    -11.269337
       4A    -11.230103     5A    -11.230029     6A    -11.223169
       7A    -11.222858     8A    -11.216143     9A    -11.215491
      10A    -11.215090    11A    -11.214871    12A     -1.429669
      13A     -1.098721    14A     -1.078931    15A     -1.036226
      16A     -0.990043    17A     -0.932307    18A     -0.927492
      19A     -0.870284    20A     -0.815708    21A     -0.749413
      22A     -0.721699    23A     -0.657954    24A     -0.627240
      25A     -0.611148    26A     -0.609471    27A     -0.587145
      28A     -0.583457    29A     -0.567674    30A     -0.555838
      31A     -0.549786    32A     -0.532450    33A     -0.528190
      34A     -0.523877    35A     -0.521394    36A     -0.506421
      37A     -0.495440    38A     -0.491663    39A     -0.484488
      40A     -0.466906    41A     -0.360707    42A     -0.278860

  @DF-RHF Final Energy:  -463.01179854006148

   => Energetics <=

    Nuclear Repulsion Energy =            629.6439830247525151
    One-Electron Energy =               -1877.1199310545384833
    Two-Electron Energy =                 784.4641494897244911
    Total Energy =                       -463.0117985400614771
  Basis Set: (AUG-CC-PVTZ AUX)
    Blend: AUG-CC-PVTZ-RI
    Molecular point group: c1

    Geometry (in Angstrom), charge = 0, multiplicity = 1:

       Center              X                  Y                   Z               Mass
    ------------   -----------------  -----------------  -----------------  -----------------
         O            0.073272118178     1.021667432977     0.507593593720    15.994914619570
         C           -0.740940881822    -1.039365567023     0.126770593720    12.000000000000
         C            0.689259118178    -1.094211567023     0.062111593720    12.000000000000
         C           -1.070601881822     0.262655432977     0.394927593720    12.000000000000
         C            1.140954118178     0.176788432977     0.303102593720    12.000000000000
         C           -2.355392881822     1.001272432977     0.519605593720    12.000000000000
         C            2.485795118178     0.811493432977     0.340721593720    12.000000000000
         C           -1.682123881822    -2.182538567023    -0.088794406280    12.000000000000
         C            1.513393118178    -2.322065567023    -0.176448406280    12.000000000000
         C           -2.847759881822     1.556327432977    -0.824880406280    12.000000000000
         C            2.803168118178     1.581554532977    -0.949359406280    12.000000000000
         H            3.229881118178     0.027214632977     0.527190493720     1.007825032230
         H            2.531467118178     1.495661432977     1.197222593720     1.007825032230
         H           -2.215050881822     1.821901432977     1.234232593720     1.007825032230
         H           -3.112117881822     0.331095432977     0.948903593720     1.007825032230
         H           -1.422091881822    -3.039320567023     0.543903593720     1.007825032230
         H           -2.711115881822    -1.890841567023     0.145508593720     1.007825032230
         H           -1.664132881822    -2.526884567023    -1.131285406280     1.007825032230
         H            2.514879118178    -2.064040567023    -0.538990406280     1.007825032230
         H            1.631596118178    -2.917210567023     0.738332593720     1.007825032230
         H            1.043876118178    -2.964856567023    -0.928868406280     1.007825032230
         H            2.813749118178     0.892624432977    -1.806540406280     1.007825032230
         H            3.797993118178     2.048137432977    -0.885701406280     1.007825032230
         H            2.064736118178     2.350737432977    -1.131567406280     1.007825032230
         H           -2.098523881822     2.229302432977    -1.253926406280     1.007825032230
         H           -3.782012881822     2.111743432977    -0.700977406280     1.007825032230
         H           -3.021001881822     0.740921432977    -1.533627406280     1.007825032230

  Basis Set: AUG-CC-PVTZ
    Blend: AUG-CC-PVTZ
  Basis Set: (AUG-CC-PVTZ AUX)
    Blend: AUG-CC-PVTZ-JKFIT
	 Reference Energy          =    -463.0117985400614771 [Eh]
	 Singles Energy            =      -0.0000000000000000 [Eh]
	 Same-Spin Energy          =      -0.4971059775508547 [Eh]
	 Opposite-Spin Energy      =      -1.6671382806967996 [Eh]
	 Correlation Energy        =      -2.1642442582476544 [Eh]
	 Total Energy              =    -465.1760427983091404 [Eh]

	 ================> DF-SCS-MP2 Energies <==================
	-----------------------------------------------------------
	 SCS Same-Spin Scale       =       0.3333333333333333 [-]
	 SCS Opposite-Spin Scale   =       1.2000000000000000 [-]
	 SCS Same-Spin Energy      =      -0.1657019925169516 [Eh]
	 SCS Opposite-Spin Energy  =      -2.0005659368361592 [Eh]
	 SCS Correlation Energy    =      -2.1662679293531109 [Eh]
	 SCS Total Energy          =    -465.1780664694146026 [Eh]
	-----------------------------------------------------------

  Dipole Moment: [D]
     X:    -0.0318      Y:    -0.6487      Z:    -0.2140     Total:     0.6839

*** Psi4 exiting successfully. Buy a developer a beer!
