                               Psi4 1.3.2 release

  ==> Input File <==

--------------------------------------------------------------------------
#psi4
#
memory 32 gb

molecule  {
0 1
  O        0.0723890     1.0222580     0.5077940
  C       -0.7418240    -1.0387750     0.1269710
  C        0.6883760    -1.0936210     0.0623120
  C       -1.0781257     0.2730264     0.3973020
  C        1.1476057     0.1866026     0.3048872
  C       -2.3562760     1.0018630     0.5198060
  C        2.4849120     0.8120840     0.3409220
  C       -1.6830070    -2.1819480    -0.0885940
  C        1.5125100    -2.3214750    -0.1762480
  C       -2.8486430     1.5569180    -0.8246800
  C        2.8130920     1.5744450    -0.9510270
  H        3.2336060     0.0303330     0.5193890
  H        2.5305840     1.4962520     1.1974230
  H       -2.2159340     1.8224920     1.2344330
  H       -3.1130010     0.3316860     0.9491040
  H       -1.4229750    -3.0387300     0.5441040
  H       -2.7119990    -1.8902510     0.1457090
  H       -1.6650160    -2.5262940    -1.1310850
  H        2.5139960    -2.0634500    -0.5387900
  H        1.6307130    -2.9166200     0.7385330
  H        1.0429930    -2.9642660    -0.9286680
  H        2.8128660     0.8932150    -1.8063400
  H        3.7971100     2.0487280    -0.8855010
  H        2.0638530     2.3513280    -1.1313670
  H       -2.0994070     2.2298930    -1.2537260
  H       -3.7828960     2.1123340    -0.7007770
  H       -3.0218850     0.7415120    -1.5334270
units angstrom
no_reorient  #important for SAPT in psi4, default
symmetry c1  #important for SAPT in psi4, default
}

set PROPERTIES_ORIGIN ["COM"]
properties('MP2/aug-cc-pvtz', properties = ['dipole'])
--------------------------------------------------------------------------

    Molecular point group: c1
  Charge       = 0
  Multiplicity = 1
  Basis Set: AUG-CC-PVTZ
    Blend: AUG-CC-PVTZ
  Basis Set: (AUG-CC-PVTZ AUX)
    Blend: AUG-CC-PVTZ-JKFIT

    Orbital Energies [Eh]
    ---------------------

    Doubly Occupied:

       1A    -20.599045     2A    -11.270599     3A    -11.270434
       4A    -11.229881     5A    -11.229752     6A    -11.222891
       7A    -11.222579     8A    -11.217435     9A    -11.216356
      10A    -11.215706    11A    -11.214876    12A     -1.429006
      13A     -1.096326    14A     -1.080796    15A     -1.037879
      16A     -0.989338    17A     -0.930286    18A     -0.928166
      19A     -0.871941    20A     -0.815376    21A     -0.748466
      22A     -0.721415    23A     -0.658567    24A     -0.626521
      25A     -0.612011    26A     -0.610704    27A     -0.588316
      28A     -0.583465    29A     -0.567632    30A     -0.555550
      31A     -0.549392    32A     -0.533526    33A     -0.528339
      34A     -0.522581    35A     -0.521497    36A     -0.505576
      37A     -0.496001    38A     -0.493774    39A     -0.484329
      40A     -0.466811    41A     -0.358436    42A     -0.276163

  @DF-RHF Final Energy:  -463.01016034899516

   => Energetics <=

    Nuclear Repulsion Energy =            629.3592891424173104
    One-Electron Energy =               -1876.5434226951099390
    Two-Electron Energy =                 784.1739732036974146
    Total Energy =                       -463.0101603489952140
  Basis Set: (AUG-CC-PVTZ AUX)
    Blend: AUG-CC-PVTZ-RI
    Molecular point group: c1

    Geometry (in Angstrom), charge = 0, multiplicity = 1:

       Center              X                  Y                   Z               Mass
    ------------   -----------------  -----------------  -----------------  -----------------
         O            0.072318555543     1.020758977314     0.507497499362    15.994914619570
         C           -0.741894444457    -1.040274022686     0.126674499362    12.000000000000
         C            0.688305555543    -1.095120022686     0.062015499362    12.000000000000
         C           -1.078196144457     0.271527377314     0.397005499362    12.000000000000
         C            1.147535255543     0.185103577314     0.304590699362    12.000000000000
         C           -2.356346444457     1.000363977314     0.519509499362    12.000000000000
         C            2.484841555543     0.810584977314     0.340625499362    12.000000000000
         C           -1.683077444457    -2.183447022686    -0.088890500638    12.000000000000
         C            1.512439555543    -2.322974022686    -0.176544500638    12.000000000000
         C           -2.848713444457     1.555418977314    -0.824976500638    12.000000000000
         C            2.813021555543     1.572945977314    -0.951323500638    12.000000000000
         H            3.233535555543     0.028833977314     0.519092499362     1.007825032230
         H            2.530513555543     1.494752977314     1.197126499362     1.007825032230
         H           -2.216004444457     1.820992977314     1.234136499362     1.007825032230
         H           -3.113071444457     0.330186977314     0.948807499362     1.007825032230
         H           -1.423045444457    -3.040229022686     0.543807499362     1.007825032230
         H           -2.712069444457    -1.891750022686     0.145412499362     1.007825032230
         H           -1.665086444457    -2.527793022686    -1.131381500638     1.007825032230
         H            2.513925555543    -2.064949022686    -0.539086500638     1.007825032230
         H            1.630642555543    -2.918119022686     0.738236499362     1.007825032230
         H            1.042922555543    -2.965765022686    -0.928964500638     1.007825032230
         H            2.812795555543     0.891715977314    -1.806636500638     1.007825032230
         H            3.797039555543     2.047228977314    -0.885797500638     1.007825032230
         H            2.063782555543     2.349828977314    -1.131663500638     1.007825032230
         H           -2.099477444457     2.228393977314    -1.254022500638     1.007825032230
         H           -3.782966444457     2.110834977314    -0.701073500638     1.007825032230
         H           -3.021955444457     0.740012977314    -1.533723500638     1.007825032230

  Basis Set: AUG-CC-PVTZ
    Blend: AUG-CC-PVTZ
  Basis Set: (AUG-CC-PVTZ AUX)
    Blend: AUG-CC-PVTZ-JKFIT
	 Reference Energy          =    -463.0101603489951572 [Eh]
	 Singles Energy            =      -0.0000000000000000 [Eh]
	 Same-Spin Energy          =      -0.4977663123880792 [Eh]
	 Opposite-Spin Energy      =      -1.6679365695930344 [Eh]
	 Correlation Energy        =      -2.1657028819811135 [Eh]
	 Total Energy              =    -465.1758632309762902 [Eh]

	 ================> DF-SCS-MP2 Energies <==================
	-----------------------------------------------------------
	 SCS Same-Spin Scale       =       0.3333333333333333 [-]
	 SCS Opposite-Spin Scale   =       1.2000000000000000 [-]
	 SCS Same-Spin Energy      =      -0.1659221041293597 [Eh]
	 SCS Opposite-Spin Energy  =      -2.0015238835116413 [Eh]
	 SCS Correlation Energy    =      -2.1674459876410008 [Eh]
	 SCS Total Energy          =    -465.1776063366361313 [Eh]
	-----------------------------------------------------------

  Dipole Moment: [D]
     X:    -0.0284      Y:    -0.6202      Z:    -0.2106     Total:     0.6556

*** Psi4 exiting successfully. Buy a developer a beer!
