                               Psi4 1.4a3.dev225

  ==> Input File <==

--------------------------------------------------------------------------
#psi4
#
memory 32 gb

molecule  {
0 1
  O        0.0000040    -0.9323440    -0.5200900
  C       -0.7186120     1.1388030    -0.0293360
  C        0.7186000     1.1388090    -0.0293300
  C       -1.1092540    -0.1401520    -0.3350070
  C        1.1495738    -0.1113483    -0.3282683
  C       -2.4197690    -0.8327410    -0.4659430
  C        2.4197760    -0.8327180    -0.4659420
  C       -1.5881550     2.3237520     0.2504950
  C        1.5881310     2.3237650     0.2505070
  C       -2.6404590    -1.8837440     0.6266770
  C        2.6404800    -1.8837320     0.6266650
  H        3.2127060    -0.0780420    -0.4310990
  H        2.4812700    -1.3082390    -1.4528680
  H       -2.4812630    -1.3082740    -1.4528630
  H       -3.2127060    -0.0780720    -0.4311050
  H       -1.4004860     3.1330380    -0.4637010
  H       -2.6480190     2.0627510     0.1871390
  H       -1.4034730     2.7248980     1.2531230
  H        2.6479980     2.0627640     0.1871950
  H        1.4004870     3.1330370    -0.4637120
  H        1.4034130     2.7249310     1.2531200
  H        2.6185650    -1.4170920     1.6153140
  H        3.6057420    -2.3837880     0.5012060
  H        1.8526560    -2.6398250     0.5898280
  H       -1.8526300    -2.6398320     0.5898440
  H       -3.6057190    -2.3838080     0.5012310
  H       -2.6185400    -1.4170920     1.6153210
units angstrom
no_reorient  #important for SAPT in psi4, default
symmetry c1  #important for SAPT in psi4, default
}

set PROPERTIES_ORIGIN ["COM"]
properties('MP2/aug-cc-pvtz', properties = ['dipole'])
--------------------------------------------------------------------------

    Molecular point group: c1
  Charge       = 0
  Multiplicity = 1
  Basis Set: AUG-CC-PVTZ
    Blend: AUG-CC-PVTZ
  Basis Set: (AUG-CC-PVTZ AUX)
    Blend: AUG-CC-PVTZ-JKFIT

    Orbital Energies [Eh]
    ---------------------

    Doubly Occupied:

       1A    -20.589463     2A    -11.273106     3A    -11.269608
       4A    -11.230123     5A    -11.229961     6A    -11.222969
       7A    -11.222275     8A    -11.219705     9A    -11.215596
      10A    -11.213783    11A    -11.213614    12A     -1.411459
      13A     -1.099107    14A     -1.080286    15A     -1.038140
      16A     -0.992608    17A     -0.932621    18A     -0.924174
      19A     -0.872128    20A     -0.817264    21A     -0.744087
      22A     -0.719676    23A     -0.655859    24A     -0.622330
      25A     -0.613951    26A     -0.610533    27A     -0.586606
      28A     -0.579679    29A     -0.566762    30A     -0.556089
      31A     -0.552255    32A     -0.532827    33A     -0.530262
      34A     -0.518901    35A     -0.518318    36A     -0.504368
      37A     -0.496398    38A     -0.490742    39A     -0.482559
      40A     -0.471135    41A     -0.361959    42A     -0.282509

  @DF-RHF Final Energy:  -463.01047293217067

   => Energetics <=

    Nuclear Repulsion Energy =            629.4954826660448362
    One-Electron Energy =               -1876.8803236727796957
    Two-Electron Energy =                 784.3743680745642450
    Total Energy =                       -463.0104729321706145
  Basis Set: (AUG-CC-PVTZ AUX)
    Blend: AUG-CC-PVTZ-RI
    Molecular point group: c1

    Geometry (in Angstrom), charge = 0, multiplicity = 1:

       Center              X                  Y                   Z               Mass
    ------------   -----------------  -----------------  -----------------  -----------------
         O           -0.003176424805    -0.933424611744    -0.497170904214    15.994914619570
         C           -0.721792424805     1.137722388256    -0.006416904214    12.000000000000
         C            0.715419575195     1.137728388256    -0.006410904214    12.000000000000
         C           -1.112434424805    -0.141232611744    -0.312087904214    12.000000000000
         C            1.146393375195    -0.112428911744    -0.305349204214    12.000000000000
         C           -2.422949424805    -0.833821611744    -0.443023904214    12.000000000000
         C            2.416595575195    -0.833798611744    -0.443022904214    12.000000000000
         C           -1.591335424805     2.322671388256     0.273414095786    12.000000000000
         C            1.584950575195     2.322684388256     0.273426095786    12.000000000000
         C           -2.643639424805    -1.884824611744     0.649596095786    12.000000000000
         C            2.637299575195    -1.884812611744     0.649584095786    12.000000000000
         H            3.209525575195    -0.079122611744    -0.408179904214     1.007825032230
         H            2.478089575195    -1.309319611744    -1.429948904214     1.007825032230
         H           -2.484443424805    -1.309354611744    -1.429943904214     1.007825032230
         H           -3.215886424805    -0.079152611744    -0.408185904214     1.007825032230
         H           -1.403666424805     3.131957388256    -0.440781904214     1.007825032230
         H           -2.651199424805     2.061670388256     0.210058095786     1.007825032230
         H           -1.406653424805     2.723817388256     1.276042095786     1.007825032230
         H            2.644817575195     2.061683388256     0.210114095786     1.007825032230
         H            1.397306575195     3.131956388256    -0.440792904214     1.007825032230
         H            1.400232575195     2.723850388256     1.276039095786     1.007825032230
         H            2.615384575195    -1.418172611744     1.638233095786     1.007825032230
         H            3.602561575195    -2.384868611744     0.524125095786     1.007825032230
         H            1.849475575195    -2.640905611744     0.612747095786     1.007825032230
         H           -1.855810424805    -2.640912611744     0.612763095786     1.007825032230
         H           -3.608899424805    -2.384888611744     0.524150095786     1.007825032230
         H           -2.621720424805    -1.418172611744     1.638240095786     1.007825032230

  Basis Set: AUG-CC-PVTZ
    Blend: AUG-CC-PVTZ
  Basis Set: (AUG-CC-PVTZ AUX)
    Blend: AUG-CC-PVTZ-JKFIT
	 Reference Energy          =    -463.0104729321706714 [Eh]
	 Singles Energy            =      -0.0000000000000000 [Eh]
	 Same-Spin Energy          =      -0.4970026694134650 [Eh]
	 Opposite-Spin Energy      =      -1.6675764880000918 [Eh]
	 Correlation Energy        =      -2.1645791574135567 [Eh]
	 Total Energy              =    -465.1750520895842556 [Eh]

	 ================> DF-SCS-MP2 Energies <==================
	-----------------------------------------------------------
	 SCS Same-Spin Scale       =       0.3333333333333333 [-]
	 SCS Opposite-Spin Scale   =       1.2000000000000000 [-]
	 SCS Same-Spin Energy      =      -0.1656675564711550 [Eh]
	 SCS Opposite-Spin Energy  =      -2.0010917856001100 [Eh]
	 SCS Correlation Energy    =      -2.1667593420712650 [Eh]
	 SCS Total Energy          =    -465.1772322742419306 [Eh]
	-----------------------------------------------------------

  Dipole Moment: [D]
     X:     0.0796      Y:     0.6818      Z:     0.2455     Total:     0.7290

*** Psi4 exiting successfully. Buy a developer a beer!
