                               Psi4 1.3.2 release

  ==> Input File <==

--------------------------------------------------------------------------
#psi4
#
memory 32 gb

molecule  {
0 1
  O        0.1033383     1.0584815     0.5140769
  C       -0.7418240    -1.0387750     0.1269710
  C        0.7337732    -1.1080266     0.0579448
  C       -1.0714850     0.2632460     0.3951280
  C        1.1400710     0.1773790     0.3033030
  C       -2.3562760     1.0018630     0.5198060
  C        2.4849120     0.8120840     0.3409220
  C       -1.6830070    -2.1819480    -0.0885940
  C        1.5125100    -2.3214750    -0.1762480
  C       -2.8486430     1.5569180    -0.8246800
  C        2.8130920     1.5744450    -0.9510270
  H        3.2336060     0.0303330     0.5193890
  H        2.5305840     1.4962520     1.1974230
  H       -2.2159340     1.8224920     1.2344330
  H       -3.1130010     0.3316860     0.9491040
  H       -1.4229750    -3.0387300     0.5441040
  H       -2.7119990    -1.8902510     0.1457090
  H       -1.6650160    -2.5262940    -1.1310850
  H        2.5139960    -2.0634500    -0.5387900
  H        1.6307130    -2.9166200     0.7385330
  H        1.0429930    -2.9642660    -0.9286680
  H        2.8128660     0.8932150    -1.8063400
  H        3.7971100     2.0487280    -0.8855010
  H        2.0638530     2.3513280    -1.1313670
  H       -2.0994070     2.2298930    -1.2537260
  H       -3.7828960     2.1123340    -0.7007770
  H       -3.0218850     0.7415120    -1.5334270
units angstrom
no_reorient  #important for SAPT in psi4, default
symmetry c1  #important for SAPT in psi4, default
}

set PROPERTIES_ORIGIN ["COM"]
properties('MP2/aug-cc-pvtz', properties = ['dipole'])
--------------------------------------------------------------------------

    Molecular point group: c1
  Charge       = 0
  Multiplicity = 1
  Basis Set: AUG-CC-PVTZ
    Blend: AUG-CC-PVTZ
  Basis Set: (AUG-CC-PVTZ AUX)
    Blend: AUG-CC-PVTZ-JKFIT

    Orbital Energies [Eh]
    ---------------------

    Doubly Occupied:

       1A    -20.597602     2A    -11.272752     3A    -11.272558
       4A    -11.230694     5A    -11.226944     6A    -11.225526
       7A    -11.223760     8A    -11.222519     9A    -11.218005
      10A    -11.215284    11A    -11.213679    12A     -1.414467
      13A     -1.098398    14A     -1.077638    15A     -1.034812
      16A     -0.995086    17A     -0.933833    18A     -0.924801
      19A     -0.868259    20A     -0.813485    21A     -0.744469
      22A     -0.716640    23A     -0.654138    24A     -0.623467
      25A     -0.611217    26A     -0.609589    27A     -0.585558
      28A     -0.583006    29A     -0.568861    30A     -0.558974
      31A     -0.553995    32A     -0.536134    33A     -0.531391
      34A     -0.524513    35A     -0.521764    36A     -0.504249
      37A     -0.493961    38A     -0.492277    39A     -0.481719
      40A     -0.459927    41A     -0.358612    42A     -0.281920

  @DF-RHF Final Energy:  -463.00561806287823

   => Energetics <=

    Nuclear Repulsion Energy =            627.9973072960415266
    One-Electron Energy =               -1873.8528823933920648
    Two-Electron Energy =                 782.8499570344722542
    Total Energy =                       -463.0056180628782840
  Basis Set: (AUG-CC-PVTZ AUX)
    Blend: AUG-CC-PVTZ-RI
    Molecular point group: c1

    Geometry (in Angstrom), charge = 0, multiplicity = 1:

       Center              X                  Y                   Z               Mass
    ------------   -----------------  -----------------  -----------------  -----------------
         O            0.096503005214     1.055809216371     0.513760746148    15.994914619570
         C           -0.748659294786    -1.041447283629     0.126654846148    12.000000000000
         C            0.726937905214    -1.110698883629     0.057628646148    12.000000000000
         C           -1.078320294786     0.260573716371     0.394811846148    12.000000000000
         C            1.133235705214     0.174706716371     0.302986846148    12.000000000000
         C           -2.363111294786     0.999190716371     0.519489846148    12.000000000000
         C            2.478076705214     0.809411716371     0.340605846148    12.000000000000
         C           -1.689842294786    -2.184620283629    -0.088910153852    12.000000000000
         C            1.505674705214    -2.324147283629    -0.176564153852    12.000000000000
         C           -2.855478294786     1.554245716371    -0.824996153852    12.000000000000
         C            2.806256705214     1.571772716371    -0.951343153852    12.000000000000
         H            3.226770705214     0.027660716371     0.519072846148     1.007825032230
         H            2.523748705214     1.493579716371     1.197106846148     1.007825032230
         H           -2.222769294786     1.819819716371     1.234116846148     1.007825032230
         H           -3.119836294786     0.329013716371     0.948787846148     1.007825032230
         H           -1.429810294786    -3.041402283629     0.543787846148     1.007825032230
         H           -2.718834294786    -1.892923283629     0.145392846148     1.007825032230
         H           -1.671851294786    -2.528966283629    -1.131401153852     1.007825032230
         H            2.507160705214    -2.066122283629    -0.539106153852     1.007825032230
         H            1.623877705214    -2.919292283629     0.738216846148     1.007825032230
         H            1.036157705214    -2.966938283629    -0.928984153852     1.007825032230
         H            2.806030705214     0.890542716371    -1.806656153852     1.007825032230
         H            3.790274705214     2.046055716371    -0.885817153852     1.007825032230
         H            2.057017705214     2.348655716371    -1.131683153852     1.007825032230
         H           -2.106242294786     2.227220716371    -1.254042153852     1.007825032230
         H           -3.789731294786     2.109661716371    -0.701093153852     1.007825032230
         H           -3.028720294786     0.738839716371    -1.533743153852     1.007825032230

  Basis Set: AUG-CC-PVTZ
    Blend: AUG-CC-PVTZ
  Basis Set: (AUG-CC-PVTZ AUX)
    Blend: AUG-CC-PVTZ-JKFIT
	 Reference Energy          =    -463.0056180628782272 [Eh]
	 Singles Energy            =      -0.0000000000000000 [Eh]
	 Same-Spin Energy          =      -0.4969124584925693 [Eh]
	 Opposite-Spin Energy      =      -1.6684918502265544 [Eh]
	 Correlation Energy        =      -2.1654043087191237 [Eh]
	 Total Energy              =    -465.1710223715973598 [Eh]

	 ================> DF-SCS-MP2 Energies <==================
	-----------------------------------------------------------
	 SCS Same-Spin Scale       =       0.3333333333333333 [-]
	 SCS Opposite-Spin Scale   =       1.2000000000000000 [-]
	 SCS Same-Spin Energy      =      -0.1656374861641897 [Eh]
	 SCS Opposite-Spin Energy  =      -2.0021902202718653 [Eh]
	 SCS Correlation Energy    =      -2.1678277064360549 [Eh]
	 SCS Total Energy          =    -465.1734457693142986 [Eh]
	-----------------------------------------------------------

  Dipole Moment: [D]
     X:    -0.1402      Y:    -0.8294      Z:    -0.2451     Total:     0.8761

*** Psi4 exiting successfully. Buy a developer a beer!
