                               Psi4 1.3.2 release

  ==> Input File <==

--------------------------------------------------------------------------
#psi4
#
memory 32 gb

molecule  {
0 1
  O        0.0723890     1.0222580     0.5077940
  C       -0.7418240    -1.0387750     0.1269710
  C        0.6883760    -1.0936210     0.0623120
  C       -1.0714850     0.2632460     0.3951280
  C        1.1365303     0.1868299     0.2793822
  C       -2.3562760     1.0018630     0.5198060
  C        2.4849120     0.8120840     0.3409220
  C       -1.6830070    -2.1819480    -0.0885940
  C        1.5125100    -2.3214750    -0.1762480
  C       -2.8486430     1.5569180    -0.8246800
  C        2.7891850     1.5674754    -0.9609345
  H        3.2336060     0.0303330     0.5193890
  H        2.5305840     1.4962520     1.1974230
  H       -2.2159340     1.8224920     1.2344330
  H       -3.1130010     0.3316860     0.9491040
  H       -1.4229750    -3.0387300     0.5441040
  H       -2.7119990    -1.8902510     0.1457090
  H       -1.6650160    -2.5262940    -1.1310850
  H        2.5139960    -2.0634500    -0.5387900
  H        1.6307130    -2.9166200     0.7385330
  H        1.0429930    -2.9642660    -0.9286680
  H        2.8128660     0.8932150    -1.8063400
  H        3.7971100     2.0487280    -0.8855010
  H        2.0638530     2.3513280    -1.1313670
  H       -2.0994070     2.2298930    -1.2537260
  H       -3.7828960     2.1123340    -0.7007770
  H       -3.0218850     0.7415120    -1.5334270
units angstrom
no_reorient  #important for SAPT in psi4, default
symmetry c1  #important for SAPT in psi4, default
}

set PROPERTIES_ORIGIN ["COM"]
properties('MP2/aug-cc-pvtz', properties = ['dipole'])
--------------------------------------------------------------------------

    Molecular point group: c1
  Charge       = 0
  Multiplicity = 1
  Basis Set: AUG-CC-PVTZ
    Blend: AUG-CC-PVTZ
  Basis Set: (AUG-CC-PVTZ AUX)
    Blend: AUG-CC-PVTZ-JKFIT

    Orbital Energies [Eh]
    ---------------------

    Doubly Occupied:

       1A    -20.599396     2A    -11.269653     3A    -11.269156
       4A    -11.230230     5A    -11.230033     6A    -11.223143
       7A    -11.222770     8A    -11.215994     9A    -11.215400
      10A    -11.215012    11A    -11.214646    12A     -1.431603
      13A     -1.098388    14A     -1.079264    15A     -1.036545
      16A     -0.989747    17A     -0.932127    18A     -0.927428
      19A     -0.869718    20A     -0.815621    21A     -0.750110
      22A     -0.721805    23A     -0.658566    24A     -0.627988
      25A     -0.612784    26A     -0.609635    27A     -0.586918
      28A     -0.583897    29A     -0.567757    30A     -0.555661
      31A     -0.549936    32A     -0.530111    33A     -0.527514
      34A     -0.524183    35A     -0.521843    36A     -0.507154
      37A     -0.497872    38A     -0.489754    39A     -0.485346
      40A     -0.465935    41A     -0.360282    42A     -0.278102

  @DF-RHF Final Energy:  -463.01092149308681

   => Energetics <=

    Nuclear Repulsion Energy =            629.8913298935598277
    One-Electron Energy =               -1877.6064485347162645
    Two-Electron Energy =                 784.7041971480697384
    Total Energy =                       -463.0109214930868120
  Basis Set: (AUG-CC-PVTZ AUX)
    Blend: AUG-CC-PVTZ-RI
    Molecular point group: c1

    Geometry (in Angstrom), charge = 0, multiplicity = 1:

       Center              X                  Y                   Z               Mass
    ------------   -----------------  -----------------  -----------------  -----------------
         O            0.074554291427     1.022062371016     0.510462511580    15.994914619570
         C           -0.739658708573    -1.038970628984     0.129639511580    12.000000000000
         C            0.690541291427    -1.093816628984     0.064980511580    12.000000000000
         C           -1.069319708573     0.263050371016     0.397796511580    12.000000000000
         C            1.138695591427     0.186634271016     0.282050711580    12.000000000000
         C           -2.354110708573     1.001667371016     0.522474511580    12.000000000000
         C            2.487077291427     0.811888371016     0.343590511580    12.000000000000
         C           -1.680841708573    -2.182143628984    -0.085925488420    12.000000000000
         C            1.514675291427    -2.321670628984    -0.173579488420    12.000000000000
         C           -2.846477708573     1.556722371016    -0.822011488420    12.000000000000
         C            2.791350291427     1.567279771016    -0.958265988420    12.000000000000
         H            3.235771291427     0.030137371016     0.522057511580     1.007825032230
         H            2.532749291427     1.496056371016     1.200091511580     1.007825032230
         H           -2.213768708573     1.822296371016     1.237101511580     1.007825032230
         H           -3.110835708573     0.331490371016     0.951772511580     1.007825032230
         H           -1.420809708573    -3.038925628984     0.546772511580     1.007825032230
         H           -2.709833708573    -1.890446628984     0.148377511580     1.007825032230
         H           -1.662850708573    -2.526489628984    -1.128416488420     1.007825032230
         H            2.516161291427    -2.063645628984    -0.536121488420     1.007825032230
         H            1.632878291427    -2.916815628984     0.741201511580     1.007825032230
         H            1.045158291427    -2.964461628984    -0.925999488420     1.007825032230
         H            2.815031291427     0.893019371016    -1.803671488420     1.007825032230
         H            3.799275291427     2.048532371016    -0.882832488420     1.007825032230
         H            2.066018291427     2.351132371016    -1.128698488420     1.007825032230
         H           -2.097241708573     2.229697371016    -1.251057488420     1.007825032230
         H           -3.780730708573     2.112138371016    -0.698108488420     1.007825032230
         H           -3.019719708573     0.741316371016    -1.530758488420     1.007825032230

  Basis Set: AUG-CC-PVTZ
    Blend: AUG-CC-PVTZ
  Basis Set: (AUG-CC-PVTZ AUX)
    Blend: AUG-CC-PVTZ-JKFIT
	 Reference Energy          =    -463.0109214930868120 [Eh]
	 Singles Energy            =      -0.0000000000000000 [Eh]
	 Same-Spin Energy          =      -0.4971953918987685 [Eh]
	 Opposite-Spin Energy      =      -1.6672413081588080 [Eh]
	 Correlation Energy        =      -2.1644367000575766 [Eh]
	 Total Energy              =    -465.1753581931444046 [Eh]

	 ================> DF-SCS-MP2 Energies <==================
	-----------------------------------------------------------
	 SCS Same-Spin Scale       =       0.3333333333333333 [-]
	 SCS Opposite-Spin Scale   =       1.2000000000000000 [-]
	 SCS Same-Spin Energy      =      -0.1657317972995895 [Eh]
	 SCS Opposite-Spin Energy  =      -2.0006895697905693 [Eh]
	 SCS Correlation Energy    =      -2.1664213670901589 [Eh]
	 SCS Total Energy          =    -465.1773428601769638 [Eh]
	-----------------------------------------------------------

  Dipole Moment: [D]
     X:    -0.0356      Y:    -0.6489      Z:    -0.2026     Total:     0.6807

*** Psi4 exiting successfully. Buy a developer a beer!
