                               Psi4 1.3.2 release

  ==> Input File <==

--------------------------------------------------------------------------
#psi4
#
memory 32 gb

molecule  {
0 1
  O        0.0723890     1.0222580     0.5077940
  C       -0.7418240    -1.0387750     0.1269710
  C        0.4887265    -1.0859647     0.0713381
  C       -1.0714850     0.2632460     0.3951280
  C        1.1400710     0.1773790     0.3033030
  C       -2.3562760     1.0018630     0.5198060
  C        2.4849120     0.8120840     0.3409220
  C       -1.6830070    -2.1819480    -0.0885940
  C        1.5125100    -2.3214750    -0.1762480
  C       -2.8486430     1.5569180    -0.8246800
  C        2.8130920     1.5744450    -0.9510270
  H        3.2336060     0.0303330     0.5193890
  H        2.5305840     1.4962520     1.1974230
  H       -2.2159340     1.8224920     1.2344330
  H       -3.1130010     0.3316860     0.9491040
  H       -1.4229750    -3.0387300     0.5441040
  H       -2.7119990    -1.8902510     0.1457090
  H       -1.6650160    -2.5262940    -1.1310850
  H        2.5139960    -2.0634500    -0.5387900
  H        1.6307130    -2.9166200     0.7385330
  H        1.0429930    -2.9642660    -0.9286680
  H        2.8128660     0.8932150    -1.8063400
  H        3.7971100     2.0487280    -0.8855010
  H        2.0638530     2.3513280    -1.1313670
  H       -2.0994070     2.2298930    -1.2537260
  H       -3.7828960     2.1123340    -0.7007770
  H       -3.0218850     0.7415120    -1.5334270
units angstrom
no_reorient  #important for SAPT in psi4, default
symmetry c1  #important for SAPT in psi4, default
}

set PROPERTIES_ORIGIN ["COM"]
properties('MP2/aug-cc-pvtz', properties = ['dipole'])
--------------------------------------------------------------------------

    Molecular point group: c1
  Charge       = 0
  Multiplicity = 1
  Basis Set: AUG-CC-PVTZ
    Blend: AUG-CC-PVTZ
  Basis Set: (AUG-CC-PVTZ AUX)
    Blend: AUG-CC-PVTZ-JKFIT

    Orbital Energies [Eh]
    ---------------------

    Doubly Occupied:

       1A    -20.607311     2A    -11.270152     3A    -11.268924
       4A    -11.234348     5A    -11.229793     6A    -11.225183
       7A    -11.225071     8A    -11.215207     9A    -11.215088
      10A    -11.211999    11A    -11.198933    12A     -1.435347
      13A     -1.130470    14A     -1.073401    15A     -1.038948
      16A     -0.975216    17A     -0.939388    18A     -0.919688
      19A     -0.874126    20A     -0.812090    21A     -0.757732
      22A     -0.737705    23A     -0.659205    24A     -0.629006
      25A     -0.611289    26A     -0.608121    27A     -0.587500
      28A     -0.581486    29A     -0.568177    30A     -0.549986
      31A     -0.547558    32A     -0.544496    33A     -0.530688
      34A     -0.524350    35A     -0.508394    36A     -0.504032
      37A     -0.498036    38A     -0.486689    39A     -0.484073
      40A     -0.456129    41A     -0.391293    42A     -0.257025

  @DF-RHF Final Energy:  -462.94592200605291

   => Energetics <=

    Nuclear Repulsion Energy =            631.3162578400550728
    One-Electron Energy =               -1880.2770568700541389
    Two-Electron Energy =                 786.0148770239462692
    Total Energy =                       -462.9459220060529105
  Basis Set: (AUG-CC-PVTZ AUX)
    Blend: AUG-CC-PVTZ-RI
    Molecular point group: c1

    Geometry (in Angstrom), charge = 0, multiplicity = 1:

       Center              X                  Y                   Z               Mass
    ------------   -----------------  -----------------  -----------------  -----------------
         O            0.088138435760     1.021654140980     0.507081940907    15.994914619570
         C           -0.726074564240    -1.039378859020     0.126258940907    12.000000000000
         C            0.504475935760    -1.086568559020     0.070626040907    12.000000000000
         C           -1.055735564240     0.262642140980     0.394415940907    12.000000000000
         C            1.155820435760     0.176775140980     0.302590940907    12.000000000000
         C           -2.340526564240     1.001259140980     0.519093940907    12.000000000000
         C            2.500661435760     0.811480140980     0.340209940907    12.000000000000
         C           -1.667257564240    -2.182551859020    -0.089306059093    12.000000000000
         C            1.528259435760    -2.322078859020    -0.176960059093    12.000000000000
         C           -2.832893564240     1.556314140980    -0.825392059093    12.000000000000
         C            2.828841435760     1.573841140980    -0.951739059093    12.000000000000
         H            3.249355435760     0.029729140980     0.518676940907     1.007825032230
         H            2.546333435760     1.495648140980     1.196710940907     1.007825032230
         H           -2.200184564240     1.821888140980     1.233720940907     1.007825032230
         H           -3.097251564240     0.331082140980     0.948391940907     1.007825032230
         H           -1.407225564240    -3.039333859020     0.543391940907     1.007825032230
         H           -2.696249564240    -1.890854859020     0.144996940907     1.007825032230
         H           -1.649266564240    -2.526897859020    -1.131797059093     1.007825032230
         H            2.529745435760    -2.064053859020    -0.539502059093     1.007825032230
         H            1.646462435760    -2.917223859020     0.737820940907     1.007825032230
         H            1.058742435760    -2.964869859020    -0.929380059093     1.007825032230
         H            2.828615435760     0.892611140980    -1.807052059093     1.007825032230
         H            3.812859435760     2.048124140980    -0.886213059093     1.007825032230
         H            2.079602435760     2.350724140980    -1.132079059093     1.007825032230
         H           -2.083657564240     2.229289140980    -1.254438059093     1.007825032230
         H           -3.767146564240     2.111730140980    -0.701489059093     1.007825032230
         H           -3.006135564240     0.740908140980    -1.534139059093     1.007825032230

  Basis Set: AUG-CC-PVTZ
    Blend: AUG-CC-PVTZ
  Basis Set: (AUG-CC-PVTZ AUX)
    Blend: AUG-CC-PVTZ-JKFIT
	 Reference Energy          =    -462.9459220060529105 [Eh]
	 Singles Energy            =      -0.0000000000000000 [Eh]
	 Same-Spin Energy          =      -0.5026745885697332 [Eh]
	 Opposite-Spin Energy      =      -1.6746585529638418 [Eh]
	 Correlation Energy        =      -2.1773331415335750 [Eh]
	 Total Energy              =    -465.1232551475864625 [Eh]

	 ================> DF-SCS-MP2 Energies <==================
	-----------------------------------------------------------
	 SCS Same-Spin Scale       =       0.3333333333333333 [-]
	 SCS Opposite-Spin Scale   =       1.2000000000000000 [-]
	 SCS Same-Spin Energy      =      -0.1675581961899111 [Eh]
	 SCS Opposite-Spin Energy  =      -2.0095902635566101 [Eh]
	 SCS Correlation Energy    =      -2.1771484597465212 [Eh]
	 SCS Total Energy          =    -465.1230704657994579 [Eh]
	-----------------------------------------------------------

  Dipole Moment: [D]
     X:    -0.0790      Y:    -0.5669      Z:    -0.1884     Total:     0.6026

*** Psi4 exiting successfully. Buy a developer a beer!
