                               Psi4 1.3.2 release

  ==> Input File <==

--------------------------------------------------------------------------
#psi4
#
memory 32 gb

molecule  {
0 1
  O        0.0723890     1.0222580     0.5077940
  C       -0.7418240    -1.0387750     0.1269710
  C        0.6883760    -1.0936210     0.0623120
  C       -1.0714850     0.2632460     0.3951280
  C        1.1513427     0.1734685     0.3025038
  C       -2.3562760     1.0018630     0.5198060
  C        2.4849120     0.8120840     0.3409220
  C       -1.6830070    -2.1819480    -0.0885940
  C        1.5233937    -2.3143552    -0.1749361
  C       -2.8486430     1.5569180    -0.8246800
  C        2.8130920     1.5744450    -0.9510270
  H        3.2336060     0.0303330     0.5193890
  H        2.5305840     1.4962520     1.1974230
  H       -2.2159340     1.8224920     1.2344330
  H       -3.1130010     0.3316860     0.9491040
  H       -1.4229750    -3.0387300     0.5441040
  H       -2.7119990    -1.8902510     0.1457090
  H       -1.6650160    -2.5262940    -1.1310850
  H        2.5139960    -2.0634500    -0.5387900
  H        1.6307130    -2.9166200     0.7385330
  H        1.0429930    -2.9642660    -0.9286680
  H        2.8128660     0.8932150    -1.8063400
  H        3.7971100     2.0487280    -0.8855010
  H        2.0638530     2.3513280    -1.1313670
  H       -2.0994070     2.2298930    -1.2537260
  H       -3.7828960     2.1123340    -0.7007770
  H       -3.0218850     0.7415120    -1.5334270
units angstrom
no_reorient  #important for SAPT in psi4, default
symmetry c1  #important for SAPT in psi4, default
}

set PROPERTIES_ORIGIN ["COM"]
properties('MP2/aug-cc-pvtz', properties = ['dipole'])
--------------------------------------------------------------------------

    Molecular point group: c1
  Charge       = 0
  Multiplicity = 1
  Basis Set: AUG-CC-PVTZ
    Blend: AUG-CC-PVTZ
  Basis Set: (AUG-CC-PVTZ AUX)
    Blend: AUG-CC-PVTZ-JKFIT

    Orbital Energies [Eh]
    ---------------------

    Doubly Occupied:

       1A    -20.596851     2A    -11.270258     3A    -11.269119
       4A    -11.230236     5A    -11.229865     6A    -11.223156
       7A    -11.222888     8A    -11.217011     9A    -11.215613
      10A    -11.215273    11A    -11.214821    12A     -1.425000
      13A     -1.098473    14A     -1.079608    15A     -1.036836
      16A     -0.990508    17A     -0.931721    18A     -0.927060
      19A     -0.870948    20A     -0.815830    21A     -0.747370
      22A     -0.722034    23A     -0.657171    24A     -0.625431
      25A     -0.611632    26A     -0.610087    27A     -0.586995
      28A     -0.583939    29A     -0.566483    30A     -0.555307
      31A     -0.550994    32A     -0.533976    33A     -0.526997
      34A     -0.521805    35A     -0.521379    36A     -0.505151
      37A     -0.495582    38A     -0.493468    39A     -0.483552
      40A     -0.468846    41A     -0.360511    42A     -0.279012

  @DF-RHF Final Energy:  -463.01118111658053

   => Energetics <=

    Nuclear Repulsion Energy =            629.4429332497786618
    One-Electron Energy =               -1876.7306283891493877
    Two-Electron Energy =                 784.2765140227902521
    Total Energy =                       -463.0111811165804738
  Basis Set: (AUG-CC-PVTZ AUX)
    Blend: AUG-CC-PVTZ-RI
    Molecular point group: c1

    Geometry (in Angstrom), charge = 0, multiplicity = 1:

       Center              X                  Y                   Z               Mass
    ------------   -----------------  -----------------  -----------------  -----------------
         O            0.070641349345     1.022004942713     0.507753520730    15.994914619570
         C           -0.743571650655    -1.039028057287     0.126930520730    12.000000000000
         C            0.686628349345    -1.093874057287     0.062271520730    12.000000000000
         C           -1.073232650655     0.262992942713     0.395087520730    12.000000000000
         C            1.149595049345     0.173215442713     0.302463320730    12.000000000000
         C           -2.358023650655     1.001609942713     0.519765520730    12.000000000000
         C            2.483164349345     0.811830942713     0.340881520730    12.000000000000
         C           -1.684754650655    -2.182201057287    -0.088634479270    12.000000000000
         C            1.521646049345    -2.314608257287    -0.174976579270    12.000000000000
         C           -2.850390650655     1.556664942713    -0.824720479270    12.000000000000
         C            2.811344349345     1.574191942713    -0.951067479270    12.000000000000
         H            3.231858349345     0.030079942713     0.519348520730     1.007825032230
         H            2.528836349345     1.495998942713     1.197382520730     1.007825032230
         H           -2.217681650655     1.822238942713     1.234392520730     1.007825032230
         H           -3.114748650655     0.331432942713     0.949063520730     1.007825032230
         H           -1.424722650655    -3.038983057287     0.544063520730     1.007825032230
         H           -2.713746650655    -1.890504057287     0.145668520730     1.007825032230
         H           -1.666763650655    -2.526547057287    -1.131125479270     1.007825032230
         H            2.512248349345    -2.063703057287    -0.538830479270     1.007825032230
         H            1.628965349345    -2.916873057287     0.738492520730     1.007825032230
         H            1.041245349345    -2.964519057287    -0.928708479270     1.007825032230
         H            2.811118349345     0.892961942713    -1.806380479270     1.007825032230
         H            3.795362349345     2.048474942713    -0.885541479270     1.007825032230
         H            2.062105349345     2.351074942713    -1.131407479270     1.007825032230
         H           -2.101154650655     2.229639942713    -1.253766479270     1.007825032230
         H           -3.784643650655     2.112080942713    -0.700817479270     1.007825032230
         H           -3.023632650655     0.741258942713    -1.533467479270     1.007825032230

  Basis Set: AUG-CC-PVTZ
    Blend: AUG-CC-PVTZ
  Basis Set: (AUG-CC-PVTZ AUX)
    Blend: AUG-CC-PVTZ-JKFIT
	 Reference Energy          =    -463.0111811165805307 [Eh]
	 Singles Energy            =      -0.0000000000000000 [Eh]
	 Same-Spin Energy          =      -0.4972235530676288 [Eh]
	 Opposite-Spin Energy      =      -1.6674460789439496 [Eh]
	 Correlation Energy        =      -2.1646696320115786 [Eh]
	 Total Energy              =    -465.1758507485920973 [Eh]

	 ================> DF-SCS-MP2 Energies <==================
	-----------------------------------------------------------
	 SCS Same-Spin Scale       =       0.3333333333333333 [-]
	 SCS Opposite-Spin Scale   =       1.2000000000000000 [-]
	 SCS Same-Spin Energy      =      -0.1657411843558763 [Eh]
	 SCS Opposite-Spin Energy  =      -2.0009352947327392 [Eh]
	 SCS Correlation Energy    =      -2.1666764790886157 [Eh]
	 SCS Total Energy          =    -465.1778575956691384 [Eh]
	-----------------------------------------------------------

  Dipole Moment: [D]
     X:    -0.0106      Y:    -0.6534      Z:    -0.2198     Total:     0.6895

*** Psi4 exiting successfully. Buy a developer a beer!
