                               Psi4 1.3.2 release

  ==> Input File <==

--------------------------------------------------------------------------
#psi4
#
memory 32 gb

molecule  {
0 1
  O        0.0723890     1.0222580     0.5077940
  C       -0.7418240    -1.0387750     0.1269710
  C        0.6883760    -1.0936210     0.0623120
  C       -1.0714850     0.2632460     0.3951280
  C        1.1400710     0.1773790     0.3033030
  C       -2.3562760     1.0018630     0.5198060
  C        2.4849120     0.8120840     0.3409220
  C       -1.6830070    -2.1819480    -0.0885940
  C        1.5125100    -2.3214750    -0.1762480
  C       -2.8486430     1.5569180    -0.8246800
  C        2.8773807     1.5270461    -0.9601645
  H        3.2600448     0.0467429     0.4711138
  H        2.5305840     1.4962520     1.1974230
  H       -2.2159340     1.8224920     1.2344330
  H       -3.1130010     0.3316860     0.9491040
  H       -1.4229750    -3.0387300     0.5441040
  H       -2.7119990    -1.8902510     0.1457090
  H       -1.6650160    -2.5262940    -1.1310850
  H        2.5139960    -2.0634500    -0.5387900
  H        1.6307130    -2.9166200     0.7385330
  H        1.0429930    -2.9642660    -0.9286680
  H        2.8128660     0.8932150    -1.8063400
  H        3.7971100     2.0487280    -0.8855010
  H        2.0638530     2.3513280    -1.1313670
  H       -2.0994070     2.2298930    -1.2537260
  H       -3.7828960     2.1123340    -0.7007770
  H       -3.0218850     0.7415120    -1.5334270
units angstrom
no_reorient  #important for SAPT in psi4, default
symmetry c1  #important for SAPT in psi4, default
}

set PROPERTIES_ORIGIN ["COM"]
properties('MP2/aug-cc-pvtz', properties = ['dipole'])
--------------------------------------------------------------------------

    Molecular point group: c1
  Charge       = 0
  Multiplicity = 1
  Basis Set: AUG-CC-PVTZ
    Blend: AUG-CC-PVTZ
  Basis Set: (AUG-CC-PVTZ AUX)
    Blend: AUG-CC-PVTZ-JKFIT

    Orbital Energies [Eh]
    ---------------------

    Doubly Occupied:

       1A    -20.599137     2A    -11.270344     3A    -11.270176
       4A    -11.230354     5A    -11.230301     6A    -11.223423
       7A    -11.223118     8A    -11.216870     9A    -11.215548
      10A    -11.215512    11A    -11.214931    12A     -1.430061
      13A     -1.099138    14A     -1.078861    15A     -1.036560
      16A     -0.990476    17A     -0.932619    18A     -0.928512
      19A     -0.870022    20A     -0.815307    21A     -0.749555
      22A     -0.722257    23A     -0.658879    24A     -0.627987
      25A     -0.614419    26A     -0.609516    27A     -0.588138
      28A     -0.582099    29A     -0.568156    30A     -0.555995
      31A     -0.550305    32A     -0.538883    33A     -0.527519
      34A     -0.524544    35A     -0.523628    36A     -0.507380
      37A     -0.497005    38A     -0.490661    39A     -0.470654
      40A     -0.465330    41A     -0.360905    42A     -0.279564

  @DF-RHF Final Energy:  -463.00455926901867

   => Energetics <=

    Nuclear Repulsion Energy =            629.2097585686552748
    One-Electron Energy =               -1876.2193304763559354
    Two-Electron Energy =                 784.0050126386821603
    Total Energy =                       -463.0045592690186140
  Basis Set: (AUG-CC-PVTZ AUX)
    Blend: AUG-CC-PVTZ-RI
    Molecular point group: c1

    Geometry (in Angstrom), charge = 0, multiplicity = 1:

       Center              X                  Y                   Z               Mass
    ------------   -----------------  -----------------  -----------------  -----------------
         O            0.067142500531     1.025888453395     0.508834609545    15.994914619570
         C           -0.747070499469    -1.035144546605     0.128011609545    12.000000000000
         C            0.683129500531    -1.089990546605     0.063352609545    12.000000000000
         C           -1.076731499469     0.266876453395     0.396168609545    12.000000000000
         C            1.134824500531     0.181009453395     0.304343609545    12.000000000000
         C           -2.361522499469     1.005493453395     0.520846609545    12.000000000000
         C            2.479665500531     0.815714453395     0.341962609545    12.000000000000
         C           -1.688253499469    -2.178317546605    -0.087553390455    12.000000000000
         C            1.507263500531    -2.317844546605    -0.175207390455    12.000000000000
         C           -2.853889499469     1.560548453395    -0.823639390455    12.000000000000
         C            2.872134200531     1.530676553395    -0.959123890455    12.000000000000
         H            3.254798300531     0.050373353395     0.472154409545     1.007825032230
         H            2.525337500531     1.499882453395     1.198463609545     1.007825032230
         H           -2.221180499469     1.826122453395     1.235473609545     1.007825032230
         H           -3.118247499469     0.335316453395     0.950144609545     1.007825032230
         H           -1.428221499469    -3.035099546605     0.545144609545     1.007825032230
         H           -2.717245499469    -1.886620546605     0.146749609545     1.007825032230
         H           -1.670262499469    -2.522663546605    -1.130044390455     1.007825032230
         H            2.508749500531    -2.059819546605    -0.537749390455     1.007825032230
         H            1.625466500531    -2.912989546605     0.739573609545     1.007825032230
         H            1.037746500531    -2.960635546605    -0.927627390455     1.007825032230
         H            2.807619500531     0.896845453395    -1.805299390455     1.007825032230
         H            3.791863500531     2.052358453395    -0.884460390455     1.007825032230
         H            2.058606500531     2.354958453395    -1.130326390455     1.007825032230
         H           -2.104653499469     2.233523453395    -1.252685390455     1.007825032230
         H           -3.788142499469     2.115964453395    -0.699736390455     1.007825032230
         H           -3.027131499469     0.745142453395    -1.532386390455     1.007825032230

  Basis Set: AUG-CC-PVTZ
    Blend: AUG-CC-PVTZ
  Basis Set: (AUG-CC-PVTZ AUX)
    Blend: AUG-CC-PVTZ-JKFIT
	 Reference Energy          =    -463.0045592690186709 [Eh]
	 Singles Energy            =      -0.0000000000000000 [Eh]
	 Same-Spin Energy          =      -0.4972242661452630 [Eh]
	 Opposite-Spin Energy      =      -1.6674811282599931 [Eh]
	 Correlation Energy        =      -2.1647053944052561 [Eh]
	 Total Energy              =    -465.1692646634239168 [Eh]

	 ================> DF-SCS-MP2 Energies <==================
	-----------------------------------------------------------
	 SCS Same-Spin Scale       =       0.3333333333333333 [-]
	 SCS Opposite-Spin Scale   =       1.2000000000000000 [-]
	 SCS Same-Spin Energy      =      -0.1657414220484210 [Eh]
	 SCS Opposite-Spin Energy  =      -2.0009773539119915 [Eh]
	 SCS Correlation Energy    =      -2.1667187759604123 [Eh]
	 SCS Total Energy          =    -465.1712780449790898 [Eh]
	-----------------------------------------------------------

  Dipole Moment: [D]
     X:    -0.0256      Y:    -0.6893      Z:    -0.2201     Total:     0.7240

*** Psi4 exiting successfully. Buy a developer a beer!
