                               Psi4 1.3.2 release

  ==> Input File <==

--------------------------------------------------------------------------
#psi4
#
memory 32 gb

molecule  {
0 1
  O        0.0723890     1.0222580     0.5077940
  C       -0.7418240    -1.0387750     0.1269710
  C        0.6883760    -1.0936210     0.0623120
  C       -1.0716870     0.2733147     0.3442035
  C        1.1400710     0.1773790     0.3033030
  C       -2.3562760     1.0018630     0.5198060
  C        2.4849120     0.8120840     0.3409220
  C       -1.6830070    -2.1819480    -0.0885940
  C        1.5125100    -2.3214750    -0.1762480
  C       -2.8053473     1.5357990    -0.8481857
  C        2.8130920     1.5744450    -0.9510270
  H        3.2336060     0.0303330     0.5193890
  H        2.5305840     1.4962520     1.1974230
  H       -2.2159340     1.8224920     1.2344330
  H       -3.1130010     0.3316860     0.9491040
  H       -1.4229750    -3.0387300     0.5441040
  H       -2.7119990    -1.8902510     0.1457090
  H       -1.6650160    -2.5262940    -1.1310850
  H        2.5139960    -2.0634500    -0.5387900
  H        1.6307130    -2.9166200     0.7385330
  H        1.0429930    -2.9642660    -0.9286680
  H        2.8128660     0.8932150    -1.8063400
  H        3.7971100     2.0487280    -0.8855010
  H        2.0638530     2.3513280    -1.1313670
  H       -2.0994070     2.2298930    -1.2537260
  H       -3.7828960     2.1123340    -0.7007770
  H       -3.0218850     0.7415120    -1.5334270
units angstrom
no_reorient  #important for SAPT in psi4, default
symmetry c1  #important for SAPT in psi4, default
}

set PROPERTIES_ORIGIN ["COM"]
properties('MP2/aug-cc-pvtz', properties = ['dipole'])
--------------------------------------------------------------------------

    Molecular point group: c1
  Charge       = 0
  Multiplicity = 1
  Basis Set: AUG-CC-PVTZ
    Blend: AUG-CC-PVTZ
  Basis Set: (AUG-CC-PVTZ AUX)
    Blend: AUG-CC-PVTZ-JKFIT

    Orbital Energies [Eh]
    ---------------------

    Doubly Occupied:

       1A    -20.598688     2A    -11.269495     3A    -11.268811
       4A    -11.230738     5A    -11.229786     6A    -11.223151
       7A    -11.222738     8A    -11.215959     9A    -11.215702
      10A    -11.214546    11A    -11.214542    12A     -1.429838
      13A     -1.098599    14A     -1.079656    15A     -1.036914
      16A     -0.989865    17A     -0.932166    18A     -0.926702
      19A     -0.869382    20A     -0.815964    21A     -0.749385
      22A     -0.722018    23A     -0.658297    24A     -0.627961
      25A     -0.613642    26A     -0.610585    27A     -0.587642
      28A     -0.583105    29A     -0.567560    30A     -0.555766
      31A     -0.550512    32A     -0.530479    33A     -0.524724
      34A     -0.523071    35A     -0.522290    36A     -0.508135
      37A     -0.500096    38A     -0.487772    39A     -0.484860
      40A     -0.465315    41A     -0.360509    42A     -0.278004

  @DF-RHF Final Energy:  -463.00765132155550

   => Energetics <=

    Nuclear Repulsion Energy =            630.1638957513058585
    One-Electron Energy =               -1878.1531549378262298
    Two-Electron Energy =                 784.9816078649649853
    Total Energy =                       -463.0076513215554996
  Basis Set: (AUG-CC-PVTZ AUX)
    Blend: AUG-CC-PVTZ-RI
    Molecular point group: c1

    Geometry (in Angstrom), charge = 0, multiplicity = 1:

       Center              X                  Y                   Z               Mass
    ------------   -----------------  -----------------  -----------------  -----------------
         O            0.068989630900     1.023129811702     0.513665393720    15.994914619570
         C           -0.745223369100    -1.037903188298     0.132842393720    12.000000000000
         C            0.684976630900    -1.092749188298     0.068183393720    12.000000000000
         C           -1.075086369100     0.274186511702     0.350074893720    12.000000000000
         C            1.136671630900     0.178250811702     0.309174393720    12.000000000000
         C           -2.359675369100     1.002734811702     0.525677393720    12.000000000000
         C            2.481512630900     0.812955811702     0.346793393720    12.000000000000
         C           -1.686406369100    -2.181076188298    -0.082722606280    12.000000000000
         C            1.509110630900    -2.320603188298    -0.170376606280    12.000000000000
         C           -2.808746669100     1.536670811702    -0.842314306280    12.000000000000
         C            2.809692630900     1.575316811702    -0.945155606280    12.000000000000
         H            3.230206630900     0.031204811702     0.525260393720     1.007825032230
         H            2.527184630900     1.497123811702     1.203294393720     1.007825032230
         H           -2.219333369100     1.823363811702     1.240304393720     1.007825032230
         H           -3.116400369100     0.332557811702     0.954975393720     1.007825032230
         H           -1.426374369100    -3.037858188298     0.549975393720     1.007825032230
         H           -2.715398369100    -1.889379188298     0.151580393720     1.007825032230
         H           -1.668415369100    -2.525422188298    -1.125213606280     1.007825032230
         H            2.510596630900    -2.062578188298    -0.532918606280     1.007825032230
         H            1.627313630900    -2.915748188298     0.744404393720     1.007825032230
         H            1.039593630900    -2.963394188298    -0.922796606280     1.007825032230
         H            2.809466630900     0.894086811702    -1.800468606280     1.007825032230
         H            3.793710630900     2.049599811702    -0.879629606280     1.007825032230
         H            2.060453630900     2.352199811702    -1.125495606280     1.007825032230
         H           -2.102806369100     2.230764811702    -1.247854606280     1.007825032230
         H           -3.786295369100     2.113205811702    -0.694905606280     1.007825032230
         H           -3.025284369100     0.742383811702    -1.527555606280     1.007825032230

  Basis Set: AUG-CC-PVTZ
    Blend: AUG-CC-PVTZ
  Basis Set: (AUG-CC-PVTZ AUX)
    Blend: AUG-CC-PVTZ-JKFIT
	 Reference Energy          =    -463.0076513215554996 [Eh]
	 Singles Energy            =      -0.0000000000000000 [Eh]
	 Same-Spin Energy          =      -0.4972725172851097 [Eh]
	 Opposite-Spin Energy      =      -1.6675295268870487 [Eh]
	 Correlation Energy        =      -2.1648020441721583 [Eh]
	 Total Energy              =    -465.1724533657276766 [Eh]

	 ================> DF-SCS-MP2 Energies <==================
	-----------------------------------------------------------
	 SCS Same-Spin Scale       =       0.3333333333333333 [-]
	 SCS Opposite-Spin Scale   =       1.2000000000000000 [-]
	 SCS Same-Spin Energy      =      -0.1657575057617032 [Eh]
	 SCS Opposite-Spin Energy  =      -2.0010354322644583 [Eh]
	 SCS Correlation Energy    =      -2.1667929380261617 [Eh]
	 SCS Total Energy          =    -465.1744442595816622 [Eh]
	-----------------------------------------------------------

  Dipole Moment: [D]
     X:    -0.0242      Y:    -0.6623      Z:    -0.1906     Total:     0.6896

*** Psi4 exiting successfully. Buy a developer a beer!
