                               Psi4 1.3.2 release

  ==> Input File <==

--------------------------------------------------------------------------
#psi4
#
memory 32 gb

molecule  {
0 1
  O        0.0723890     1.0222580     0.5077940
  C       -0.7418240    -1.0387750     0.1269710
  C        0.6883760    -1.0936210     0.0623120
  C       -1.1100052     0.3227693     0.4082950
  C        1.1840395     0.2336611     0.3130374
  C       -2.3562760     1.0018630     0.5198060
  C        2.4849120     0.8120840     0.3409220
  C       -1.6830070    -2.1819480    -0.0885940
  C        1.5125100    -2.3214750    -0.1762480
  C       -2.8486430     1.5569180    -0.8246800
  C        2.8130920     1.5744450    -0.9510270
  H        3.2336060     0.0303330     0.5193890
  H        2.5305840     1.4962520     1.1974230
  H       -2.2159340     1.8224920     1.2344330
  H       -3.1130010     0.3316860     0.9491040
  H       -1.4229750    -3.0387300     0.5441040
  H       -2.7119990    -1.8902510     0.1457090
  H       -1.6650160    -2.5262940    -1.1310850
  H        2.5139960    -2.0634500    -0.5387900
  H        1.6307130    -2.9166200     0.7385330
  H        1.0429930    -2.9642660    -0.9286680
  H        2.8128660     0.8932150    -1.8063400
  H        3.7971100     2.0487280    -0.8855010
  H        2.0638530     2.3513280    -1.1313670
  H       -2.0994070     2.2298930    -1.2537260
  H       -3.7828960     2.1123340    -0.7007770
  H       -3.0218850     0.7415120    -1.5334270
units angstrom
no_reorient  #important for SAPT in psi4, default
symmetry c1  #important for SAPT in psi4, default
}

set PROPERTIES_ORIGIN ["COM"]
properties('MP2/aug-cc-pvtz', properties = ['dipole'])
--------------------------------------------------------------------------

    Molecular point group: c1
  Charge       = 0
  Multiplicity = 1
  Basis Set: AUG-CC-PVTZ
    Blend: AUG-CC-PVTZ
  Basis Set: (AUG-CC-PVTZ AUX)
    Blend: AUG-CC-PVTZ-JKFIT

    Orbital Energies [Eh]
    ---------------------

    Doubly Occupied:

       1A    -20.601326     2A    -11.275277     3A    -11.275197
       4A    -11.228415     5A    -11.228356     6A    -11.223139
       7A    -11.222149     8A    -11.221295     9A    -11.221052
      10A    -11.216732    11A    -11.215919    12A     -1.425855
      13A     -1.091549    14A     -1.086428    15A     -1.046326
      16A     -0.985704    17A     -0.931194    18A     -0.920335
      19A     -0.880543    20A     -0.815950    21A     -0.742184
      22A     -0.719424    23A     -0.662560    24A     -0.623429
      25A     -0.618004    26A     -0.615309    27A     -0.595616
      28A     -0.582036    29A     -0.567214    30A     -0.554556
      31A     -0.548288    32A     -0.534185    33A     -0.533376
      34A     -0.520416    35A     -0.517601    36A     -0.506757
      37A     -0.500366    38A     -0.499213    39A     -0.481728
      40A     -0.461248    41A     -0.347592    42A     -0.262579

  @DF-RHF Final Energy:  -462.98757313589363

   => Energetics <=

    Nuclear Repulsion Energy =            628.3684315178260249
    One-Electron Energy =               -1874.4991645203474491
    Two-Electron Energy =                 783.1431598666279115
    Total Energy =                       -462.9875731358936264
  Basis Set: (AUG-CC-PVTZ AUX)
    Blend: AUG-CC-PVTZ-RI
    Molecular point group: c1

    Geometry (in Angstrom), charge = 0, multiplicity = 1:

       Center              X                  Y                   Z               Mass
    ------------   -----------------  -----------------  -----------------  -----------------
         O            0.071959289447     1.013122795873     0.505987387436    15.994914619570
         C           -0.742253710553    -1.047910204127     0.125164387436    12.000000000000
         C            0.687946289447    -1.102756204127     0.060505387436    12.000000000000
         C           -1.110434910553     0.313634095873     0.406488387436    12.000000000000
         C            1.183609789447     0.224525895873     0.311230787436    12.000000000000
         C           -2.356705710553     0.992727795873     0.517999387436    12.000000000000
         C            2.484482289447     0.802948795873     0.339115387436    12.000000000000
         C           -1.683436710553    -2.191083204127    -0.090400612564    12.000000000000
         C            1.512080289447    -2.330610204127    -0.178054612564    12.000000000000
         C           -2.849072710553     1.547782795873    -0.826486612564    12.000000000000
         C            2.812662289447     1.565309795873    -0.952833612564    12.000000000000
         H            3.233176289447     0.021197795873     0.517582387436     1.007825032230
         H            2.530154289447     1.487116795873     1.195616387436     1.007825032230
         H           -2.216363710553     1.813356795873     1.232626387436     1.007825032230
         H           -3.113430710553     0.322550795873     0.947297387436     1.007825032230
         H           -1.423404710553    -3.047865204127     0.542297387436     1.007825032230
         H           -2.712428710553    -1.899386204127     0.143902387436     1.007825032230
         H           -1.665445710553    -2.535429204127    -1.132891612564     1.007825032230
         H            2.513566289447    -2.072585204127    -0.540596612564     1.007825032230
         H            1.630283289447    -2.925755204127     0.736726387436     1.007825032230
         H            1.042563289447    -2.973401204127    -0.930474612564     1.007825032230
         H            2.812436289447     0.884079795873    -1.808146612564     1.007825032230
         H            3.796680289447     2.039592795873    -0.887307612564     1.007825032230
         H            2.063423289447     2.342192795873    -1.133173612564     1.007825032230
         H           -2.099836710553     2.220757795873    -1.255532612564     1.007825032230
         H           -3.783325710553     2.103198795873    -0.702583612564     1.007825032230
         H           -3.022314710553     0.732376795873    -1.535233612564     1.007825032230

  Basis Set: AUG-CC-PVTZ
    Blend: AUG-CC-PVTZ
  Basis Set: (AUG-CC-PVTZ AUX)
    Blend: AUG-CC-PVTZ-JKFIT
	 Reference Energy          =    -462.9875731358936264 [Eh]
	 Singles Energy            =      -0.0000000000000000 [Eh]
	 Same-Spin Energy          =      -0.5016138310001055 [Eh]
	 Opposite-Spin Energy      =      -1.6728007889649206 [Eh]
	 Correlation Energy        =      -2.1744146199650261 [Eh]
	 Total Energy              =    -465.1619877558586609 [Eh]

	 ================> DF-SCS-MP2 Energies <==================
	-----------------------------------------------------------
	 SCS Same-Spin Scale       =       0.3333333333333333 [-]
	 SCS Opposite-Spin Scale   =       1.2000000000000000 [-]
	 SCS Same-Spin Energy      =      -0.1672046103333685 [Eh]
	 SCS Opposite-Spin Energy  =      -2.0073609467579048 [Eh]
	 SCS Correlation Energy    =      -2.1745655570912734 [Eh]
	 SCS Total Energy          =    -465.1621386929849109 [Eh]
	-----------------------------------------------------------

  Dipole Moment: [D]
     X:    -0.0145      Y:    -0.4657      Z:    -0.1817     Total:     0.5001

*** Psi4 exiting successfully. Buy a developer a beer!
