                               Psi4 1.3.2 release

  ==> Input File <==

--------------------------------------------------------------------------
#psi4
#
memory 32 gb

molecule  {
0 1
  O        0.0723890     1.0222580     0.5077940
  C       -0.7418240    -1.0387750     0.1269710
  C        0.6883760    -1.0936210     0.0623120
  C       -1.0503600     0.2960340     0.4293829
  C        1.1400710     0.1773790     0.3033030
  C       -2.3562760     1.0018630     0.5198060
  C        2.4849120     0.8120840     0.3409220
  C       -1.6830070    -2.1819480    -0.0885940
  C        1.5125100    -2.3214750    -0.1762480
  C       -2.8486430     1.5569180    -0.8246800
  C        2.8130920     1.5744450    -0.9510270
  H        3.2336060     0.0303330     0.5193890
  H        2.5305840     1.4962520     1.1974230
  H       -2.1795298     1.8114751     1.2389087
  H       -3.1130010     0.3316860     0.9491040
  H       -1.4229750    -3.0387300     0.5441040
  H       -2.7119990    -1.8902510     0.1457090
  H       -1.6650160    -2.5262940    -1.1310850
  H        2.5139960    -2.0634500    -0.5387900
  H        1.6307130    -2.9166200     0.7385330
  H        1.0429930    -2.9642660    -0.9286680
  H        2.8128660     0.8932150    -1.8063400
  H        3.7971100     2.0487280    -0.8855010
  H        2.0638530     2.3513280    -1.1313670
  H       -2.0994070     2.2298930    -1.2537260
  H       -3.7828960     2.1123340    -0.7007770
  H       -3.0218850     0.7415120    -1.5334270
units angstrom
no_reorient  #important for SAPT in psi4, default
symmetry c1  #important for SAPT in psi4, default
}

set PROPERTIES_ORIGIN ["COM"]
properties('MP2/aug-cc-pvtz', properties = ['dipole'])
--------------------------------------------------------------------------

    Molecular point group: c1
  Charge       = 0
  Multiplicity = 1
  Basis Set: AUG-CC-PVTZ
    Blend: AUG-CC-PVTZ
  Basis Set: (AUG-CC-PVTZ AUX)
    Blend: AUG-CC-PVTZ-JKFIT

    Orbital Energies [Eh]
    ---------------------

    Doubly Occupied:

       1A    -20.604940     2A    -11.272387     3A    -11.267859
       4A    -11.230000     5A    -11.229974     6A    -11.223075
       7A    -11.222294     8A    -11.217200     9A    -11.216398
      10A    -11.215214    11A    -11.214414    12A     -1.445387
      13A     -1.096585    14A     -1.078981    15A     -1.036189
      16A     -0.988156    17A     -0.932986    18A     -0.928565
      19A     -0.871060    20A     -0.815046    21A     -0.754363
      22A     -0.720878    23A     -0.660911    24A     -0.631879
      25A     -0.612162    26A     -0.608688    27A     -0.589532
      28A     -0.582017    29A     -0.568911    30A     -0.555340
      31A     -0.549268    32A     -0.533958    33A     -0.530373
      34A     -0.527726    35A     -0.521290    36A     -0.506136
      37A     -0.496838    38A     -0.489801    39A     -0.485534
      40A     -0.461299    41A     -0.358128    42A     -0.274305

  @DF-RHF Final Energy:  -463.00904067716579

   => Energetics <=

    Nuclear Repulsion Energy =            629.7042725154503842
    One-Electron Energy =               -1877.1745293724779913
    Two-Electron Energy =                 784.4612161798618217
    Total Energy =                       -463.0090406771657854
  Basis Set: (AUG-CC-PVTZ AUX)
    Blend: AUG-CC-PVTZ-RI
    Molecular point group: c1

    Geometry (in Angstrom), charge = 0, multiplicity = 1:

       Center              X                  Y                   Z               Mass
    ------------   -----------------  -----------------  -----------------  -----------------
         O            0.070481447651     1.019744615129     0.505062113863    15.994914619570
         C           -0.743731552349    -1.041288384871     0.124239113863    12.000000000000
         C            0.686468447651    -1.096134384871     0.059580113863    12.000000000000
         C           -1.052267552349     0.293520615129     0.426651013863    12.000000000000
         C            1.138163447651     0.174865615129     0.300571113863    12.000000000000
         C           -2.358183552349     0.999349615129     0.517074113863    12.000000000000
         C            2.483004447651     0.809570615129     0.338190113863    12.000000000000
         C           -1.684914552349    -2.184461384871    -0.091325886137    12.000000000000
         C            1.510602447651    -2.323988384871    -0.178979886137    12.000000000000
         C           -2.850550552349     1.554404615129    -0.827411886137    12.000000000000
         C            2.811184447651     1.571931615129    -0.953758886137    12.000000000000
         H            3.231698447651     0.027819615129     0.516657113863     1.007825032230
         H            2.528676447651     1.493738615129     1.194691113863     1.007825032230
         H           -2.181437352349     1.808961715129     1.236176813863     1.007825032230
         H           -3.114908552349     0.329172615129     0.946372113863     1.007825032230
         H           -1.424882552349    -3.041243384871     0.541372113863     1.007825032230
         H           -2.713906552349    -1.892764384871     0.142977113863     1.007825032230
         H           -1.666923552349    -2.528807384871    -1.133816886137     1.007825032230
         H            2.512088447651    -2.065963384871    -0.541521886137     1.007825032230
         H            1.628805447651    -2.919133384871     0.735801113863     1.007825032230
         H            1.041085447651    -2.966779384871    -0.931399886137     1.007825032230
         H            2.810958447651     0.890701615129    -1.809071886137     1.007825032230
         H            3.795202447651     2.046214615129    -0.888232886137     1.007825032230
         H            2.061945447651     2.348814615129    -1.134098886137     1.007825032230
         H           -2.101314552349     2.227379615129    -1.256457886137     1.007825032230
         H           -3.784803552349     2.109820615129    -0.703508886137     1.007825032230
         H           -3.023792552349     0.738998615129    -1.536158886137     1.007825032230

  Basis Set: AUG-CC-PVTZ
    Blend: AUG-CC-PVTZ
  Basis Set: (AUG-CC-PVTZ AUX)
    Blend: AUG-CC-PVTZ-JKFIT
	 Reference Energy          =    -463.0090406771657854 [Eh]
	 Singles Energy            =      -0.0000000000000000 [Eh]
	 Same-Spin Energy          =      -0.4976939939728917 [Eh]
	 Opposite-Spin Energy      =      -1.6672963572316539 [Eh]
	 Correlation Energy        =      -2.1649903512045454 [Eh]
	 Total Energy              =    -465.1740310283703366 [Eh]

	 ================> DF-SCS-MP2 Energies <==================
	-----------------------------------------------------------
	 SCS Same-Spin Scale       =       0.3333333333333333 [-]
	 SCS Opposite-Spin Scale   =       1.2000000000000000 [-]
	 SCS Same-Spin Energy      =      -0.1658979979909639 [Eh]
	 SCS Opposite-Spin Energy  =      -2.0007556286779846 [Eh]
	 SCS Correlation Energy    =      -2.1666536266689485 [Eh]
	 SCS Total Energy          =    -465.1756943038347458 [Eh]
	-----------------------------------------------------------

  Dipole Moment: [D]
     X:     0.0342      Y:    -0.5963      Z:    -0.2206     Total:     0.6367

*** Psi4 exiting successfully. Buy a developer a beer!
