                               Psi4 1.3.2 release

  ==> Input File <==

--------------------------------------------------------------------------
#psi4
#
memory 32 gb

molecule  {
0 1
  O        0.0723890     1.0222580     0.5077940
  C       -0.7418240    -1.0387750     0.1269710
  C        0.6883760    -1.0936210     0.0623120
  C       -1.0014698     0.2785937     0.3970953
  C        1.1400710     0.1773790     0.3033030
  C       -2.3562760     1.0018630     0.5198060
  C        2.4849120     0.8120840     0.3409220
  C       -1.6208463    -2.2284804    -0.0989913
  C        1.5125100    -2.3214750    -0.1762480
  C       -2.8486430     1.5569180    -0.8246800
  C        2.8130920     1.5744450    -0.9510270
  H        3.2336060     0.0303330     0.5193890
  H        2.5305840     1.4962520     1.1974230
  H       -2.2159340     1.8224920     1.2344330
  H       -3.1130010     0.3316860     0.9491040
  H       -1.4229750    -3.0387300     0.5441040
  H       -2.7119990    -1.8902510     0.1457090
  H       -1.6650160    -2.5262940    -1.1310850
  H        2.5139960    -2.0634500    -0.5387900
  H        1.6307130    -2.9166200     0.7385330
  H        1.0429930    -2.9642660    -0.9286680
  H        2.8128660     0.8932150    -1.8063400
  H        3.7971100     2.0487280    -0.8855010
  H        2.0638530     2.3513280    -1.1313670
  H       -2.0994070     2.2298930    -1.2537260
  H       -3.7828960     2.1123340    -0.7007770
  H       -3.0218850     0.7415120    -1.5334270
units angstrom
no_reorient  #important for SAPT in psi4, default
symmetry c1  #important for SAPT in psi4, default
}

set PROPERTIES_ORIGIN ["COM"]
properties('MP2/aug-cc-pvtz', properties = ['dipole'])
--------------------------------------------------------------------------

    Molecular point group: c1
  Charge       = 0
  Multiplicity = 1
  Basis Set: AUG-CC-PVTZ
    Blend: AUG-CC-PVTZ
  Basis Set: (AUG-CC-PVTZ AUX)
    Blend: AUG-CC-PVTZ-JKFIT

    Orbital Energies [Eh]
    ---------------------

    Doubly Occupied:

       1A    -20.609214     2A    -11.272928     3A    -11.265690
       4A    -11.230738     5A    -11.229331     6A    -11.224445
       7A    -11.223145     8A    -11.216421     9A    -11.214696
      10A    -11.214103    11A    -11.210508    12A     -1.460811
      13A     -1.101717    14A     -1.075124    15A     -1.032191
      16A     -0.987896    17A     -0.936949    18A     -0.931071
      19A     -0.865700    20A     -0.814457    21A     -0.761983
      22A     -0.721413    23A     -0.664790    24A     -0.639180
      25A     -0.609859    26A     -0.606198    27A     -0.589862
      28A     -0.584140    29A     -0.577427    30A     -0.561138
      31A     -0.544687    32A     -0.538176    33A     -0.532893
      34A     -0.522022    35A     -0.516961    36A     -0.505384
      37A     -0.493037    38A     -0.486162    39A     -0.484702
      40A     -0.452054    41A     -0.363145    42A     -0.278806

  @DF-RHF Final Energy:  -463.00232800488993

   => Energetics <=

    Nuclear Repulsion Energy =            630.4463873345475804
    One-Electron Energy =               -1878.5951272571351183
    Two-Electron Energy =                 785.1464119176976055
    Total Energy =                       -463.0023280048899323
  Basis Set: (AUG-CC-PVTZ AUX)
    Blend: AUG-CC-PVTZ-RI
    Molecular point group: c1

    Geometry (in Angstrom), charge = 0, multiplicity = 1:

       Center              X                  Y                   Z               Mass
    ------------   -----------------  -----------------  -----------------  -----------------
         O            0.061962378790     1.024718114470     0.508458965897    15.994914619570
         C           -0.752250621210    -1.036314885530     0.127635965897    12.000000000000
         C            0.677949378790    -1.091160885530     0.062976965897    12.000000000000
         C           -1.011896421210     0.281053814470     0.397760265897    12.000000000000
         C            1.129644378790     0.179839114470     0.303967965897    12.000000000000
         C           -2.366702621210     1.004323114470     0.520470965897    12.000000000000
         C            2.474485378790     0.814544114470     0.341586965897    12.000000000000
         C           -1.631272921210    -2.226020285530    -0.098326334103    12.000000000000
         C            1.502083378790    -2.319014885530    -0.175583034103    12.000000000000
         C           -2.859069621210     1.559378114470    -0.824015034103    12.000000000000
         C            2.802665378790     1.576905114470    -0.950362034103    12.000000000000
         H            3.223179378790     0.032793114470     0.520053965897     1.007825032230
         H            2.520157378790     1.498712114470     1.198087965897     1.007825032230
         H           -2.226360621210     1.824952114470     1.235097965897     1.007825032230
         H           -3.123427621210     0.334146114470     0.949768965897     1.007825032230
         H           -1.433401621210    -3.036269885530     0.544768965897     1.007825032230
         H           -2.722425621210    -1.887790885530     0.146373965897     1.007825032230
         H           -1.675442621210    -2.523833885530    -1.130420034103     1.007825032230
         H            2.503569378790    -2.060989885530    -0.538125034103     1.007825032230
         H            1.620286378790    -2.914159885530     0.739197965897     1.007825032230
         H            1.032566378790    -2.961805885530    -0.928003034103     1.007825032230
         H            2.802439378790     0.895675114470    -1.805675034103     1.007825032230
         H            3.786683378790     2.051188114470    -0.884836034103     1.007825032230
         H            2.053426378790     2.353788114470    -1.130702034103     1.007825032230
         H           -2.109833621210     2.232353114470    -1.253061034103     1.007825032230
         H           -3.793322621210     2.114794114470    -0.700112034103     1.007825032230
         H           -3.032311621210     0.743972114470    -1.532762034103     1.007825032230

  Basis Set: AUG-CC-PVTZ
    Blend: AUG-CC-PVTZ
  Basis Set: (AUG-CC-PVTZ AUX)
    Blend: AUG-CC-PVTZ-JKFIT
	 Reference Energy          =    -463.0023280048899323 [Eh]
	 Singles Energy            =      -0.0000000000000000 [Eh]
	 Same-Spin Energy          =      -0.4967232944654218 [Eh]
	 Opposite-Spin Energy      =      -1.6659219202775681 [Eh]
	 Correlation Energy        =      -2.1626452147429900 [Eh]
	 Total Energy              =    -465.1649732196329410 [Eh]

	 ================> DF-SCS-MP2 Energies <==================
	-----------------------------------------------------------
	 SCS Same-Spin Scale       =       0.3333333333333333 [-]
	 SCS Opposite-Spin Scale   =       1.2000000000000000 [-]
	 SCS Same-Spin Energy      =      -0.1655744314884739 [Eh]
	 SCS Opposite-Spin Energy  =      -1.9991063043330817 [Eh]
	 SCS Correlation Energy    =      -2.1646807358215554 [Eh]
	 SCS Total Energy          =    -465.1670087407114806 [Eh]
	-----------------------------------------------------------

  Dipole Moment: [D]
     X:     0.1075      Y:    -0.6462      Z:    -0.2033     Total:     0.6859

*** Psi4 exiting successfully. Buy a developer a beer!
