                               Psi4 1.3.2 release

  ==> Input File <==

--------------------------------------------------------------------------
#psi4
#
memory 32 gb

molecule  {
0 1
  O        0.0723890     1.0222580     0.5077940
  C       -0.7418240    -1.0387750     0.1269710
  C        0.6883760    -1.0936210     0.0623120
  C       -0.9053937     0.3734551     0.4114872
  C        1.1400710     0.1773790     0.3033030
  C       -2.3562760     1.0018630     0.5198060
  C        2.4849120     0.8120840     0.3409220
  C       -1.6830070    -2.1819480    -0.0885940
  C        1.5125100    -2.3214750    -0.1762480
  C       -2.8486430     1.5569180    -0.8246800
  C        2.8130920     1.5744450    -0.9510270
  H        3.2336060     0.0303330     0.5193890
  H        2.5305840     1.4962520     1.1974230
  H       -2.2159340     1.8224920     1.2344330
  H       -3.1130010     0.3316860     0.9491040
  H       -1.4229750    -3.0387300     0.5441040
  H       -2.7119990    -1.8902510     0.1457090
  H       -1.6650160    -2.5262940    -1.1310850
  H        2.5139960    -2.0634500    -0.5387900
  H        1.6307130    -2.9166200     0.7385330
  H        1.0429930    -2.9642660    -0.9286680
  H        2.8128660     0.8932150    -1.8063400
  H        3.7971100     2.0487280    -0.8855010
  H        2.0638530     2.3513280    -1.1313670
  H       -2.0994070     2.2298930    -1.2537260
  H       -3.7828960     2.1123340    -0.7007770
  H       -3.0218850     0.7415120    -1.5334270
units angstrom
no_reorient  #important for SAPT in psi4, default
symmetry c1  #important for SAPT in psi4, default
}

set PROPERTIES_ORIGIN ["COM"]
properties('MP2/aug-cc-pvtz', properties = ['dipole'])
--------------------------------------------------------------------------

    Molecular point group: c1
  Charge       = 0
  Multiplicity = 1
  Basis Set: AUG-CC-PVTZ
    Blend: AUG-CC-PVTZ
  Basis Set: (AUG-CC-PVTZ AUX)
    Blend: AUG-CC-PVTZ-JKFIT

    Orbital Energies [Eh]
    ---------------------

    Doubly Occupied:

       1A    -20.630968     2A    -11.283872     3A    -11.257448
       4A    -11.232891     5A    -11.228531     6A    -11.223567
       7A    -11.221982     8A    -11.220818     9A    -11.216027
      10A    -11.212608    11A    -11.204430    12A     -1.536929
      13A     -1.104219    14A     -1.070336    15A     -1.030256
      16A     -0.983534    17A     -0.948931    18A     -0.929371
      19A     -0.863551    20A     -0.821673    21A     -0.772017
      22A     -0.728397    23A     -0.687871    24A     -0.664259
      25A     -0.610379    26A     -0.605187    27A     -0.597575
      28A     -0.577449    29A     -0.571997    30A     -0.553449
      31A     -0.549034    32A     -0.547723    33A     -0.534755
      34A     -0.528816    35A     -0.516724    36A     -0.506635
      37A     -0.494276    38A     -0.488282    39A     -0.479944
      40A     -0.430467    41A     -0.360340    42A     -0.263438

  @DF-RHF Final Energy:  -462.96411015402992

   => Energetics <=

    Nuclear Repulsion Energy =            631.7271588444241388
    One-Electron Energy =               -1880.8006293926889612
    Two-Electron Energy =                 786.1093603942349546
    Total Energy =                       -462.9641101540298678
  Basis Set: (AUG-CC-PVTZ AUX)
    Blend: AUG-CC-PVTZ-RI
    Molecular point group: c1

    Geometry (in Angstrom), charge = 0, multiplicity = 1:

       Center              X                  Y                   Z               Mass
    ------------   -----------------  -----------------  -----------------  -----------------
         O            0.059286961410     1.013564260172     0.506503469086    15.994914619570
         C           -0.754926038590    -1.047468739828     0.125680469086    12.000000000000
         C            0.675273961410    -1.102314739828     0.061021469086    12.000000000000
         C           -0.918495738590     0.364761360172     0.410196669086    12.000000000000
         C            1.126968961410     0.168685260172     0.302012469086    12.000000000000
         C           -2.369378038590     0.993169260172     0.518515469086    12.000000000000
         C            2.471809961410     0.803390260172     0.339631469086    12.000000000000
         C           -1.696109038590    -2.190641739828    -0.089884530914    12.000000000000
         C            1.499407961410    -2.330168739828    -0.177538530914    12.000000000000
         C           -2.861745038590     1.548224260172    -0.825970530914    12.000000000000
         C            2.799989961410     1.565751260172    -0.952317530914    12.000000000000
         H            3.220503961410     0.021639260172     0.518098469086     1.007825032230
         H            2.517481961410     1.487558260172     1.196132469086     1.007825032230
         H           -2.229036038590     1.813798260172     1.233142469086     1.007825032230
         H           -3.126103038590     0.322992260172     0.947813469086     1.007825032230
         H           -1.436077038590    -3.047423739828     0.542813469086     1.007825032230
         H           -2.725101038590    -1.898944739828     0.144418469086     1.007825032230
         H           -1.678118038590    -2.534987739828    -1.132375530914     1.007825032230
         H            2.500893961410    -2.072143739828    -0.540080530914     1.007825032230
         H            1.617610961410    -2.925313739828     0.737242469086     1.007825032230
         H            1.029890961410    -2.972959739828    -0.929958530914     1.007825032230
         H            2.799763961410     0.884521260172    -1.807630530914     1.007825032230
         H            3.784007961410     2.040034260172    -0.886791530914     1.007825032230
         H            2.050750961410     2.342634260172    -1.132657530914     1.007825032230
         H           -2.112509038590     2.221199260172    -1.255016530914     1.007825032230
         H           -3.795998038590     2.103640260172    -0.702067530914     1.007825032230
         H           -3.034987038590     0.732818260172    -1.534717530914     1.007825032230

  Basis Set: AUG-CC-PVTZ
    Blend: AUG-CC-PVTZ
  Basis Set: (AUG-CC-PVTZ AUX)
    Blend: AUG-CC-PVTZ-JKFIT
	 Reference Energy          =    -462.9641101540299246 [Eh]
	 Singles Energy            =      -0.0000000000000000 [Eh]
	 Same-Spin Energy          =      -0.4973994602924402 [Eh]
	 Opposite-Spin Energy      =      -1.6646191362139926 [Eh]
	 Correlation Energy        =      -2.1620185965064329 [Eh]
	 Total Energy              =    -465.1261287505363384 [Eh]

	 ================> DF-SCS-MP2 Energies <==================
	-----------------------------------------------------------
	 SCS Same-Spin Scale       =       0.3333333333333333 [-]
	 SCS Opposite-Spin Scale   =       1.2000000000000000 [-]
	 SCS Same-Spin Energy      =      -0.1657998200974801 [Eh]
	 SCS Opposite-Spin Energy  =      -1.9975429634567909 [Eh]
	 SCS Correlation Energy    =      -2.1633427835542709 [Eh]
	 SCS Total Energy          =    -465.1274529375842235 [Eh]
	-----------------------------------------------------------

  Dipole Moment: [D]
     X:     0.2389      Y:    -0.4133      Z:    -0.1366     Total:     0.4965

*** Psi4 exiting successfully. Buy a developer a beer!
