                               Psi4 1.3.2 release

  ==> Input File <==

--------------------------------------------------------------------------
#psi4
#
memory 32 gb

molecule  {
0 1
  O        0.0723890     1.0222580     0.5077940
  C       -0.7418240    -1.0387750     0.1269710
  C        0.6883760    -1.0936210     0.0623120
  C       -1.0714850     0.2632460     0.3951280
  C        1.1400710     0.1773790     0.3033030
  C       -2.3562760     1.0018630     0.5198060
  C        2.4849120     0.8120840     0.3409220
  C       -1.6830070    -2.1819480    -0.0885940
  C        1.5125100    -2.3214750    -0.1762480
  C       -2.8490983     1.5319980    -0.8345341
  C        2.8130920     1.5744450    -0.9510270
  H        3.2336060     0.0303330     0.5193890
  H        2.5305840     1.4962520     1.1974230
  H       -2.2103128     1.8098108     1.2476347
  H       -3.1130010     0.3316860     0.9491040
  H       -1.4229750    -3.0387300     0.5441040
  H       -2.7119990    -1.8902510     0.1457090
  H       -1.6650160    -2.5262940    -1.1310850
  H        2.5139960    -2.0634500    -0.5387900
  H        1.6307130    -2.9166200     0.7385330
  H        1.0429930    -2.9642660    -0.9286680
  H        2.8128660     0.8932150    -1.8063400
  H        3.7971100     2.0487280    -0.8855010
  H        2.0638530     2.3513280    -1.1313670
  H       -2.0994070     2.2298930    -1.2537260
  H       -3.7828960     2.1123340    -0.7007770
  H       -3.0218850     0.7415120    -1.5334270
units angstrom
no_reorient  #important for SAPT in psi4, default
symmetry c1  #important for SAPT in psi4, default
}

set PROPERTIES_ORIGIN ["COM"]
properties('MP2/aug-cc-pvtz', properties = ['dipole'])
--------------------------------------------------------------------------

    Molecular point group: c1
  Charge       = 0
  Multiplicity = 1
  Basis Set: AUG-CC-PVTZ
    Blend: AUG-CC-PVTZ
  Basis Set: (AUG-CC-PVTZ AUX)
    Blend: AUG-CC-PVTZ-JKFIT

    Orbital Energies [Eh]
    ---------------------

    Doubly Occupied:

       1A    -20.598573     2A    -11.269391     3A    -11.269275
       4A    -11.230280     5A    -11.229896     6A    -11.223165
       7A    -11.222814     8A    -11.216075     9A    -11.215949
      10A    -11.214898    11A    -11.214573    12A     -1.429644
      13A     -1.098670    14A     -1.078973    15A     -1.036235
      16A     -0.989935    17A     -0.932247    18A     -0.927535
      19A     -0.870394    20A     -0.815870    21A     -0.749314
      22A     -0.721714    23A     -0.657786    24A     -0.627334
      25A     -0.610895    26A     -0.610356    27A     -0.585789
      28A     -0.583924    29A     -0.567758    30A     -0.555687
      31A     -0.549780    32A     -0.531860    33A     -0.527447
      34A     -0.523950    35A     -0.523681    36A     -0.506496
      37A     -0.495772    38A     -0.491579    39A     -0.483089
      40A     -0.466941    41A     -0.360622    42A     -0.278751

  @DF-RHF Final Energy:  -463.01107503701246

   => Energetics <=

    Nuclear Repulsion Energy =            629.6956319044940074
    One-Electron Energy =               -1877.2235781235331160
    Two-Electron Energy =                 784.5168711820267617
    Total Energy =                       -463.0110750370124606
  Basis Set: (AUG-CC-PVTZ AUX)
    Blend: AUG-CC-PVTZ-RI
    Molecular point group: c1

    Geometry (in Angstrom), charge = 0, multiplicity = 1:

       Center              X                  Y                   Z               Mass
    ------------   -----------------  -----------------  -----------------  -----------------
         O            0.072387753584     1.024307938806     0.508483842267    15.994914619570
         C           -0.741825246416    -1.036725061194     0.127660842267    12.000000000000
         C            0.688374753584    -1.091571061194     0.063001842267    12.000000000000
         C           -1.071486246416     0.265295938806     0.395817842267    12.000000000000
         C            1.140069753584     0.179428938806     0.303992842267    12.000000000000
         C           -2.356277246416     1.003912938806     0.520495842267    12.000000000000
         C            2.484910753584     0.814133938806     0.341611842267    12.000000000000
         C           -1.683008246416    -2.179898061194    -0.087904157733    12.000000000000
         C            1.512508753584    -2.319425061194    -0.175558157733    12.000000000000
         C           -2.849099546416     1.534047938806    -0.833844257733    12.000000000000
         C            2.813090753584     1.576494938806    -0.950337157733    12.000000000000
         H            3.233604753584     0.032382938806     0.520078842267     1.007825032230
         H            2.530582753584     1.498301938806     1.198112842267     1.007825032230
         H           -2.210314046416     1.811860738806     1.248324542267     1.007825032230
         H           -3.113002246416     0.333735938806     0.949793842267     1.007825032230
         H           -1.422976246416    -3.036680061194     0.544793842267     1.007825032230
         H           -2.712000246416    -1.888201061194     0.146398842267     1.007825032230
         H           -1.665017246416    -2.524244061194    -1.130395157733     1.007825032230
         H            2.513994753584    -2.061400061194    -0.538100157733     1.007825032230
         H            1.630711753584    -2.914570061194     0.739222842267     1.007825032230
         H            1.042991753584    -2.962216061194    -0.927978157733     1.007825032230
         H            2.812864753584     0.895264938806    -1.805650157733     1.007825032230
         H            3.797108753584     2.050777938806    -0.884811157733     1.007825032230
         H            2.063851753584     2.353377938806    -1.130677157733     1.007825032230
         H           -2.099408246416     2.231942938806    -1.253036157733     1.007825032230
         H           -3.782897246416     2.114383938806    -0.700087157733     1.007825032230
         H           -3.021886246416     0.743561938806    -1.532737157733     1.007825032230

  Basis Set: AUG-CC-PVTZ
    Blend: AUG-CC-PVTZ
  Basis Set: (AUG-CC-PVTZ AUX)
    Blend: AUG-CC-PVTZ-JKFIT
	 Reference Energy          =    -463.0110750370124606 [Eh]
	 Singles Energy            =      -0.0000000000000000 [Eh]
	 Same-Spin Energy          =      -0.4971314098398927 [Eh]
	 Opposite-Spin Energy      =      -1.6671907223292015 [Eh]
	 Correlation Energy        =      -2.1643221321690942 [Eh]
	 Total Energy              =    -465.1753971691815650 [Eh]

	 ================> DF-SCS-MP2 Energies <==================
	-----------------------------------------------------------
	 SCS Same-Spin Scale       =       0.3333333333333333 [-]
	 SCS Opposite-Spin Scale   =       1.2000000000000000 [-]
	 SCS Same-Spin Energy      =      -0.1657104699466309 [Eh]
	 SCS Opposite-Spin Energy  =      -2.0006288667950418 [Eh]
	 SCS Correlation Energy    =      -2.1663393367416726 [Eh]
	 SCS Total Energy          =    -465.1774143737541181 [Eh]
	-----------------------------------------------------------

  Dipole Moment: [D]
     X:    -0.0382      Y:    -0.6602      Z:    -0.2159     Total:     0.6957

*** Psi4 exiting successfully. Buy a developer a beer!
