                               Psi4 1.3.2 release

  ==> Input File <==

--------------------------------------------------------------------------
#psi4
#
memory 32 gb

molecule  {
0 1
  O        0.0574346     1.0036070     0.5053613
  C       -0.7418240    -1.0387750     0.1269710
  C        0.6883760    -1.0936210     0.0623120
  C       -1.0714850     0.2632460     0.3951280
  C        1.1400710     0.1773790     0.3033030
  C       -2.3562760     1.0018630     0.5198060
  C        2.4957176     0.7889307     0.3363151
  C       -1.6830070    -2.1819480    -0.0885940
  C        1.5125100    -2.3214750    -0.1762480
  C       -2.8486430     1.5569180    -0.8246800
  C        2.8130920     1.5744450    -0.9510270
  H        3.2336060     0.0303330     0.5193890
  H        2.5305840     1.4962520     1.1974230
  H       -2.2159340     1.8224920     1.2344330
  H       -3.1130010     0.3316860     0.9491040
  H       -1.4229750    -3.0387300     0.5441040
  H       -2.7119990    -1.8902510     0.1457090
  H       -1.6650160    -2.5262940    -1.1310850
  H        2.5139960    -2.0634500    -0.5387900
  H        1.6307130    -2.9166200     0.7385330
  H        1.0429930    -2.9642660    -0.9286680
  H        2.8128660     0.8932150    -1.8063400
  H        3.7971100     2.0487280    -0.8855010
  H        2.0638530     2.3513280    -1.1313670
  H       -2.0994070     2.2298930    -1.2537260
  H       -3.7828960     2.1123340    -0.7007770
  H       -3.0218850     0.7415120    -1.5334270
units angstrom
no_reorient  #important for SAPT in psi4, default
symmetry c1  #important for SAPT in psi4, default
}

set PROPERTIES_ORIGIN ["COM"]
properties('MP2/aug-cc-pvtz', properties = ['dipole'])
--------------------------------------------------------------------------

    Molecular point group: c1
  Charge       = 0
  Multiplicity = 1
  Basis Set: AUG-CC-PVTZ
    Blend: AUG-CC-PVTZ
  Basis Set: (AUG-CC-PVTZ AUX)
    Blend: AUG-CC-PVTZ-JKFIT

    Orbital Energies [Eh]
    ---------------------

    Doubly Occupied:

       1A    -20.599469     2A    -11.268723     3A    -11.268452
       4A    -11.230848     5A    -11.230107     6A    -11.222608
       7A    -11.221715     8A    -11.215719     9A    -11.215394
      10A    -11.215228    11A    -11.212536    12A     -1.437734
      13A     -1.097487    14A     -1.079791    15A     -1.036298
      16A     -0.989393    17A     -0.931717    18A     -0.928901
      19A     -0.870836    20A     -0.817375    21A     -0.752738
      22A     -0.720645    23A     -0.660404    24A     -0.630114
      25A     -0.612063    26A     -0.608984    27A     -0.589748
      28A     -0.582607    29A     -0.567622    30A     -0.555146
      31A     -0.549174    32A     -0.533609    33A     -0.527898
      34A     -0.523142    35A     -0.520435    36A     -0.506859
      37A     -0.495762    38A     -0.492404    39A     -0.485643
      40A     -0.465149    41A     -0.358869    42A     -0.278574

  @DF-RHF Final Energy:  -463.01218535414080

   => Energetics <=

    Nuclear Repulsion Energy =            630.1094841944861855
    One-Electron Energy =               -1878.0274962449034319
    Two-Electron Energy =                 784.9058266962764492
    Total Energy =                       -463.0121853541407972
  Basis Set: (AUG-CC-PVTZ AUX)
    Blend: AUG-CC-PVTZ-RI
    Molecular point group: c1

    Geometry (in Angstrom), charge = 0, multiplicity = 1:

       Center              X                  Y                   Z               Mass
    ------------   -----------------  -----------------  -----------------  -----------------
         O            0.058154683154     1.007394646680     0.505980470696    15.994914619570
         C           -0.741103916846    -1.034987353320     0.127590170696    12.000000000000
         C            0.689096083154    -1.089833353320     0.062931170696    12.000000000000
         C           -1.070764916846     0.267033646680     0.395747170696    12.000000000000
         C            1.140791083154     0.181166646680     0.303922170696    12.000000000000
         C           -2.355555916846     1.005650646680     0.520425170696    12.000000000000
         C            2.496437683154     0.792718346680     0.336934270696    12.000000000000
         C           -1.682286916846    -2.178160353320    -0.087974829304    12.000000000000
         C            1.513230083154    -2.317687353320    -0.175628829304    12.000000000000
         C           -2.847922916846     1.560705646680    -0.824060829304    12.000000000000
         C            2.813812083154     1.578232646680    -0.950407829304    12.000000000000
         H            3.234326083154     0.034120646680     0.520008170696     1.007825032230
         H            2.531304083154     1.500039646680     1.198042170696     1.007825032230
         H           -2.215213916846     1.826279646680     1.235052170696     1.007825032230
         H           -3.112280916846     0.335473646680     0.949723170696     1.007825032230
         H           -1.422254916846    -3.034942353320     0.544723170696     1.007825032230
         H           -2.711278916846    -1.886463353320     0.146328170696     1.007825032230
         H           -1.664295916846    -2.522506353320    -1.130465829304     1.007825032230
         H            2.514716083154    -2.059662353320    -0.538170829304     1.007825032230
         H            1.631433083154    -2.912832353320     0.739152170696     1.007825032230
         H            1.043713083154    -2.960478353320    -0.928048829304     1.007825032230
         H            2.813586083154     0.897002646680    -1.805720829304     1.007825032230
         H            3.797830083154     2.052515646680    -0.884881829304     1.007825032230
         H            2.064573083154     2.355115646680    -1.130747829304     1.007825032230
         H           -2.098686916846     2.233680646680    -1.253106829304     1.007825032230
         H           -3.782175916846     2.116121646680    -0.700157829304     1.007825032230
         H           -3.021164916846     0.745299646680    -1.532807829304     1.007825032230

  Basis Set: AUG-CC-PVTZ
    Blend: AUG-CC-PVTZ
  Basis Set: (AUG-CC-PVTZ AUX)
    Blend: AUG-CC-PVTZ-JKFIT
	 Reference Energy          =    -463.0121853541407972 [Eh]
	 Singles Energy            =      -0.0000000000000000 [Eh]
	 Same-Spin Energy          =      -0.4969994832574356 [Eh]
	 Opposite-Spin Energy      =      -1.6663419486751010 [Eh]
	 Correlation Energy        =      -2.1633414319325368 [Eh]
	 Total Energy              =    -465.1755267860733056 [Eh]

	 ================> DF-SCS-MP2 Energies <==================
	-----------------------------------------------------------
	 SCS Same-Spin Scale       =       0.3333333333333333 [-]
	 SCS Opposite-Spin Scale   =       1.2000000000000000 [-]
	 SCS Same-Spin Energy      =      -0.1656664944191452 [Eh]
	 SCS Opposite-Spin Energy  =      -1.9996103384101211 [Eh]
	 SCS Correlation Energy    =      -2.1652768328292664 [Eh]
	 SCS Total Energy          =    -465.1774621869700468 [Eh]
	-----------------------------------------------------------

  Dipole Moment: [D]
     X:     0.0261      Y:    -0.5835      Z:    -0.2062     Total:     0.6194

*** Psi4 exiting successfully. Buy a developer a beer!
