                               Psi4 1.3.2 release

  ==> Input File <==

--------------------------------------------------------------------------
#psi4
#
memory 32 gb

molecule  {
0 1
  O        0.0723890     1.0222580     0.5077940
  C       -0.7418240    -1.0387750     0.1269710
  C        0.6883760    -1.0936210     0.0623120
  C       -1.0714850     0.2632460     0.3951280
  C        1.1400710     0.1773790     0.3033030
  C       -2.2698865     0.9521983     0.5114226
  C        2.4849120     0.8120840     0.3409220
  C       -1.6830070    -2.1819480    -0.0885940
  C        1.5125100    -2.3214750    -0.1762480
  C       -2.8486430     1.5569180    -0.8246800
  C        2.8130920     1.5744450    -0.9510270
  H        3.2336060     0.0303330     0.5193890
  H        2.5305840     1.4962520     1.1974230
  H       -2.2159340     1.8224920     1.2344330
  H       -3.1130010     0.3316860     0.9491040
  H       -1.4229750    -3.0387300     0.5441040
  H       -2.7119990    -1.8902510     0.1457090
  H       -1.6650160    -2.5262940    -1.1310850
  H        2.5139960    -2.0634500    -0.5387900
  H        1.6307130    -2.9166200     0.7385330
  H        1.0429930    -2.9642660    -0.9286680
  H        2.8128660     0.8932150    -1.8063400
  H        3.7971100     2.0487280    -0.8855010
  H        2.0638530     2.3513280    -1.1313670
  H       -2.0994070     2.2298930    -1.2537260
  H       -3.7828960     2.1123340    -0.7007770
  H       -3.0218850     0.7415120    -1.5334270
units angstrom
no_reorient  #important for SAPT in psi4, default
symmetry c1  #important for SAPT in psi4, default
}

set PROPERTIES_ORIGIN ["COM"]
properties('MP2/aug-cc-pvtz', properties = ['dipole'])
--------------------------------------------------------------------------

    Molecular point group: c1
  Charge       = 0
  Multiplicity = 1
  Basis Set: AUG-CC-PVTZ
    Blend: AUG-CC-PVTZ
  Basis Set: (AUG-CC-PVTZ AUX)
    Blend: AUG-CC-PVTZ-JKFIT

    Orbital Energies [Eh]
    ---------------------

    Doubly Occupied:

       1A    -20.598709     2A    -11.270873     3A    -11.264600
       4A    -11.230636     5A    -11.230355     6A    -11.223707
       7A    -11.223442     8A    -11.217497     9A    -11.217347
      10A    -11.216406    11A    -11.215186    12A     -1.431345
      13A     -1.101011    14A     -1.086342    15A     -1.036494
      16A     -0.989018    17A     -0.933299    18A     -0.930052
      19A     -0.875571    20A     -0.812979    21A     -0.751960
      22A     -0.722523    23A     -0.663165    24A     -0.629391
      25A     -0.615309    26A     -0.605167    27A     -0.588070
      28A     -0.580715    29A     -0.568670    30A     -0.556673
      31A     -0.549622    32A     -0.537809    33A     -0.530337
      34A     -0.524571    35A     -0.520199    36A     -0.503049
      37A     -0.494956    38A     -0.490273    39A     -0.478627
      40A     -0.465928    41A     -0.361187    42A     -0.277457

  @DF-RHF Final Energy:  -462.99901808948539

   => Energetics <=

    Nuclear Repulsion Energy =            631.2831605077437871
    One-Electron Energy =               -1880.3232952213459157
    Two-Electron Energy =                 786.0411166241167393
    Total Energy =                       -462.9990180894853893
  Basis Set: (AUG-CC-PVTZ AUX)
    Blend: AUG-CC-PVTZ-RI
    Molecular point group: c1

    Geometry (in Angstrom), charge = 0, multiplicity = 1:

       Center              X                  Y                   Z               Mass
    ------------   -----------------  -----------------  -----------------  -----------------
         O            0.065574240374     1.026175909843     0.508455289854    15.994914619570
         C           -0.748638759626    -1.034857090157     0.127632289854    12.000000000000
         C            0.681561240374    -1.089703090157     0.062973289854    12.000000000000
         C           -1.078299759626     0.267163909843     0.395789289854    12.000000000000
         C            1.133256240374     0.181296909843     0.303964289854    12.000000000000
         C           -2.276701259626     0.956116209843     0.512083889854    12.000000000000
         C            2.478097240374     0.816001909843     0.341583289854    12.000000000000
         C           -1.689821759626    -2.178030090157    -0.087932710146    12.000000000000
         C            1.505695240374    -2.317557090157    -0.175586710146    12.000000000000
         C           -2.855457759626     1.560835909843    -0.824018710146    12.000000000000
         C            2.806277240374     1.578362909843    -0.950365710146    12.000000000000
         H            3.226791240374     0.034250909843     0.520050289854     1.007825032230
         H            2.523769240374     1.500169909843     1.198084289854     1.007825032230
         H           -2.222748759626     1.826409909843     1.235094289854     1.007825032230
         H           -3.119815759626     0.335603909843     0.949765289854     1.007825032230
         H           -1.429789759626    -3.034812090157     0.544765289854     1.007825032230
         H           -2.718813759626    -1.886333090157     0.146370289854     1.007825032230
         H           -1.671830759626    -2.522376090157    -1.130423710146     1.007825032230
         H            2.507181240374    -2.059532090157    -0.538128710146     1.007825032230
         H            1.623898240374    -2.912702090157     0.739194289854     1.007825032230
         H            1.036178240374    -2.960348090157    -0.928006710146     1.007825032230
         H            2.806051240374     0.897132909843    -1.805678710146     1.007825032230
         H            3.790295240374     2.052645909843    -0.884839710146     1.007825032230
         H            2.057038240374     2.355245909843    -1.130705710146     1.007825032230
         H           -2.106221759626     2.233810909843    -1.253064710146     1.007825032230
         H           -3.789710759626     2.116251909843    -0.700115710146     1.007825032230
         H           -3.028699759626     0.745429909843    -1.532765710146     1.007825032230

  Basis Set: AUG-CC-PVTZ
    Blend: AUG-CC-PVTZ
  Basis Set: (AUG-CC-PVTZ AUX)
    Blend: AUG-CC-PVTZ-JKFIT
	 Reference Energy          =    -462.9990180894853893 [Eh]
	 Singles Energy            =      -0.0000000000000000 [Eh]
	 Same-Spin Energy          =      -0.4984949127873897 [Eh]
	 Opposite-Spin Energy      =      -1.6686861223267782 [Eh]
	 Correlation Energy        =      -2.1671810351141678 [Eh]
	 Total Energy              =    -465.1661991245995296 [Eh]

	 ================> DF-SCS-MP2 Energies <==================
	-----------------------------------------------------------
	 SCS Same-Spin Scale       =       0.3333333333333333 [-]
	 SCS Opposite-Spin Scale   =       1.2000000000000000 [-]
	 SCS Same-Spin Energy      =      -0.1661649709291299 [Eh]
	 SCS Opposite-Spin Energy  =      -2.0024233467921335 [Eh]
	 SCS Correlation Energy    =      -2.1685883177212633 [Eh]
	 SCS Total Energy          =    -465.1676064072066765 [Eh]
	-----------------------------------------------------------

  Dipole Moment: [D]
     X:     0.0287      Y:    -0.6964      Z:    -0.2129     Total:     0.7288

*** Psi4 exiting successfully. Buy a developer a beer!
