                               Psi4 1.4a3.dev225

  ==> Input File <==

--------------------------------------------------------------------------
#psi4
#
memory 32 gb

molecule  {
0 1
  O        0.0000040    -0.9323440    -0.5200900
  C       -0.7186120     1.1388030    -0.0293360
  C        0.7186000     1.1388090    -0.0293300
  C       -1.1092540    -0.1401520    -0.3350070
  C        1.1092550    -0.1401430    -0.3349960
  C       -2.4197690    -0.8327410    -0.4659430
  C        2.4021620    -0.8234095    -0.4641820
  C       -1.5881550     2.3237520     0.2504950
  C        1.5881310     2.3237650     0.2505070
  C       -2.6404590    -1.8837440     0.6266770
  C        2.6404800    -1.8837320     0.6266650
  H        3.2127060    -0.0780420    -0.4310990
  H        2.4812700    -1.3082390    -1.4528680
  H       -2.4812630    -1.3082740    -1.4528630
  H       -3.2127060    -0.0780720    -0.4311050
  H       -1.4004860     3.1330380    -0.4637010
  H       -2.6480190     2.0627510     0.1871390
  H       -1.4034730     2.7248980     1.2531230
  H        2.6479980     2.0627640     0.1871950
  H        1.4004870     3.1330370    -0.4637120
  H        1.4034130     2.7249310     1.2531200
  H        2.6185650    -1.4170920     1.6153140
  H        3.6057420    -2.3837880     0.5012060
  H        1.8526560    -2.6398250     0.5898280
  H       -1.8526300    -2.6398320     0.5898440
  H       -3.6057190    -2.3838080     0.5012310
  H       -2.6185400    -1.4170920     1.6153210
units angstrom
no_reorient  #important for SAPT in psi4, default
symmetry c1  #important for SAPT in psi4, default
}

set PROPERTIES_ORIGIN ["COM"]
properties('MP2/aug-cc-pvtz', properties = ['dipole'])
--------------------------------------------------------------------------

    Molecular point group: c1
  Charge       = 0
  Multiplicity = 1
  Basis Set: AUG-CC-PVTZ
    Blend: AUG-CC-PVTZ
  Basis Set: (AUG-CC-PVTZ AUX)
    Blend: AUG-CC-PVTZ-JKFIT

    Orbital Energies [Eh]
    ---------------------

    Doubly Occupied:

       1A    -20.597440     2A    -11.271286     3A    -11.270217
       4A    -11.230138     5A    -11.229921     6A    -11.222613
       7A    -11.222590     8A    -11.217759     9A    -11.216779
      10A    -11.213800    11A    -11.213586    12A     -1.431025
      13A     -1.098173    14A     -1.080673    15A     -1.036702
      16A     -0.990778    17A     -0.933094    18A     -0.927082
      19A     -0.871122    20A     -0.815711    21A     -0.752065
      22A     -0.719404    23A     -0.660735    24A     -0.628818
      25A     -0.612077    26A     -0.609555    27A     -0.585588
      28A     -0.581967    29A     -0.569021    30A     -0.556035
      31A     -0.552082    32A     -0.533311    33A     -0.531587
      34A     -0.524838    35A     -0.517054    36A     -0.503964
      37A     -0.494819    38A     -0.490591    39A     -0.483891
      40A     -0.467786    41A     -0.360590    42A     -0.279985

  @DF-RHF Final Energy:  -463.01334634716449

   => Energetics <=

    Nuclear Repulsion Energy =            630.3065938920824465
    One-Electron Energy =               -1878.4273768698099047
    Two-Electron Energy =                 785.1074366305629155
    Total Energy =                       -463.0133463471645427
  Basis Set: (AUG-CC-PVTZ AUX)
    Blend: AUG-CC-PVTZ-RI
    Molecular point group: c1

    Geometry (in Angstrom), charge = 0, multiplicity = 1:

       Center              X                  Y                   Z               Mass
    ------------   -----------------  -----------------  -----------------  -----------------
         O            0.001393605920    -0.931887442252    -0.496779027045    15.994914619570
         C           -0.717222394080     1.139259557748    -0.006025027045    12.000000000000
         C            0.719989605920     1.139265557748    -0.006019027045    12.000000000000
         C           -1.107864394080    -0.139695442252    -0.311696027045    12.000000000000
         C            1.110644605920    -0.139686442252    -0.311685027045    12.000000000000
         C           -2.418379394080    -0.832284442252    -0.442632027045    12.000000000000
         C            2.403551605920    -0.822952942252    -0.440871027045    12.000000000000
         C           -1.586765394080     2.324208557748     0.273805972955    12.000000000000
         C            1.589520605920     2.324221557748     0.273817972955    12.000000000000
         C           -2.639069394080    -1.883287442252     0.649987972955    12.000000000000
         C            2.641869605920    -1.883275442252     0.649975972955    12.000000000000
         H            3.214095605920    -0.077585442252    -0.407788027045     1.007825032230
         H            2.482659605920    -1.307782442252    -1.429557027045     1.007825032230
         H           -2.479873394080    -1.307817442252    -1.429552027045     1.007825032230
         H           -3.211316394080    -0.077615442252    -0.407794027045     1.007825032230
         H           -1.399096394080     3.133494557748    -0.440390027045     1.007825032230
         H           -2.646629394080     2.063207557748     0.210449972955     1.007825032230
         H           -1.402083394080     2.725354557748     1.276433972955     1.007825032230
         H            2.649387605920     2.063220557748     0.210505972955     1.007825032230
         H            1.401876605920     3.133493557748    -0.440401027045     1.007825032230
         H            1.404802605920     2.725387557748     1.276430972955     1.007825032230
         H            2.619954605920    -1.416635442252     1.638624972955     1.007825032230
         H            3.607131605920    -2.383331442252     0.524516972955     1.007825032230
         H            1.854045605920    -2.639368442252     0.613138972955     1.007825032230
         H           -1.851240394080    -2.639375442252     0.613154972955     1.007825032230
         H           -3.604329394080    -2.383351442252     0.524541972955     1.007825032230
         H           -2.617150394080    -1.416635442252     1.638631972955     1.007825032230

  Basis Set: AUG-CC-PVTZ
    Blend: AUG-CC-PVTZ
  Basis Set: (AUG-CC-PVTZ AUX)
    Blend: AUG-CC-PVTZ-JKFIT
	 Reference Energy          =    -463.0133463471644859 [Eh]
	 Singles Energy            =      -0.0000000000000000 [Eh]
	 Same-Spin Energy          =      -0.4970654878940882 [Eh]
	 Opposite-Spin Energy      =      -1.6668790558313709 [Eh]
	 Correlation Energy        =      -2.1639445437254592 [Eh]
	 Total Energy              =    -465.1772908908899353 [Eh]

	 ================> DF-SCS-MP2 Energies <==================
	-----------------------------------------------------------
	 SCS Same-Spin Scale       =       0.3333333333333333 [-]
	 SCS Opposite-Spin Scale   =       1.2000000000000000 [-]
	 SCS Same-Spin Energy      =      -0.1656884959646961 [Eh]
	 SCS Opposite-Spin Energy  =      -2.0002548669976448 [Eh]
	 SCS Correlation Energy    =      -2.1659433629623410 [Eh]
	 SCS Total Energy          =    -465.1792897101268522 [Eh]
	-----------------------------------------------------------

  Dipole Moment: [D]
     X:    -0.0102      Y:     0.6508      Z:     0.2268     Total:     0.6893

*** Psi4 exiting successfully. Buy a developer a beer!
