                               Psi4 1.3.2 release

  ==> Input File <==

--------------------------------------------------------------------------
#psi4
#
memory 32 gb

molecule  {
0 1
  O        0.0723890     1.0222580     0.5077940
  C       -0.7685653    -1.0112682     0.0915264
  C        0.6883760    -1.0936210     0.0623120
  C       -1.0714850     0.2632460     0.3951280
  C        1.1400710     0.1773790     0.3033030
  C       -2.3562760     1.0018630     0.5198060
  C        2.4849120     0.8120840     0.3409220
  C       -1.6830070    -2.1819480    -0.0885940
  C        1.5125100    -2.3214750    -0.1762480
  C       -2.8486430     1.5569180    -0.8246800
  C        2.8130920     1.5744450    -0.9510270
  H        3.2336060     0.0303330     0.5193890
  H        2.5305840     1.4962520     1.1974230
  H       -2.2159340     1.8224920     1.2344330
  H       -3.1130010     0.3316860     0.9491040
  H       -1.4525342    -3.0578894     0.5291501
  H       -2.7119990    -1.8902510     0.1457090
  H       -1.6650160    -2.5262940    -1.1310850
  H        2.5139960    -2.0634500    -0.5387900
  H        1.6307130    -2.9166200     0.7385330
  H        1.0429930    -2.9642660    -0.9286680
  H        2.8128660     0.8932150    -1.8063400
  H        3.7971100     2.0487280    -0.8855010
  H        2.0638530     2.3513280    -1.1313670
  H       -2.0994070     2.2298930    -1.2537260
  H       -3.7828960     2.1123340    -0.7007770
  H       -3.0218850     0.7415120    -1.5334270
units angstrom
no_reorient  #important for SAPT in psi4, default
symmetry c1  #important for SAPT in psi4, default
}

set PROPERTIES_ORIGIN ["COM"]
properties('MP2/aug-cc-pvtz', properties = ['dipole'])
--------------------------------------------------------------------------

    Molecular point group: c1
  Charge       = 0
  Multiplicity = 1
  Basis Set: AUG-CC-PVTZ
    Blend: AUG-CC-PVTZ
  Basis Set: (AUG-CC-PVTZ AUX)
    Blend: AUG-CC-PVTZ-JKFIT

    Orbital Energies [Eh]
    ---------------------

    Doubly Occupied:

       1A    -20.596930     2A    -11.269814     3A    -11.267474
       4A    -11.230025     5A    -11.229406     6A    -11.223407
       7A    -11.223061     8A    -11.217293     9A    -11.215303
      10A    -11.214888    11A    -11.214850    12A     -1.429358
      13A     -1.096964    14A     -1.079707    15A     -1.035688
      16A     -0.990756    17A     -0.933032    18A     -0.928076
      19A     -0.869639    20A     -0.817179    21A     -0.751723
      22A     -0.717120    23A     -0.658419    24A     -0.627541
      25A     -0.611180    26A     -0.609134    27A     -0.587086
      28A     -0.583239    29A     -0.567059    30A     -0.556492
      31A     -0.547380    32A     -0.532894    33A     -0.530887
      34A     -0.523725    35A     -0.521299    36A     -0.505310
      37A     -0.494861    38A     -0.493524    39A     -0.483914
      40A     -0.462773    41A     -0.359356    42A     -0.283758

  @DF-RHF Final Energy:  -463.01192972087580

   => Energetics <=

    Nuclear Repulsion Energy =            629.6035671154048714
    One-Electron Energy =               -1877.0479457121891755
    Two-Electron Energy =                 784.4324488759083351
    Total Energy =                       -463.0119297208758553
  Basis Set: (AUG-CC-PVTZ AUX)
    Blend: AUG-CC-PVTZ-RI
    Molecular point group: c1

    Geometry (in Angstrom), charge = 0, multiplicity = 1:

       Center              X                  Y                   Z               Mass
    ------------   -----------------  -----------------  -----------------  -----------------
         O            0.074694402428     1.020215168384     0.510689085920    15.994914619570
         C           -0.766259897572    -1.013311031616     0.094421485920    12.000000000000
         C            0.690681402428    -1.095663831616     0.065207085920    12.000000000000
         C           -1.069179597572     0.261203168384     0.398023085920    12.000000000000
         C            1.142376402428     0.175336168384     0.306198085920    12.000000000000
         C           -2.353970597572     0.999820168384     0.522701085920    12.000000000000
         C            2.487217402428     0.810041168384     0.343817085920    12.000000000000
         C           -1.680701597572    -2.183990831616    -0.085698914080    12.000000000000
         C            1.514815402428    -2.323517831616    -0.173352914080    12.000000000000
         C           -2.846337597572     1.554875168384    -0.821784914080    12.000000000000
         C            2.815397402428     1.572402168384    -0.948131914080    12.000000000000
         H            3.235911402428     0.028290168384     0.522284085920     1.007825032230
         H            2.532889402428     1.494209168384     1.200318085920     1.007825032230
         H           -2.213628597572     1.820449168384     1.237328085920     1.007825032230
         H           -3.110695597572     0.329643168384     0.951999085920     1.007825032230
         H           -1.450228797572    -3.059932231616     0.532045185920     1.007825032230
         H           -2.709693597572    -1.892293831616     0.148604085920     1.007825032230
         H           -1.662710597572    -2.528336831616    -1.128189914080     1.007825032230
         H            2.516301402428    -2.065492831616    -0.535894914080     1.007825032230
         H            1.633018402428    -2.918662831616     0.741428085920     1.007825032230
         H            1.045298402428    -2.966308831616    -0.925772914080     1.007825032230
         H            2.815171402428     0.891172168384    -1.803444914080     1.007825032230
         H            3.799415402428     2.046685168384    -0.882605914080     1.007825032230
         H            2.066158402428     2.349285168384    -1.128471914080     1.007825032230
         H           -2.097101597572     2.227850168384    -1.250830914080     1.007825032230
         H           -3.780590597572     2.110291168384    -0.697881914080     1.007825032230
         H           -3.019579597572     0.739469168384    -1.530531914080     1.007825032230

  Basis Set: AUG-CC-PVTZ
    Blend: AUG-CC-PVTZ
  Basis Set: (AUG-CC-PVTZ AUX)
    Blend: AUG-CC-PVTZ-JKFIT
	 Reference Energy          =    -463.0119297208757985 [Eh]
	 Singles Energy            =      -0.0000000000000000 [Eh]
	 Same-Spin Energy          =      -0.4962728369402733 [Eh]
	 Opposite-Spin Energy      =      -1.6661559129159493 [Eh]
	 Correlation Energy        =      -2.1624287498562227 [Eh]
	 Total Energy              =    -465.1743584707320451 [Eh]

	 ================> DF-SCS-MP2 Energies <==================
	-----------------------------------------------------------
	 SCS Same-Spin Scale       =       0.3333333333333333 [-]
	 SCS Opposite-Spin Scale   =       1.2000000000000000 [-]
	 SCS Same-Spin Energy      =      -0.1654242789800911 [Eh]
	 SCS Opposite-Spin Energy  =      -1.9993870954991391 [Eh]
	 SCS Correlation Energy    =      -2.1648113744792301 [Eh]
	 SCS Total Energy          =    -465.1767410953550552 [Eh]
	-----------------------------------------------------------

  Dipole Moment: [D]
     X:    -0.0249      Y:    -0.6780      Z:    -0.1966     Total:     0.7064

*** Psi4 exiting successfully. Buy a developer a beer!
