                               Psi4 1.3.2 release

  ==> Input File <==

--------------------------------------------------------------------------
#psi4
#
memory 32 gb

molecule  {
0 1
  O        0.0723890     1.0222580     0.5077940
  C       -0.7418240    -1.0387750     0.1269710
  C        0.6870022    -1.1181301     0.0575498
  C       -1.0946183     0.2572331     0.3948186
  C        1.1400710     0.1773790     0.3033030
  C       -2.3562760     1.0018630     0.5198060
  C        2.4849120     0.8120840     0.3409220
  C       -1.6830070    -2.1819480    -0.0885940
  C        1.5125100    -2.3214750    -0.1762480
  C       -2.8486430     1.5569180    -0.8246800
  C        2.8130920     1.5744450    -0.9510270
  H        3.2336060     0.0303330     0.5193890
  H        2.5305840     1.4962520     1.1974230
  H       -2.2159340     1.8224920     1.2344330
  H       -3.1130010     0.3316860     0.9491040
  H       -1.4229750    -3.0387300     0.5441040
  H       -2.7119990    -1.8902510     0.1457090
  H       -1.6650160    -2.5262940    -1.1310850
  H        2.5139960    -2.0634500    -0.5387900
  H        1.6307130    -2.9166200     0.7385330
  H        1.0429930    -2.9642660    -0.9286680
  H        2.8128660     0.8932150    -1.8063400
  H        3.7971100     2.0487280    -0.8855010
  H        2.0638530     2.3513280    -1.1313670
  H       -2.0994070     2.2298930    -1.2537260
  H       -3.7828960     2.1123340    -0.7007770
  H       -3.0218850     0.7415120    -1.5334270
units angstrom
no_reorient  #important for SAPT in psi4, default
symmetry c1  #important for SAPT in psi4, default
}

set PROPERTIES_ORIGIN ["COM"]
properties('MP2/aug-cc-pvtz', properties = ['dipole'])
--------------------------------------------------------------------------

    Molecular point group: c1
  Charge       = 0
  Multiplicity = 1
  Basis Set: AUG-CC-PVTZ
    Blend: AUG-CC-PVTZ
  Basis Set: (AUG-CC-PVTZ AUX)
    Blend: AUG-CC-PVTZ-JKFIT

    Orbital Energies [Eh]
    ---------------------

    Doubly Occupied:

       1A    -20.596999     2A    -11.273951     3A    -11.269101
       4A    -11.230241     5A    -11.229860     6A    -11.222606
       7A    -11.222105     8A    -11.218178     9A    -11.217039
      10A    -11.215566    11A    -11.214891    12A     -1.420620
      13A     -1.098667    14A     -1.079597    15A     -1.037542
      16A     -0.992051    17A     -0.930618    18A     -0.926469
      19A     -0.871467    20A     -0.814650    21A     -0.745046
      22A     -0.722114    23A     -0.656404    24A     -0.624241
      25A     -0.612388    26A     -0.610479    27A     -0.586687
      28A     -0.584484    29A     -0.567809    30A     -0.556595
      31A     -0.551523    32A     -0.533388    33A     -0.528450
      34A     -0.523101    35A     -0.520520    36A     -0.505028
      37A     -0.495883    38A     -0.493877    39A     -0.483336
      40A     -0.467541    41A     -0.358970    42A     -0.276046

  @DF-RHF Final Energy:  -463.00775058210610

   => Energetics <=

    Nuclear Repulsion Energy =            629.0122534150644924
    One-Electron Energy =               -1875.8677502457765058
    Two-Electron Energy =                 783.8477462486059721
    Total Energy =                       -463.0077505821061550
  Basis Set: (AUG-CC-PVTZ AUX)
    Blend: AUG-CC-PVTZ-RI
    Molecular point group: c1

    Geometry (in Angstrom), charge = 0, multiplicity = 1:

       Center              X                  Y                   Z               Mass
    ------------   -----------------  -----------------  -----------------  -----------------
         O            0.074322322105     1.024665837360     0.508194038409    15.994914619570
         C           -0.739890677895    -1.036367162640     0.127371038409    12.000000000000
         C            0.688935522105    -1.115722262640     0.057949838409    12.000000000000
         C           -1.092684977895     0.259640937360     0.395218638409    12.000000000000
         C            1.142004322105     0.179786837360     0.303703038409    12.000000000000
         C           -2.354342677895     1.004270837360     0.520206038409    12.000000000000
         C            2.486845322105     0.814491837360     0.341322038409    12.000000000000
         C           -1.681073677895    -2.179540162640    -0.088193961591    12.000000000000
         C            1.514443322105    -2.319067162640    -0.175847961591    12.000000000000
         C           -2.846709677895     1.559325837360    -0.824279961591    12.000000000000
         C            2.815025322105     1.576852837360    -0.950626961591    12.000000000000
         H            3.235539322105     0.032740837360     0.519789038409     1.007825032230
         H            2.532517322105     1.498659837360     1.197823038409     1.007825032230
         H           -2.214000677895     1.824899837360     1.234833038409     1.007825032230
         H           -3.111067677895     0.334093837360     0.949504038409     1.007825032230
         H           -1.421041677895    -3.036322162640     0.544504038409     1.007825032230
         H           -2.710065677895    -1.887843162640     0.146109038409     1.007825032230
         H           -1.663082677895    -2.523886162640    -1.130684961591     1.007825032230
         H            2.515929322105    -2.061042162640    -0.538389961591     1.007825032230
         H            1.632646322105    -2.914212162640     0.738933038409     1.007825032230
         H            1.044926322105    -2.961858162640    -0.928267961591     1.007825032230
         H            2.814799322105     0.895622837360    -1.805939961591     1.007825032230
         H            3.799043322105     2.051135837360    -0.885100961591     1.007825032230
         H            2.065786322105     2.353735837360    -1.130966961591     1.007825032230
         H           -2.097473677895     2.232300837360    -1.253325961591     1.007825032230
         H           -3.780962677895     2.114741837360    -0.700376961591     1.007825032230
         H           -3.019951677895     0.743919837360    -1.533026961591     1.007825032230

  Basis Set: AUG-CC-PVTZ
    Blend: AUG-CC-PVTZ
  Basis Set: (AUG-CC-PVTZ AUX)
    Blend: AUG-CC-PVTZ-JKFIT
	 Reference Energy          =    -463.0077505821060981 [Eh]
	 Singles Energy            =      -0.0000000000000000 [Eh]
	 Same-Spin Energy          =      -0.4980329675724356 [Eh]
	 Opposite-Spin Energy      =      -1.6687581430357630 [Eh]
	 Correlation Energy        =      -2.1667911106081985 [Eh]
	 Total Energy              =    -465.1745416927142855 [Eh]

	 ================> DF-SCS-MP2 Energies <==================
	-----------------------------------------------------------
	 SCS Same-Spin Scale       =       0.3333333333333333 [-]
	 SCS Opposite-Spin Scale   =       1.2000000000000000 [-]
	 SCS Same-Spin Energy      =      -0.1660109891908119 [Eh]
	 SCS Opposite-Spin Energy  =      -2.0025097716429157 [Eh]
	 SCS Correlation Energy    =      -2.1685207608337276 [Eh]
	 SCS Total Energy          =    -465.1762713429397991 [Eh]
	-----------------------------------------------------------

  Dipole Moment: [D]
     X:    -0.0584      Y:    -0.6615      Z:    -0.2193     Total:     0.6993

*** Psi4 exiting successfully. Buy a developer a beer!
