                               Psi4 1.3.2 release

  ==> Input File <==

--------------------------------------------------------------------------
#psi4
#
memory 32 gb

molecule  {
0 1
  O        0.0723890     1.0222580     0.5077940
  C       -0.7823558    -0.9980476     0.0737190
  C        0.6883760    -1.0936210     0.0623120
  C       -1.0714850     0.2632460     0.3951280
  C        1.1400710     0.1773790     0.3033030
  C       -2.3562760     1.0018630     0.5198060
  C        2.4849120     0.8120840     0.3409220
  C       -1.6830070    -2.1819480    -0.0885940
  C        1.5125100    -2.3214750    -0.1762480
  C       -2.8486430     1.5569180    -0.8246800
  C        2.8130920     1.5744450    -0.9510270
  H        3.2336060     0.0303330     0.5193890
  H        2.5305840     1.4962520     1.1974230
  H       -2.2159340     1.8224920     1.2344330
  H       -3.1130010     0.3316860     0.9491040
  H       -1.4674214    -3.0670703     0.5213897
  H       -2.7119990    -1.8902510     0.1457090
  H       -1.6650160    -2.5262940    -1.1310850
  H        2.5139960    -2.0634500    -0.5387900
  H        1.6307130    -2.9166200     0.7385330
  H        1.0429930    -2.9642660    -0.9286680
  H        2.8128660     0.8932150    -1.8063400
  H        3.7971100     2.0487280    -0.8855010
  H        2.0638530     2.3513280    -1.1313670
  H       -2.0994070     2.2298930    -1.2537260
  H       -3.7828960     2.1123340    -0.7007770
  H       -3.0218850     0.7415120    -1.5334270
units angstrom
no_reorient  #important for SAPT in psi4, default
symmetry c1  #important for SAPT in psi4, default
}

set PROPERTIES_ORIGIN ["COM"]
properties('MP2/aug-cc-pvtz', properties = ['dipole'])
--------------------------------------------------------------------------

    Molecular point group: c1
  Charge       = 0
  Multiplicity = 1
  Basis Set: AUG-CC-PVTZ
    Blend: AUG-CC-PVTZ
  Basis Set: (AUG-CC-PVTZ AUX)
    Blend: AUG-CC-PVTZ-JKFIT

    Orbital Energies [Eh]
    ---------------------

    Doubly Occupied:

       1A    -20.596204     2A    -11.269953     3A    -11.266634
       4A    -11.230045     5A    -11.229076     6A    -11.223554
       7A    -11.223119     8A    -11.217948     9A    -11.215249
      10A    -11.214934    11A    -11.214834    12A     -1.429224
      13A     -1.096326    14A     -1.079983    15A     -1.035420
      16A     -0.991105    17A     -0.933611    18A     -0.928095
      19A     -0.869388    20A     -0.817954    21A     -0.752827
      22A     -0.714744    23A     -0.658627    24A     -0.627673
      25A     -0.611290    26A     -0.608877    27A     -0.587280
      28A     -0.582955    29A     -0.566943    30A     -0.557110
      31A     -0.546149    32A     -0.534459    33A     -0.531103
      34A     -0.523858    35A     -0.520211    36A     -0.505308
      37A     -0.494660    38A     -0.493841    39A     -0.483942
      40A     -0.459951    41A     -0.358749    42A     -0.286020

  @DF-RHF Final Energy:  -463.01020193436960

   => Energetics <=

    Nuclear Repulsion Energy =            629.5946652620012856
    One-Electron Energy =               -1877.0312625582469082
    Two-Electron Energy =                 784.4263953618759615
    Total Energy =                       -463.0102019343695474
  Basis Set: (AUG-CC-PVTZ AUX)
    Blend: AUG-CC-PVTZ-RI
    Molecular point group: c1

    Geometry (in Angstrom), charge = 0, multiplicity = 1:

       Center              X                  Y                   Z               Mass
    ------------   -----------------  -----------------  -----------------  -----------------
         O            0.075880897013     1.019233086172     0.512145237365    15.994914619570
         C           -0.778863902987    -1.001072513828     0.078070237365    12.000000000000
         C            0.691867897013    -1.096645913828     0.066663237365    12.000000000000
         C           -1.067993102987     0.260221086172     0.399479237365    12.000000000000
         C            1.143562897013     0.174354086172     0.307654237365    12.000000000000
         C           -2.352784102987     0.998838086172     0.524157237365    12.000000000000
         C            2.488403897013     0.809059086172     0.345273237365    12.000000000000
         C           -1.679515102987    -2.184972913828    -0.084242762635    12.000000000000
         C            1.516001897013    -2.324499913828    -0.171896762635    12.000000000000
         C           -2.845151102987     1.553893086172    -0.820328762635    12.000000000000
         C            2.816583897013     1.571420086172    -0.946675762635    12.000000000000
         H            3.237097897013     0.027308086172     0.523740237365     1.007825032230
         H            2.534075897013     1.493227086172     1.201774237365     1.007825032230
         H           -2.212442102987     1.819467086172     1.238784237365     1.007825032230
         H           -3.109509102987     0.328661086172     0.953455237365     1.007825032230
         H           -1.463929502987    -3.070095213828     0.525740937365     1.007825032230
         H           -2.708507102987    -1.893275913828     0.150060237365     1.007825032230
         H           -1.661524102987    -2.529318913828    -1.126733762635     1.007825032230
         H            2.517487897013    -2.066474913828    -0.534438762635     1.007825032230
         H            1.634204897013    -2.919644913828     0.742884237365     1.007825032230
         H            1.046484897013    -2.967290913828    -0.924316762635     1.007825032230
         H            2.816357897013     0.890190086172    -1.801988762635     1.007825032230
         H            3.800601897013     2.045703086172    -0.881149762635     1.007825032230
         H            2.067344897013     2.348303086172    -1.127015762635     1.007825032230
         H           -2.095915102987     2.226868086172    -1.249374762635     1.007825032230
         H           -3.779404102987     2.109309086172    -0.696425762635     1.007825032230
         H           -3.018393102987     0.738487086172    -1.529075762635     1.007825032230

  Basis Set: AUG-CC-PVTZ
    Blend: AUG-CC-PVTZ
  Basis Set: (AUG-CC-PVTZ AUX)
    Blend: AUG-CC-PVTZ-JKFIT
	 Reference Energy          =    -463.0102019343696043 [Eh]
	 Singles Energy            =      -0.0000000000000000 [Eh]
	 Same-Spin Energy          =      -0.4959433341869864 [Eh]
	 Opposite-Spin Energy      =      -1.6658321173815378 [Eh]
	 Correlation Energy        =      -2.1617754515685244 [Eh]
	 Total Energy              =    -465.1719773859381348 [Eh]

	 ================> DF-SCS-MP2 Energies <==================
	-----------------------------------------------------------
	 SCS Same-Spin Scale       =       0.3333333333333333 [-]
	 SCS Opposite-Spin Scale   =       1.2000000000000000 [-]
	 SCS Same-Spin Energy      =      -0.1653144447289955 [Eh]
	 SCS Opposite-Spin Energy  =      -1.9989985408578452 [Eh]
	 SCS Correlation Energy    =      -2.1643129855868408 [Eh]
	 SCS Total Energy          =    -465.1745149199564366 [Eh]
	-----------------------------------------------------------

  Dipole Moment: [D]
     X:    -0.0215      Y:    -0.6890      Z:    -0.1869     Total:     0.7142

*** Psi4 exiting successfully. Buy a developer a beer!
