                               Psi4 1.3.2 release

  ==> Input File <==

--------------------------------------------------------------------------
#psi4
#
memory 32 gb

molecule  {
0 1
  O        0.0723890     1.0222580     0.5077940
  C       -0.7418240    -1.0387750     0.1269710
  C        0.6883760    -1.0936210     0.0623120
  C       -1.0714850     0.2632460     0.3951280
  C        1.1400710     0.1773790     0.3033030
  C       -2.3562760     1.0018630     0.5198060
  C        2.4849120     0.8120840     0.3409220
  C       -1.6830070    -2.1819480    -0.0885940
  C        1.5125100    -2.3214750    -0.1762480
  C       -2.8463780     1.6306335    -0.7926732
  C        2.8130920     1.5744450    -0.9510270
  H        3.2336060     0.0303330     0.5193890
  H        2.5305840     1.4962520     1.1974230
  H       -2.2330473     1.8590206     1.1935382
  H       -3.1130010     0.3316860     0.9491040
  H       -1.4229750    -3.0387300     0.5441040
  H       -2.7119990    -1.8902510     0.1457090
  H       -1.6650160    -2.5262940    -1.1310850
  H        2.5139960    -2.0634500    -0.5387900
  H        1.6307130    -2.9166200     0.7385330
  H        1.0429930    -2.9642660    -0.9286680
  H        2.8128660     0.8932150    -1.8063400
  H        3.7971100     2.0487280    -0.8855010
  H        2.0638530     2.3513280    -1.1313670
  H       -2.0994070     2.2298930    -1.2537260
  H       -3.7828960     2.1123340    -0.7007770
  H       -3.0218850     0.7415120    -1.5334270
units angstrom
no_reorient  #important for SAPT in psi4, default
symmetry c1  #important for SAPT in psi4, default
}

set PROPERTIES_ORIGIN ["COM"]
properties('MP2/aug-cc-pvtz', properties = ['dipole'])
--------------------------------------------------------------------------

    Molecular point group: c1
  Charge       = 0
  Multiplicity = 1
  Basis Set: AUG-CC-PVTZ
    Blend: AUG-CC-PVTZ
  Basis Set: (AUG-CC-PVTZ AUX)
    Blend: AUG-CC-PVTZ-JKFIT

    Orbital Energies [Eh]
    ---------------------

    Doubly Occupied:

       1A    -20.598963     2A    -11.270522     3A    -11.270104
       4A    -11.230383     5A    -11.230321     6A    -11.223347
       7A    -11.223140     8A    -11.216885     9A    -11.215887
      10A    -11.215841    11A    -11.214989    12A     -1.430045
      13A     -1.099167    14A     -1.078938    15A     -1.036641
      16A     -0.990709    17A     -0.932694    18A     -0.928205
      19A     -0.870223    20A     -0.815330    21A     -0.749833
      22A     -0.722105    23A     -0.659203    24A     -0.627988
      25A     -0.613661    26A     -0.607249    27A     -0.592595
      28A     -0.581891    29A     -0.567874    30A     -0.556289
      31A     -0.549528    32A     -0.538554    33A     -0.529398
      34A     -0.524368    35A     -0.519957    36A     -0.508671
      37A     -0.498073    38A     -0.489206    39A     -0.474926
      40A     -0.462582    41A     -0.361114    42A     -0.279594

  @DF-RHF Final Energy:  -463.00470532243457

   => Energetics <=

    Nuclear Repulsion Energy =            629.2524260081044076
    One-Electron Energy =               -1876.3002809326101215
    Two-Electron Energy =                 784.0431496020712530
    Total Energy =                       -463.0047053224345746
  Basis Set: (AUG-CC-PVTZ AUX)
    Blend: AUG-CC-PVTZ-RI
    Molecular point group: c1

    Geometry (in Angstrom), charge = 0, multiplicity = 1:

       Center              X                  Y                   Z               Mass
    ------------   -----------------  -----------------  -----------------  -----------------
         O            0.072323783071     1.016201049936     0.505540043593    15.994914619570
         C           -0.741889216929    -1.044831950064     0.124717043593    12.000000000000
         C            0.688310783071    -1.099677950064     0.060058043593    12.000000000000
         C           -1.071550216929     0.257189049936     0.392874043593    12.000000000000
         C            1.140005783071     0.171322049936     0.301049043593    12.000000000000
         C           -2.356341216929     0.995806049936     0.517552043593    12.000000000000
         C            2.484846783071     0.806027049936     0.338668043593    12.000000000000
         C           -1.683072216929    -2.188004950064    -0.090847956407    12.000000000000
         C            1.512444783071    -2.327531950064    -0.178501956407    12.000000000000
         C           -2.846443216929     1.624576549936    -0.794927156407    12.000000000000
         C            2.813026783071     1.568388049936    -0.953280956407    12.000000000000
         H            3.233540783071     0.024276049936     0.517135043593     1.007825032230
         H            2.530518783071     1.490195049936     1.195169043593     1.007825032230
         H           -2.233112516929     1.852963649936     1.191284243593     1.007825032230
         H           -3.113066216929     0.325629049936     0.946850043593     1.007825032230
         H           -1.423040216929    -3.044786950064     0.541850043593     1.007825032230
         H           -2.712064216929    -1.896307950064     0.143455043593     1.007825032230
         H           -1.665081216929    -2.532350950064    -1.133338956407     1.007825032230
         H            2.513930783071    -2.069506950064    -0.541043956407     1.007825032230
         H            1.630647783071    -2.922676950064     0.736279043593     1.007825032230
         H            1.042927783071    -2.970322950064    -0.930921956407     1.007825032230
         H            2.812800783071     0.887158049936    -1.808593956407     1.007825032230
         H            3.797044783071     2.042671049936    -0.887754956407     1.007825032230
         H            2.063787783071     2.345271049936    -1.133620956407     1.007825032230
         H           -2.099472216929     2.223836049936    -1.255979956407     1.007825032230
         H           -3.782961216929     2.106277049936    -0.703030956407     1.007825032230
         H           -3.021950216929     0.735455049936    -1.535680956407     1.007825032230

  Basis Set: AUG-CC-PVTZ
    Blend: AUG-CC-PVTZ
  Basis Set: (AUG-CC-PVTZ AUX)
    Blend: AUG-CC-PVTZ-JKFIT
	 Reference Energy          =    -463.0047053224345746 [Eh]
	 Singles Energy            =      -0.0000000000000000 [Eh]
	 Same-Spin Energy          =      -0.4971956396011519 [Eh]
	 Opposite-Spin Energy      =      -1.6674379967659569 [Eh]
	 Correlation Energy        =      -2.1646336363671086 [Eh]
	 Total Energy              =    -465.1693389588016885 [Eh]

	 ================> DF-SCS-MP2 Energies <==================
	-----------------------------------------------------------
	 SCS Same-Spin Scale       =       0.3333333333333333 [-]
	 SCS Opposite-Spin Scale   =       1.2000000000000000 [-]
	 SCS Same-Spin Energy      =      -0.1657318798670506 [Eh]
	 SCS Opposite-Spin Energy  =      -2.0009255961191483 [Eh]
	 SCS Correlation Energy    =      -2.1666574759861987 [Eh]
	 SCS Total Energy          =    -465.1713627984207733 [Eh]
	-----------------------------------------------------------

  Dipole Moment: [D]
     X:     0.0004      Y:    -0.6293      Z:    -0.2016     Total:     0.6609

*** Psi4 exiting successfully. Buy a developer a beer!
