                               Psi4 1.3.2 release

  ==> Input File <==

--------------------------------------------------------------------------
#psi4
#
memory 32 gb

molecule  {
0 1
  O        0.0723890     1.0222580     0.5077940
  C       -0.7418240    -1.0387750     0.1269710
  C        0.6883760    -1.0936210     0.0623120
  C       -1.0714850     0.2632460     0.3951280
  C        1.0717486     0.1987996     0.3077109
  C       -2.3562760     1.0018630     0.5198060
  C        2.4849120     0.8120840     0.3409220
  C       -1.6830070    -2.1819480    -0.0885940
  C        1.4459189    -2.3622120    -0.1837343
  C       -2.8486430     1.5569180    -0.8246800
  C        2.8130920     1.5744450    -0.9510270
  H        3.2336060     0.0303330     0.5193890
  H        2.5305840     1.4962520     1.1974230
  H       -2.2159340     1.8224920     1.2344330
  H       -3.1130010     0.3316860     0.9491040
  H       -1.4229750    -3.0387300     0.5441040
  H       -2.7119990    -1.8902510     0.1457090
  H       -1.6650160    -2.5262940    -1.1310850
  H        2.5139960    -2.0634500    -0.5387900
  H        1.6307130    -2.9166200     0.7385330
  H        1.0429930    -2.9642660    -0.9286680
  H        2.8128660     0.8932150    -1.8063400
  H        3.7971100     2.0487280    -0.8855010
  H        2.0638530     2.3513280    -1.1313670
  H       -2.0994070     2.2298930    -1.2537260
  H       -3.7828960     2.1123340    -0.7007770
  H       -3.0218850     0.7415120    -1.5334270
units angstrom
no_reorient  #important for SAPT in psi4, default
symmetry c1  #important for SAPT in psi4, default
}

set PROPERTIES_ORIGIN ["COM"]
properties('MP2/aug-cc-pvtz', properties = ['dipole'])
--------------------------------------------------------------------------

    Molecular point group: c1
  Charge       = 0
  Multiplicity = 1
  Basis Set: AUG-CC-PVTZ
    Blend: AUG-CC-PVTZ
  Basis Set: (AUG-CC-PVTZ AUX)
    Blend: AUG-CC-PVTZ-JKFIT

    Orbital Energies [Eh]
    ---------------------

    Doubly Occupied:

       1A    -20.609158     2A    -11.272560     3A    -11.265869
       4A    -11.230652     5A    -11.229483     6A    -11.224254
       7A    -11.223585     8A    -11.216043     9A    -11.214792
      10A    -11.213782    11A    -11.210982    12A     -1.460789
      13A     -1.101988    14A     -1.075015    15A     -1.032215
      16A     -0.988024    17A     -0.937055    18A     -0.931298
      19A     -0.865449    20A     -0.814407    21A     -0.762059
      22A     -0.721499    23A     -0.664614    24A     -0.640748
      25A     -0.609716    26A     -0.606130    27A     -0.588849
      28A     -0.585712    29A     -0.574740    30A     -0.559899
      31A     -0.545573    32A     -0.538324    33A     -0.531156
      34A     -0.523445    35A     -0.518807    36A     -0.505434
      37A     -0.493315    38A     -0.486247    39A     -0.484989
      40A     -0.453221    41A     -0.362205    42A     -0.278462

  @DF-RHF Final Energy:  -463.00191892721972

   => Energetics <=

    Nuclear Repulsion Energy =            630.4953390342936927
    One-Electron Energy =               -1878.6894264724994628
    Two-Electron Energy =                 785.1921685109859936
    Total Energy =                       -463.0019189272197764
  Basis Set: (AUG-CC-PVTZ AUX)
    Blend: AUG-CC-PVTZ-RI
    Molecular point group: c1

    Geometry (in Angstrom), charge = 0, multiplicity = 1:

       Center              X                  Y                   Z               Mass
    ------------   -----------------  -----------------  -----------------  -----------------
         O            0.083031734392     1.023781883256     0.508036804765    15.994914619570
         C           -0.731181265608    -1.037251116744     0.127213804765    12.000000000000
         C            0.699018734392    -1.092097116744     0.062554804765    12.000000000000
         C           -1.060842265608     0.264769883256     0.395370804765    12.000000000000
         C            1.082391334392     0.200323483256     0.307953704765    12.000000000000
         C           -2.345633265608     1.003386883256     0.520048804765    12.000000000000
         C            2.495554734392     0.813607883256     0.341164804765    12.000000000000
         C           -1.672364265608    -2.180424116744    -0.088351195235    12.000000000000
         C            1.456561634392    -2.360688116744    -0.183491495235    12.000000000000
         C           -2.838000265608     1.558441883256    -0.824437195235    12.000000000000
         C            2.823734734392     1.575968883256    -0.950784195235    12.000000000000
         H            3.244248734392     0.031856883256     0.519631804765     1.007825032230
         H            2.541226734392     1.497775883256     1.197665804765     1.007825032230
         H           -2.205291265608     1.824015883256     1.234675804765     1.007825032230
         H           -3.102358265608     0.333209883256     0.949346804765     1.007825032230
         H           -1.412332265608    -3.037206116744     0.544346804765     1.007825032230
         H           -2.701356265608    -1.888727116744     0.145951804765     1.007825032230
         H           -1.654373265608    -2.524770116744    -1.130842195235     1.007825032230
         H            2.524638734392    -2.061926116744    -0.538547195235     1.007825032230
         H            1.641355734392    -2.915096116744     0.738775804765     1.007825032230
         H            1.053635734392    -2.962742116744    -0.928425195235     1.007825032230
         H            2.823508734392     0.894738883256    -1.806097195235     1.007825032230
         H            3.807752734392     2.050251883256    -0.885258195235     1.007825032230
         H            2.074495734392     2.352851883256    -1.131124195235     1.007825032230
         H           -2.088764265608     2.231416883256    -1.253483195235     1.007825032230
         H           -3.772253265608     2.113857883256    -0.700534195235     1.007825032230
         H           -3.011242265608     0.743035883256    -1.533184195235     1.007825032230

  Basis Set: AUG-CC-PVTZ
    Blend: AUG-CC-PVTZ
  Basis Set: (AUG-CC-PVTZ AUX)
    Blend: AUG-CC-PVTZ-JKFIT
	 Reference Energy          =    -463.0019189272197195 [Eh]
	 Singles Energy            =      -0.0000000000000000 [Eh]
	 Same-Spin Energy          =      -0.4967103105110457 [Eh]
	 Opposite-Spin Energy      =      -1.6659137248381304 [Eh]
	 Correlation Energy        =      -2.1626240353491761 [Eh]
	 Total Energy              =    -465.1645429625688735 [Eh]

	 ================> DF-SCS-MP2 Energies <==================
	-----------------------------------------------------------
	 SCS Same-Spin Scale       =       0.3333333333333333 [-]
	 SCS Opposite-Spin Scale   =       1.2000000000000000 [-]
	 SCS Same-Spin Energy      =      -0.1655701035036819 [Eh]
	 SCS Opposite-Spin Energy  =      -1.9990964698057563 [Eh]
	 SCS Correlation Energy    =      -2.1646665733094381 [Eh]
	 SCS Total Energy          =    -465.1665855005291519 [Eh]
	-----------------------------------------------------------

  Dipole Moment: [D]
     X:    -0.1576      Y:    -0.6385      Z:    -0.1882     Total:     0.6841

*** Psi4 exiting successfully. Buy a developer a beer!
