                               Psi4 1.3.2 release

  ==> Input File <==

--------------------------------------------------------------------------
#psi4
#
memory 32 gb

molecule  {
0 1
  O        0.0285195     0.9655558     0.5003120
  C       -0.7418240    -1.0387750     0.1269710
  C        0.6883760    -1.0936210     0.0623120
  C       -1.0714850     0.2632460     0.3951280
  C        1.1400710     0.1773790     0.3033030
  C       -2.3562760     1.0018630     0.5198060
  C        2.5160868     0.7420723     0.3270727
  C       -1.6830070    -2.1819480    -0.0885940
  C        1.5125100    -2.3214750    -0.1762480
  C       -2.8486430     1.5569180    -0.8246800
  C        2.8130920     1.5744450    -0.9510270
  H        3.2336060     0.0303330     0.5193890
  H        2.5305840     1.4962520     1.1974230
  H       -2.2159340     1.8224920     1.2344330
  H       -3.1130010     0.3316860     0.9491040
  H       -1.4229750    -3.0387300     0.5441040
  H       -2.7119990    -1.8902510     0.1457090
  H       -1.6650160    -2.5262940    -1.1310850
  H        2.5139960    -2.0634500    -0.5387900
  H        1.6307130    -2.9166200     0.7385330
  H        1.0429930    -2.9642660    -0.9286680
  H        2.8128660     0.8932150    -1.8063400
  H        3.7971100     2.0487280    -0.8855010
  H        2.0638530     2.3513280    -1.1313670
  H       -2.0994070     2.2298930    -1.2537260
  H       -3.7828960     2.1123340    -0.7007770
  H       -3.0218850     0.7415120    -1.5334270
units angstrom
no_reorient  #important for SAPT in psi4, default
symmetry c1  #important for SAPT in psi4, default
}

set PROPERTIES_ORIGIN ["COM"]
properties('MP2/aug-cc-pvtz', properties = ['dipole'])
--------------------------------------------------------------------------

    Molecular point group: c1
  Charge       = 0
  Multiplicity = 1
  Basis Set: AUG-CC-PVTZ
    Blend: AUG-CC-PVTZ
  Basis Set: (AUG-CC-PVTZ AUX)
    Blend: AUG-CC-PVTZ-JKFIT

    Orbital Energies [Eh]
    ---------------------

    Doubly Occupied:

       1A    -20.601149     2A    -11.267571     3A    -11.266340
       4A    -11.233159     5A    -11.230221     6A    -11.222044
       7A    -11.218705     8A    -11.216644     9A    -11.216310
      10A    -11.214175    11A    -11.206786    12A     -1.455383
      13A     -1.095998    14A     -1.080973    15A     -1.036603
      16A     -0.988131    17A     -0.934910    18A     -0.927588
      19A     -0.872674    20A     -0.822707    21A     -0.758207
      22A     -0.718779    23A     -0.666692    24A     -0.637282
      25A     -0.616490    26A     -0.606081    27A     -0.595301
      28A     -0.580308    29A     -0.567426    30A     -0.553646
      31A     -0.548205    32A     -0.534079    33A     -0.528017
      34A     -0.522069    35A     -0.520518    36A     -0.511932
      37A     -0.496516    38A     -0.490876    39A     -0.483261
      40A     -0.460124    41A     -0.355302    42A     -0.277598

  @DF-RHF Final Energy:  -463.00390102521874

   => Energetics <=

    Nuclear Repulsion Energy =            631.2291003104553511
    One-Electron Energy =               -1880.1924393540225537
    Two-Electron Energy =                 785.9594380183484645
    Total Energy =                       -463.0039010252187381
  Basis Set: (AUG-CC-PVTZ AUX)
    Blend: AUG-CC-PVTZ-RI
    Molecular point group: c1

    Geometry (in Angstrom), charge = 0, multiplicity = 1:

       Center              X                  Y                   Z               Mass
    ------------   -----------------  -----------------  -----------------  -----------------
         O            0.030673082961     0.977040827753     0.502191174491    15.994914619570
         C           -0.739670417039    -1.027289972247     0.128850174491    12.000000000000
         C            0.690529582961    -1.082135972247     0.064191174491    12.000000000000
         C           -1.069331417039     0.274731027753     0.397007174491    12.000000000000
         C            1.142224582961     0.188864027753     0.305182174491    12.000000000000
         C           -2.354122417039     1.013348027753     0.521685174491    12.000000000000
         C            2.518240382961     0.753557327753     0.328951874491    12.000000000000
         C           -1.680853417039    -2.170462972247    -0.086714825509    12.000000000000
         C            1.514663582961    -2.309989972247    -0.174368825509    12.000000000000
         C           -2.846489417039     1.568403027753    -0.822800825509    12.000000000000
         C            2.815245582961     1.585930027753    -0.949147825509    12.000000000000
         H            3.235759582961     0.041818027753     0.521268174491     1.007825032230
         H            2.532737582961     1.507737027753     1.199302174491     1.007825032230
         H           -2.213780417039     1.833977027753     1.236312174491     1.007825032230
         H           -3.110847417039     0.343171027753     0.950983174491     1.007825032230
         H           -1.420821417039    -3.027244972247     0.545983174491     1.007825032230
         H           -2.709845417039    -1.878765972247     0.147588174491     1.007825032230
         H           -1.662862417039    -2.514808972247    -1.129205825509     1.007825032230
         H            2.516149582961    -2.051964972247    -0.536910825509     1.007825032230
         H            1.632866582961    -2.905134972247     0.740412174491     1.007825032230
         H            1.045146582961    -2.952780972247    -0.926788825509     1.007825032230
         H            2.815019582961     0.904700027753    -1.804460825509     1.007825032230
         H            3.799263582961     2.060213027753    -0.883621825509     1.007825032230
         H            2.066006582961     2.362813027753    -1.129487825509     1.007825032230
         H           -2.097253417039     2.241378027753    -1.251846825509     1.007825032230
         H           -3.780742417039     2.123819027753    -0.698897825509     1.007825032230
         H           -3.019731417039     0.752997027753    -1.531547825509     1.007825032230

  Basis Set: AUG-CC-PVTZ
    Blend: AUG-CC-PVTZ
  Basis Set: (AUG-CC-PVTZ AUX)
    Blend: AUG-CC-PVTZ-JKFIT
	 Reference Energy          =    -463.0039010252187381 [Eh]
	 Singles Energy            =      -0.0000000000000000 [Eh]
	 Same-Spin Energy          =      -0.4969760604450693 [Eh]
	 Opposite-Spin Energy      =      -1.6651994790059501 [Eh]
	 Correlation Energy        =      -2.1621755394510194 [Eh]
	 Total Energy              =    -465.1660765646697655 [Eh]

	 ================> DF-SCS-MP2 Energies <==================
	-----------------------------------------------------------
	 SCS Same-Spin Scale       =       0.3333333333333333 [-]
	 SCS Opposite-Spin Scale   =       1.2000000000000000 [-]
	 SCS Same-Spin Energy      =      -0.1656586868150231 [Eh]
	 SCS Opposite-Spin Energy  =      -1.9982393748071401 [Eh]
	 SCS Correlation Energy    =      -2.1638980616221630 [Eh]
	 SCS Total Energy          =    -465.1677990868408870 [Eh]
	-----------------------------------------------------------

  Dipole Moment: [D]
     X:     0.1265      Y:    -0.4343      Z:    -0.1898     Total:     0.4905

*** Psi4 exiting successfully. Buy a developer a beer!
