                               Psi4 1.3.2 release

  ==> Input File <==

--------------------------------------------------------------------------
#psi4
#
memory 32 gb

molecule  {
0 1
  O        0.0723890     1.0222580     0.5077940
  C       -0.7418240    -1.0387750     0.1269710
  C        0.6883760    -1.0936210     0.0623120
  C       -1.0714850     0.2632460     0.3951280
  C        1.1400710     0.1773790     0.3033030
  C       -2.3562760     1.0018630     0.5198060
  C        2.4849120     0.8120840     0.3409220
  C       -1.6830070    -2.1819480    -0.0885940
  C        1.5125100    -2.3214750    -0.1762480
  C       -2.8488894     1.5444787    -0.8296584
  C        2.8130920     1.5744450    -0.9510270
  H        3.2336060     0.0303330     0.5193890
  H        2.5305840     1.4962520     1.1974230
  H       -2.2131179     1.8161824     1.2410613
  H       -3.1130010     0.3316860     0.9491040
  H       -1.4229750    -3.0387300     0.5441040
  H       -2.7119990    -1.8902510     0.1457090
  H       -1.6650160    -2.5262940    -1.1310850
  H        2.5139960    -2.0634500    -0.5387900
  H        1.6307130    -2.9166200     0.7385330
  H        1.0429930    -2.9642660    -0.9286680
  H        2.8128660     0.8932150    -1.8063400
  H        3.7971100     2.0487280    -0.8855010
  H        2.0638530     2.3513280    -1.1313670
  H       -2.0994070     2.2298930    -1.2537260
  H       -3.7828960     2.1123340    -0.7007770
  H       -3.0218850     0.7415120    -1.5334270
units angstrom
no_reorient  #important for SAPT in psi4, default
symmetry c1  #important for SAPT in psi4, default
}

set PROPERTIES_ORIGIN ["COM"]
properties('MP2/aug-cc-pvtz', properties = ['dipole'])
--------------------------------------------------------------------------

    Molecular point group: c1
  Charge       = 0
  Multiplicity = 1
  Basis Set: AUG-CC-PVTZ
    Blend: AUG-CC-PVTZ
  Basis Set: (AUG-CC-PVTZ AUX)
    Blend: AUG-CC-PVTZ-JKFIT

    Orbital Energies [Eh]
    ---------------------

    Doubly Occupied:

       1A    -20.598605     2A    -11.269508     3A    -11.269367
       4A    -11.230188     5A    -11.229941     6A    -11.223181
       7A    -11.222847     8A    -11.216148     9A    -11.215686
      10A    -11.215024    11A    -11.214620    12A     -1.429676
      13A     -1.098717    14A     -1.078920    15A     -1.036214
      16A     -0.990002    17A     -0.932291    18A     -0.927552
      19A     -0.870253    20A     -0.815706    21A     -0.749362
      22A     -0.721730    23A     -0.657899    24A     -0.627304
      25A     -0.610760    26A     -0.610215    27A     -0.586147
      28A     -0.583930    29A     -0.567737    30A     -0.555750
      31A     -0.549715    32A     -0.532607    33A     -0.527664
      34A     -0.523829    35A     -0.522482    36A     -0.505739
      37A     -0.495628    38A     -0.492229    39A     -0.483658
      40A     -0.467111    41A     -0.360674    42A     -0.278851

  @DF-RHF Final Energy:  -463.01177202030220

   => Energetics <=

    Nuclear Repulsion Energy =            629.6365806020783111
    One-Electron Energy =               -1877.1057718950187336
    Two-Electron Energy =                 784.4574192726382762
    Total Energy =                       -463.0117720203021463
  Basis Set: (AUG-CC-PVTZ AUX)
    Blend: AUG-CC-PVTZ-RI
    Molecular point group: c1

    Geometry (in Angstrom), charge = 0, multiplicity = 1:

       Center              X                  Y                   Z               Mass
    ------------   -----------------  -----------------  -----------------  -----------------
         O            0.072389858828     1.023281185324     0.508142772561    15.994914619570
         C           -0.741823141172    -1.037751814676     0.127319772561    12.000000000000
         C            0.688376858828    -1.092597814676     0.062660772561    12.000000000000
         C           -1.071484141172     0.264269185324     0.395476772561    12.000000000000
         C            1.140071858828     0.178402185324     0.303651772561    12.000000000000
         C           -2.356275141172     1.002886185324     0.520154772561    12.000000000000
         C            2.484912858828     0.813107185324     0.341270772561    12.000000000000
         C           -1.683006141172    -2.180924814676    -0.088245227439    12.000000000000
         C            1.512510858828    -2.320451814676    -0.175899227439    12.000000000000
         C           -2.848888541172     1.545501885324    -0.829309627439    12.000000000000
         C            2.813092858828     1.575468185324    -0.950678227439    12.000000000000
         H            3.233606858828     0.031356185324     0.519737772561     1.007825032230
         H            2.530584858828     1.497275185324     1.197771772561     1.007825032230
         H           -2.213117041172     1.817205585324     1.241410072561     1.007825032230
         H           -3.113000141172     0.332709185324     0.949452772561     1.007825032230
         H           -1.422974141172    -3.037706814676     0.544452772561     1.007825032230
         H           -2.711998141172    -1.889227814676     0.146057772561     1.007825032230
         H           -1.665015141172    -2.525270814676    -1.130736227439     1.007825032230
         H            2.513996858828    -2.062426814676    -0.538441227439     1.007825032230
         H            1.630713858828    -2.915596814676     0.738881772561     1.007825032230
         H            1.042993858828    -2.963242814676    -0.928319227439     1.007825032230
         H            2.812866858828     0.894238185324    -1.805991227439     1.007825032230
         H            3.797110858828     2.049751185324    -0.885152227439     1.007825032230
         H            2.063853858828     2.352351185324    -1.131018227439     1.007825032230
         H           -2.099406141172     2.230916185324    -1.253377227439     1.007825032230
         H           -3.782895141172     2.113357185324    -0.700428227439     1.007825032230
         H           -3.021884141172     0.742535185324    -1.533078227439     1.007825032230

  Basis Set: AUG-CC-PVTZ
    Blend: AUG-CC-PVTZ
  Basis Set: (AUG-CC-PVTZ AUX)
    Blend: AUG-CC-PVTZ-JKFIT
	 Reference Energy          =    -463.0117720203022031 [Eh]
	 Singles Energy            =      -0.0000000000000000 [Eh]
	 Same-Spin Energy          =      -0.4971110088761195 [Eh]
	 Opposite-Spin Energy      =      -1.6671465550378597 [Eh]
	 Correlation Energy        =      -2.1642575639139792 [Eh]
	 Total Energy              =    -465.1760295842161668 [Eh]

	 ================> DF-SCS-MP2 Energies <==================
	-----------------------------------------------------------
	 SCS Same-Spin Scale       =       0.3333333333333333 [-]
	 SCS Opposite-Spin Scale   =       1.2000000000000000 [-]
	 SCS Same-Spin Energy      =      -0.1657036696253732 [Eh]
	 SCS Opposite-Spin Energy  =      -2.0005758660454314 [Eh]
	 SCS Correlation Energy    =      -2.1662795356708044 [Eh]
	 SCS Total Energy          =    -465.1780515559730134 [Eh]
	-----------------------------------------------------------

  Dipole Moment: [D]
     X:    -0.0347      Y:    -0.6566      Z:    -0.2164     Total:     0.6922

*** Psi4 exiting successfully. Buy a developer a beer!
