                               Psi4 1.3.2 release

  ==> Input File <==

--------------------------------------------------------------------------
#psi4
#
memory 32 gb

molecule  {
0 1
  O        0.0723890     1.0222580     0.5077940
  C       -0.7418240    -1.0387750     0.1269710
  C        0.6883760    -1.0936210     0.0623120
  C       -1.0719710     0.2585484     0.4206511
  C        1.1400710     0.1773790     0.3033030
  C       -2.3562760     1.0018630     0.5198060
  C        2.4849120     0.8120840     0.3409220
  C       -1.6830070    -2.1819480    -0.0885940
  C        1.5125100    -2.3214750    -0.1762480
  C       -2.8700692     1.5672255    -0.8123110
  C        2.8130920     1.5744450    -0.9510270
  H        3.2336060     0.0303330     0.5193890
  H        2.5305840     1.4962520     1.1974230
  H       -2.2159340     1.8224920     1.2344330
  H       -3.1130010     0.3316860     0.9491040
  H       -1.4229750    -3.0387300     0.5441040
  H       -2.7119990    -1.8902510     0.1457090
  H       -1.6650160    -2.5262940    -1.1310850
  H        2.5139960    -2.0634500    -0.5387900
  H        1.6307130    -2.9166200     0.7385330
  H        1.0429930    -2.9642660    -0.9286680
  H        2.8128660     0.8932150    -1.8063400
  H        3.7971100     2.0487280    -0.8855010
  H        2.0638530     2.3513280    -1.1313670
  H       -2.0994070     2.2298930    -1.2537260
  H       -3.7828960     2.1123340    -0.7007770
  H       -3.0218850     0.7415120    -1.5334270
units angstrom
no_reorient  #important for SAPT in psi4, default
symmetry c1  #important for SAPT in psi4, default
}

set PROPERTIES_ORIGIN ["COM"]
properties('MP2/aug-cc-pvtz', properties = ['dipole'])
--------------------------------------------------------------------------

    Molecular point group: c1
  Charge       = 0
  Multiplicity = 1
  Basis Set: AUG-CC-PVTZ
    Blend: AUG-CC-PVTZ
  Basis Set: (AUG-CC-PVTZ AUX)
    Blend: AUG-CC-PVTZ-JKFIT

    Orbital Energies [Eh]
    ---------------------

    Doubly Occupied:

       1A    -20.598551     2A    -11.270038     3A    -11.269827
       4A    -11.230186     5A    -11.229884     6A    -11.223322
       7A    -11.223031     8A    -11.216683     9A    -11.215721
      10A    -11.215678    11A    -11.214818    12A     -1.429291
      13A     -1.098858    14A     -1.078597    15A     -1.035975
      16A     -0.990277    17A     -0.932426    18A     -0.928097
      19A     -0.870716    20A     -0.815492    21A     -0.749212
      22A     -0.721714    23A     -0.657783    24A     -0.627084
      25A     -0.611252    26A     -0.608526    27A     -0.587343
      28A     -0.583354    29A     -0.567901    30A     -0.555938
      31A     -0.549387    32A     -0.537556    33A     -0.528690
      34A     -0.523930    35A     -0.520920    36A     -0.504151
      37A     -0.494671    38A     -0.492263    39A     -0.481524
      40A     -0.467423    41A     -0.360746    42A     -0.279440

  @DF-RHF Final Energy:  -463.01081899767058

   => Energetics <=

    Nuclear Repulsion Energy =            629.2588585045610898
    One-Electron Energy =               -1876.3428032858062124
    Two-Electron Energy =                 784.0731257835743691
    Total Energy =                       -463.0108189976706399
  Basis Set: (AUG-CC-PVTZ AUX)
    Blend: AUG-CC-PVTZ-RI
    Molecular point group: c1

    Geometry (in Angstrom), charge = 0, multiplicity = 1:

       Center              X                  Y                   Z               Mass
    ------------   -----------------  -----------------  -----------------  -----------------
         O            0.074117623338     1.021815571308     0.504804845602    15.994914619570
         C           -0.740095376662    -1.039217428692     0.123981845602    12.000000000000
         C            0.690104623338    -1.094063428692     0.059322845602    12.000000000000
         C           -1.070242376662     0.258105971308     0.417661945602    12.000000000000
         C            1.141799623338     0.176936571308     0.300313845602    12.000000000000
         C           -2.354547376662     1.001420571308     0.516816845602    12.000000000000
         C            2.486640623338     0.811641571308     0.337932845602    12.000000000000
         C           -1.681278376662    -2.182390428692    -0.091583154398    12.000000000000
         C            1.514238623338    -2.321917428692    -0.179237154398    12.000000000000
         C           -2.868340576662     1.566783071308    -0.815300154398    12.000000000000
         C            2.814820623338     1.574002571308    -0.954016154398    12.000000000000
         H            3.235334623338     0.029890571308     0.516399845602     1.007825032230
         H            2.532312623338     1.495809571308     1.194433845602     1.007825032230
         H           -2.214205376662     1.822049571308     1.231443845602     1.007825032230
         H           -3.111272376662     0.331243571308     0.946114845602     1.007825032230
         H           -1.421246376662    -3.039172428692     0.541114845602     1.007825032230
         H           -2.710270376662    -1.890693428692     0.142719845602     1.007825032230
         H           -1.663287376662    -2.526736428692    -1.134074154398     1.007825032230
         H            2.515724623338    -2.063892428692    -0.541779154398     1.007825032230
         H            1.632441623338    -2.917062428692     0.735543845602     1.007825032230
         H            1.044721623338    -2.964708428692    -0.931657154398     1.007825032230
         H            2.814594623338     0.892772571308    -1.809329154398     1.007825032230
         H            3.798838623338     2.048285571308    -0.888490154398     1.007825032230
         H            2.065581623338     2.350885571308    -1.134356154398     1.007825032230
         H           -2.097678376662     2.229450571308    -1.256715154398     1.007825032230
         H           -3.781167376662     2.111891571308    -0.703766154398     1.007825032230
         H           -3.020156376662     0.741069571308    -1.536416154398     1.007825032230

  Basis Set: AUG-CC-PVTZ
    Blend: AUG-CC-PVTZ
  Basis Set: (AUG-CC-PVTZ AUX)
    Blend: AUG-CC-PVTZ-JKFIT
	 Reference Energy          =    -463.0108189976705830 [Eh]
	 Singles Energy            =      -0.0000000000000000 [Eh]
	 Same-Spin Energy          =      -0.4971353148209136 [Eh]
	 Opposite-Spin Energy      =      -1.6672124766794454 [Eh]
	 Correlation Energy        =      -2.1643477915003588 [Eh]
	 Total Energy              =    -465.1751667891709303 [Eh]

	 ================> DF-SCS-MP2 Energies <==================
	-----------------------------------------------------------
	 SCS Same-Spin Scale       =       0.3333333333333333 [-]
	 SCS Opposite-Spin Scale   =       1.2000000000000000 [-]
	 SCS Same-Spin Energy      =      -0.1657117716069712 [Eh]
	 SCS Opposite-Spin Energy  =      -2.0006549720153344 [Eh]
	 SCS Correlation Energy    =      -2.1663667436223055 [Eh]
	 SCS Total Energy          =    -465.1771857412928739 [Eh]
	-----------------------------------------------------------

  Dipole Moment: [D]
     X:    -0.0213      Y:    -0.6576      Z:    -0.2281     Total:     0.6963

*** Psi4 exiting successfully. Buy a developer a beer!
