                               Psi4 1.3.2 release

  ==> Input File <==

--------------------------------------------------------------------------
#psi4
#
memory 32 gb

molecule  {
0 1
  O        0.0723890     1.0222580     0.5077940
  C       -0.7418240    -1.0387750     0.1269710
  C        0.6883760    -1.0936210     0.0623120
  C       -1.0975202     0.3027070     0.4038739
  C        1.1697161     0.2146525     0.3097319
  C       -2.3562760     1.0018630     0.5198060
  C        2.4849120     0.8120840     0.3409220
  C       -1.6830070    -2.1819480    -0.0885940
  C        1.5125100    -2.3214750    -0.1762480
  C       -2.8486430     1.5569180    -0.8246800
  C        2.8130920     1.5744450    -0.9510270
  H        3.2336060     0.0303330     0.5193890
  H        2.5305840     1.4962520     1.1974230
  H       -2.2159340     1.8224920     1.2344330
  H       -3.1130010     0.3316860     0.9491040
  H       -1.4229750    -3.0387300     0.5441040
  H       -2.7119990    -1.8902510     0.1457090
  H       -1.6650160    -2.5262940    -1.1310850
  H        2.5139960    -2.0634500    -0.5387900
  H        1.6307130    -2.9166200     0.7385330
  H        1.0429930    -2.9642660    -0.9286680
  H        2.8128660     0.8932150    -1.8063400
  H        3.7971100     2.0487280    -0.8855010
  H        2.0638530     2.3513280    -1.1313670
  H       -2.0994070     2.2298930    -1.2537260
  H       -3.7828960     2.1123340    -0.7007770
  H       -3.0218850     0.7415120    -1.5334270
units angstrom
no_reorient  #important for SAPT in psi4, default
symmetry c1  #important for SAPT in psi4, default
}

set PROPERTIES_ORIGIN ["COM"]
properties('MP2/aug-cc-pvtz', properties = ['dipole'])
--------------------------------------------------------------------------

    Molecular point group: c1
  Charge       = 0
  Multiplicity = 1
  Basis Set: AUG-CC-PVTZ
    Blend: AUG-CC-PVTZ
  Basis Set: (AUG-CC-PVTZ AUX)
    Blend: AUG-CC-PVTZ-JKFIT

    Orbital Energies [Eh]
    ---------------------

    Doubly Occupied:

       1A    -20.600363     2A    -11.273445     3A    -11.273319
       4A    -11.229044     5A    -11.228950     6A    -11.222053
       7A    -11.221791     8A    -11.220808     9A    -11.219785
      10A    -11.216329    11A    -11.215499    12A     -1.427044
      13A     -1.089940    14A     -1.086971    15A     -1.042974
      16A     -0.987138    17A     -0.929978    18A     -0.924204
      19A     -0.877207    20A     -0.815408    21A     -0.744971
      22A     -0.720274    23A     -0.660734    24A     -0.624471
      25A     -0.615305    26A     -0.613610    27A     -0.592797
      28A     -0.582643    29A     -0.567371    30A     -0.554868
      31A     -0.548677    32A     -0.533843    33A     -0.531172
      34A     -0.520929    35A     -0.519183    36A     -0.506260
      37A     -0.498279    38A     -0.497628    39A     -0.483537
      40A     -0.464168    41A     -0.351805    42A     -0.267939

  @DF-RHF Final Energy:  -462.99921007951394

   => Energetics <=

    Nuclear Repulsion Energy =            628.7439457761574886
    One-Electron Energy =               -1875.2808788265274416
    Two-Electron Energy =                 783.5377229708560662
    Total Energy =                       -462.9992100795138867
  Basis Set: (AUG-CC-PVTZ AUX)
    Blend: AUG-CC-PVTZ-RI
    Molecular point group: c1

    Geometry (in Angstrom), charge = 0, multiplicity = 1:

       Center              X                  Y                   Z               Mass
    ------------   -----------------  -----------------  -----------------  -----------------
         O            0.072104311688     1.016204905031     0.506596900517    15.994914619570
         C           -0.742108688312    -1.044828094969     0.125773900517    12.000000000000
         C            0.688091311688    -1.099674094969     0.061114900517    12.000000000000
         C           -1.097804888312     0.296653905031     0.402676800517    12.000000000000
         C            1.169431411688     0.208599405031     0.308534800517    12.000000000000
         C           -2.356560688312     0.995809905031     0.518608900517    12.000000000000
         C            2.484627311688     0.806030905031     0.339724900517    12.000000000000
         C           -1.683291688312    -2.188001094969    -0.089791099483    12.000000000000
         C            1.512225311688    -2.327528094969    -0.177445099483    12.000000000000
         C           -2.848927688312     1.550864905031    -0.825877099483    12.000000000000
         C            2.812807311688     1.568391905031    -0.952224099483    12.000000000000
         H            3.233321311688     0.024279905031     0.518191900517     1.007825032230
         H            2.530299311688     1.490198905031     1.196225900517     1.007825032230
         H           -2.216218688312     1.816438905031     1.233235900517     1.007825032230
         H           -3.113285688312     0.325632905031     0.947906900517     1.007825032230
         H           -1.423259688312    -3.044783094969     0.542906900517     1.007825032230
         H           -2.712283688312    -1.896304094969     0.144511900517     1.007825032230
         H           -1.665300688312    -2.532347094969    -1.132282099483     1.007825032230
         H            2.513711311688    -2.069503094969    -0.539987099483     1.007825032230
         H            1.630428311688    -2.922673094969     0.737335900517     1.007825032230
         H            1.042708311688    -2.970319094969    -0.929865099483     1.007825032230
         H            2.812581311688     0.887161905031    -1.807537099483     1.007825032230
         H            3.796825311688     2.042674905031    -0.886698099483     1.007825032230
         H            2.063568311688     2.345274905031    -1.132564099483     1.007825032230
         H           -2.099691688312     2.223839905031    -1.254923099483     1.007825032230
         H           -3.783180688312     2.106280905031    -0.701974099483     1.007825032230
         H           -3.022169688312     0.735458905031    -1.534624099483     1.007825032230

  Basis Set: AUG-CC-PVTZ
    Blend: AUG-CC-PVTZ
  Basis Set: (AUG-CC-PVTZ AUX)
    Blend: AUG-CC-PVTZ-JKFIT
	 Reference Energy          =    -462.9992100795139436 [Eh]
	 Singles Energy            =      -0.0000000000000000 [Eh]
	 Same-Spin Energy          =      -0.4999767966685754 [Eh]
	 Opposite-Spin Energy      =      -1.6706975490253679 [Eh]
	 Correlation Energy        =      -2.1706743456939432 [Eh]
	 Total Energy              =    -465.1698844252078970 [Eh]

	 ================> DF-SCS-MP2 Energies <==================
	-----------------------------------------------------------
	 SCS Same-Spin Scale       =       0.3333333333333333 [-]
	 SCS Opposite-Spin Scale   =       1.2000000000000000 [-]
	 SCS Same-Spin Energy      =      -0.1666589322228584 [Eh]
	 SCS Opposite-Spin Energy  =      -2.0048370588304416 [Eh]
	 SCS Correlation Energy    =      -2.1714959910533000 [Eh]
	 SCS Total Energy          =    -465.1707060705672347 [Eh]
	-----------------------------------------------------------

  Dipole Moment: [D]
     X:    -0.0204      Y:    -0.5259      Z:    -0.1935     Total:     0.5608

*** Psi4 exiting successfully. Buy a developer a beer!
