                               Psi4 1.3.2 release

  ==> Input File <==

--------------------------------------------------------------------------
#psi4
#
memory 32 gb

molecule  {
0 1
  O        0.0723890     1.0222580     0.5077940
  C       -0.7418240    -1.0387750     0.1269710
  C        0.6883760    -1.0936210     0.0623120
  C       -1.0474154     0.1681812     0.3755490
  C        1.1400710     0.1773790     0.3033030
  C       -2.3562760     1.0018630     0.5198060
  C        2.4849120     0.8120840     0.3409220
  C       -1.6830070    -2.1819480    -0.0885940
  C        1.5125100    -2.3214750    -0.1762480
  C       -2.8486430     1.5569180    -0.8246800
  C        2.8130920     1.5744450    -0.9510270
  H        3.2336060     0.0303330     0.5193890
  H        2.5305840     1.4962520     1.1974230
  H       -2.2159340     1.8224920     1.2344330
  H       -3.1130010     0.3316860     0.9491040
  H       -1.4229750    -3.0387300     0.5441040
  H       -2.7119990    -1.8902510     0.1457090
  H       -1.6650160    -2.5262940    -1.1310850
  H        2.5139960    -2.0634500    -0.5387900
  H        1.6307130    -2.9166200     0.7385330
  H        1.0429930    -2.9642660    -0.9286680
  H        2.8128660     0.8932150    -1.8063400
  H        3.7971100     2.0487280    -0.8855010
  H        2.0638530     2.3513280    -1.1313670
  H       -2.0994070     2.2298930    -1.2537260
  H       -3.7828960     2.1123340    -0.7007770
  H       -3.0218850     0.7415120    -1.5334270
units angstrom
no_reorient  #important for SAPT in psi4, default
symmetry c1  #important for SAPT in psi4, default
}

set PROPERTIES_ORIGIN ["COM"]
properties('MP2/aug-cc-pvtz', properties = ['dipole'])
--------------------------------------------------------------------------

    Molecular point group: c1
  Charge       = 0
  Multiplicity = 1
  Basis Set: AUG-CC-PVTZ
    Blend: AUG-CC-PVTZ
  Basis Set: (AUG-CC-PVTZ AUX)
    Blend: AUG-CC-PVTZ-JKFIT

    Orbital Energies [Eh]
    ---------------------

    Doubly Occupied:

       1A    -20.591627     2A    -11.270398     3A    -11.261116
       4A    -11.232487     5A    -11.229521     6A    -11.226226
       7A    -11.222472     8A    -11.214849     9A    -11.214651
      10A    -11.214131    11A    -11.206354    12A     -1.418223
      13A     -1.113037    14A     -1.073279    15A     -1.030478
      16A     -0.994053    17A     -0.941645    18A     -0.922474
      19A     -0.864454    20A     -0.818481    21A     -0.746161
      22A     -0.722052    23A     -0.654242    24A     -0.626406
      25A     -0.608215    26A     -0.607175    27A     -0.585989
      28A     -0.580023    29A     -0.566956    30A     -0.556936
      31A     -0.550815    32A     -0.533475    33A     -0.530884
      34A     -0.524356    35A     -0.517374    36A     -0.503904
      37A     -0.493780    38A     -0.489736    39A     -0.478450
      40A     -0.465458    41A     -0.374023    42A     -0.289698

  @DF-RHF Final Energy:  -463.00039386215167

   => Energetics <=

    Nuclear Repulsion Energy =            630.2283516419245188
    One-Electron Energy =               -1878.3253678838746055
    Two-Electron Energy =                 785.0966223797984185
    Total Energy =                       -463.0003938621516681
  Basis Set: (AUG-CC-PVTZ AUX)
    Blend: AUG-CC-PVTZ-RI
    Molecular point group: c1

    Geometry (in Angstrom), charge = 0, multiplicity = 1:

       Center              X                  Y                   Z               Mass
    ------------   -----------------  -----------------  -----------------  -----------------
         O            0.070490347619     1.029757298140     0.509338455107    15.994914619570
         C           -0.743722652381    -1.031275701860     0.128515455107    12.000000000000
         C            0.686477347619    -1.086121701860     0.063856455107    12.000000000000
         C           -1.049314052381     0.175680498140     0.377093455107    12.000000000000
         C            1.138172347619     0.184878298140     0.304847455107    12.000000000000
         C           -2.358174652381     1.009362298140     0.521350455107    12.000000000000
         C            2.483013347619     0.819583298140     0.342466455107    12.000000000000
         C           -1.684905652381    -2.174448701860    -0.087049544893    12.000000000000
         C            1.510611347619    -2.313975701860    -0.174703544893    12.000000000000
         C           -2.850541652381     1.564417298140    -0.823135544893    12.000000000000
         C            2.811193347619     1.581944298140    -0.949482544893    12.000000000000
         H            3.231707347619     0.037832298140     0.520933455107     1.007825032230
         H            2.528685347619     1.503751298140     1.198967455107     1.007825032230
         H           -2.217832652381     1.829991298140     1.235977455107     1.007825032230
         H           -3.114899652381     0.339185298140     0.950648455107     1.007825032230
         H           -1.424873652381    -3.031230701860     0.545648455107     1.007825032230
         H           -2.713897652381    -1.882751701860     0.147253455107     1.007825032230
         H           -1.666914652381    -2.518794701860    -1.129540544893     1.007825032230
         H            2.512097347619    -2.055950701860    -0.537245544893     1.007825032230
         H            1.628814347619    -2.909120701860     0.740077455107     1.007825032230
         H            1.041094347619    -2.956766701860    -0.927123544893     1.007825032230
         H            2.810967347619     0.900714298140    -1.804795544893     1.007825032230
         H            3.795211347619     2.056227298140    -0.883956544893     1.007825032230
         H            2.061954347619     2.358827298140    -1.129822544893     1.007825032230
         H           -2.101305652381     2.237392298140    -1.252181544893     1.007825032230
         H           -3.784794652381     2.119833298140    -0.699232544893     1.007825032230
         H           -3.023783652381     0.749011298140    -1.531882544893     1.007825032230

  Basis Set: AUG-CC-PVTZ
    Blend: AUG-CC-PVTZ
  Basis Set: (AUG-CC-PVTZ AUX)
    Blend: AUG-CC-PVTZ-JKFIT
	 Reference Energy          =    -463.0003938621516681 [Eh]
	 Singles Energy            =      -0.0000000000000000 [Eh]
	 Same-Spin Energy          =      -0.4950876664479243 [Eh]
	 Opposite-Spin Energy      =      -1.6654527810473407 [Eh]
	 Correlation Energy        =      -2.1605404474952650 [Eh]
	 Total Energy              =    -465.1609343096469047 [Eh]

	 ================> DF-SCS-MP2 Energies <==================
	-----------------------------------------------------------
	 SCS Same-Spin Scale       =       0.3333333333333333 [-]
	 SCS Opposite-Spin Scale   =       1.2000000000000000 [-]
	 SCS Same-Spin Energy      =      -0.1650292221493081 [Eh]
	 SCS Opposite-Spin Energy  =      -1.9985433372568089 [Eh]
	 SCS Correlation Energy    =      -2.1635725594061168 [Eh]
	 SCS Total Energy          =    -465.1639664215578023 [Eh]
	-----------------------------------------------------------

  Dipole Moment: [D]
     X:    -0.0648      Y:    -0.8220      Z:    -0.2498     Total:     0.8615

*** Psi4 exiting successfully. Buy a developer a beer!
