                               Psi4 1.3.2 release

  ==> Input File <==

--------------------------------------------------------------------------
#psi4
#
memory 32 gb

molecule  {
0 1
  O        0.0723890     1.0222580     0.5077940
  C       -0.7418240    -1.0387750     0.1269710
  C        0.6883760    -1.0936210     0.0623120
  C       -1.0741165     0.2498337     0.4717801
  C        1.1400710     0.1773790     0.3033030
  C       -2.3562760     1.0018630     0.5198060
  C        2.4849120     0.8120840     0.3409220
  C       -1.6830070    -2.1819480    -0.0885940
  C        1.5125100    -2.3214750    -0.1762480
  C       -2.9124455     1.5873208    -0.7863596
  C        2.8130920     1.5744450    -0.9510270
  H        3.2336060     0.0303330     0.5193890
  H        2.5305840     1.4962520     1.1974230
  H       -2.2159340     1.8224920     1.2344330
  H       -3.1130010     0.3316860     0.9491040
  H       -1.4229750    -3.0387300     0.5441040
  H       -2.7119990    -1.8902510     0.1457090
  H       -1.6650160    -2.5262940    -1.1310850
  H        2.5139960    -2.0634500    -0.5387900
  H        1.6307130    -2.9166200     0.7385330
  H        1.0429930    -2.9642660    -0.9286680
  H        2.8128660     0.8932150    -1.8063400
  H        3.7971100     2.0487280    -0.8855010
  H        2.0638530     2.3513280    -1.1313670
  H       -2.0994070     2.2298930    -1.2537260
  H       -3.7828960     2.1123340    -0.7007770
  H       -3.0218850     0.7415120    -1.5334270
units angstrom
no_reorient  #important for SAPT in psi4, default
symmetry c1  #important for SAPT in psi4, default
}

set PROPERTIES_ORIGIN ["COM"]
properties('MP2/aug-cc-pvtz', properties = ['dipole'])
--------------------------------------------------------------------------

    Molecular point group: c1
  Charge       = 0
  Multiplicity = 1
  Basis Set: AUG-CC-PVTZ
    Blend: AUG-CC-PVTZ
  Basis Set: (AUG-CC-PVTZ AUX)
    Blend: AUG-CC-PVTZ-JKFIT

    Orbital Energies [Eh]
    ---------------------

    Doubly Occupied:

       1A    -20.598220     2A    -11.271670     3A    -11.270453
       4A    -11.230773     5A    -11.229539     6A    -11.223762
       7A    -11.223478     8A    -11.218955     9A    -11.216794
      10A    -11.216446    11A    -11.215292    12A     -1.427733
      13A     -1.099052    14A     -1.078206    15A     -1.035728
      16A     -0.990867    17A     -0.932609    18A     -0.929277
      19A     -0.872258    20A     -0.815632    21A     -0.748371
      22A     -0.721822    23A     -0.657022    24A     -0.627058
      25A     -0.612141    26A     -0.607134    27A     -0.590266
      28A     -0.581597    29A     -0.568431    30A     -0.556417
      31A     -0.550126    32A     -0.546206    33A     -0.529222
      34A     -0.523747    35A     -0.520172    36A     -0.504178
      37A     -0.493057    38A     -0.488927    39A     -0.475151
      40A     -0.465891    41A     -0.360611    42A     -0.280470

  @DF-RHF Final Energy:  -463.00115129020389

   => Energetics <=

    Nuclear Repulsion Energy =            628.5664292538905329
    One-Electron Energy =               -1874.9256324363573185
    Two-Electron Energy =                 783.3580518922630063
    Total Energy =                       -463.0011512902038930
  Basis Set: (AUG-CC-PVTZ AUX)
    Blend: AUG-CC-PVTZ-RI
    Molecular point group: c1

    Geometry (in Angstrom), charge = 0, multiplicity = 1:

       Center              X                  Y                   Z               Mass
    ------------   -----------------  -----------------  -----------------  -----------------
         O            0.077629726911     1.020917812324     0.498724355857    15.994914619570
         C           -0.736583273089    -1.040115187676     0.117901355857    12.000000000000
         C            0.693616726911    -1.094961187676     0.053242355857    12.000000000000
         C           -1.068875773089     0.248493512324     0.462710455857    12.000000000000
         C            1.145311726911     0.176038812324     0.294233355857    12.000000000000
         C           -2.351035273089     1.000522812324     0.510736355857    12.000000000000
         C            2.490152726911     0.810743812324     0.331852355857    12.000000000000
         C           -1.677766273089    -2.183288187676    -0.097663644143    12.000000000000
         C            1.517750726911    -2.322815187676    -0.185317644143    12.000000000000
         C           -2.907204773089     1.585980612324    -0.795429244143    12.000000000000
         C            2.818332726911     1.573104812324    -0.960096644143    12.000000000000
         H            3.238846726911     0.028992812324     0.510319355857     1.007825032230
         H            2.535824726911     1.494911812324     1.188353355857     1.007825032230
         H           -2.210693273089     1.821151812324     1.225363355857     1.007825032230
         H           -3.107760273089     0.330345812324     0.940034355857     1.007825032230
         H           -1.417734273089    -3.040070187676     0.535034355857     1.007825032230
         H           -2.706758273089    -1.891591187676     0.136639355857     1.007825032230
         H           -1.659775273089    -2.527634187676    -1.140154644143     1.007825032230
         H            2.519236726911    -2.064790187676    -0.547859644143     1.007825032230
         H            1.635953726911    -2.917960187676     0.729463355857     1.007825032230
         H            1.048233726911    -2.965606187676    -0.937737644143     1.007825032230
         H            2.818106726911     0.891874812324    -1.815409644143     1.007825032230
         H            3.802350726911     2.047387812324    -0.894570644143     1.007825032230
         H            2.069093726911     2.349987812324    -1.140436644143     1.007825032230
         H           -2.094166273089     2.228552812324    -1.262795644143     1.007825032230
         H           -3.777655273089     2.110993812324    -0.709846644143     1.007825032230
         H           -3.016644273089     0.740171812324    -1.542496644143     1.007825032230

  Basis Set: AUG-CC-PVTZ
    Blend: AUG-CC-PVTZ
  Basis Set: (AUG-CC-PVTZ AUX)
    Blend: AUG-CC-PVTZ-JKFIT
	 Reference Energy          =    -463.0011512902038930 [Eh]
	 Singles Energy            =      -0.0000000000000000 [Eh]
	 Same-Spin Energy          =      -0.4974431972106795 [Eh]
	 Opposite-Spin Energy      =      -1.6679702733708071 [Eh]
	 Correlation Energy        =      -2.1654134705814867 [Eh]
	 Total Energy              =    -465.1665647607853771 [Eh]

	 ================> DF-SCS-MP2 Energies <==================
	-----------------------------------------------------------
	 SCS Same-Spin Scale       =       0.3333333333333333 [-]
	 SCS Opposite-Spin Scale   =       1.2000000000000000 [-]
	 SCS Same-Spin Energy      =      -0.1658143990702265 [Eh]
	 SCS Opposite-Spin Energy  =      -2.0015643280449682 [Eh]
	 SCS Correlation Energy    =      -2.1673787271151945 [Eh]
	 SCS Total Energy          =    -465.1685300173190853 [Eh]
	-----------------------------------------------------------

  Dipole Moment: [D]
     X:     0.0225      Y:    -0.6847      Z:    -0.2500     Total:     0.7292

*** Psi4 exiting successfully. Buy a developer a beer!
