                               Psi4 1.3.2 release

  ==> Input File <==

--------------------------------------------------------------------------
#psi4
#
memory 32 gb

molecule  {
0 1
  O        0.0723890     1.0222580     0.5077940
  C       -0.7418240    -1.0387750     0.1269710
  C        0.6888995    -1.0813597     0.0647006
  C       -1.0598802     0.2661038     0.3952521
  C        1.1400710     0.1773790     0.3033030
  C       -2.3562760     1.0018630     0.5198060
  C        2.4849120     0.8120840     0.3409220
  C       -1.6830070    -2.1819480    -0.0885940
  C        1.5125100    -2.3214750    -0.1762480
  C       -2.8486430     1.5569180    -0.8246800
  C        2.8130920     1.5744450    -0.9510270
  H        3.2336060     0.0303330     0.5193890
  H        2.5305840     1.4962520     1.1974230
  H       -2.2159340     1.8224920     1.2344330
  H       -3.1130010     0.3316860     0.9491040
  H       -1.4229750    -3.0387300     0.5441040
  H       -2.7119990    -1.8902510     0.1457090
  H       -1.6650160    -2.5262940    -1.1310850
  H        2.5139960    -2.0634500    -0.5387900
  H        1.6307130    -2.9166200     0.7385330
  H        1.0429930    -2.9642660    -0.9286680
  H        2.8128660     0.8932150    -1.8063400
  H        3.7971100     2.0487280    -0.8855010
  H        2.0638530     2.3513280    -1.1313670
  H       -2.0994070     2.2298930    -1.2537260
  H       -3.7828960     2.1123340    -0.7007770
  H       -3.0218850     0.7415120    -1.5334270
units angstrom
no_reorient  #important for SAPT in psi4, default
symmetry c1  #important for SAPT in psi4, default
}

set PROPERTIES_ORIGIN ["COM"]
properties('MP2/aug-cc-pvtz', properties = ['dipole'])
--------------------------------------------------------------------------

    Molecular point group: c1
  Charge       = 0
  Multiplicity = 1
  Basis Set: AUG-CC-PVTZ
    Blend: AUG-CC-PVTZ
  Basis Set: (AUG-CC-PVTZ AUX)
    Blend: AUG-CC-PVTZ-JKFIT

    Orbital Energies [Eh]
    ---------------------

    Doubly Occupied:

       1A    -20.599454     2A    -11.269923     3A    -11.267232
       4A    -11.230236     5A    -11.229894     6A    -11.223498
       7A    -11.223258     8A    -11.215438     9A    -11.215395
      10A    -11.214587    11A    -11.214057    12A     -1.434479
      13A     -1.099067    14A     -1.078535    15A     -1.035542
      16A     -0.989228    17A     -0.933150    18A     -0.928110
      19A     -0.869488    20A     -0.816037    21A     -0.751859
      22A     -0.721369    23A     -0.658977    24A     -0.629105
      25A     -0.610617    26A     -0.609062    27A     -0.587115
      28A     -0.583118    29A     -0.567691    30A     -0.555416
      31A     -0.548942    32A     -0.533644    33A     -0.528291
      34A     -0.524110    35A     -0.521076    36A     -0.505487
      37A     -0.495115    38A     -0.492034    39A     -0.484024
      40A     -0.466194    41A     -0.361765    42A     -0.280325

  @DF-RHF Final Energy:  -463.01295667590665

   => Energetics <=

    Nuclear Repulsion Energy =            629.8723674397642753
    One-Electron Energy =               -1877.5667615320874120
    Two-Electron Energy =                 784.6814374164165429
    Total Energy =                       -463.0129566759065938
  Basis Set: (AUG-CC-PVTZ AUX)
    Blend: AUG-CC-PVTZ-RI
    Molecular point group: c1

    Geometry (in Angstrom), charge = 0, multiplicity = 1:

       Center              X                  Y                   Z               Mass
    ------------   -----------------  -----------------  -----------------  -----------------
         O            0.071432337439     1.021065437771     0.507595750668    15.994914619570
         C           -0.742780662561    -1.039967562229     0.126772750668    12.000000000000
         C            0.687942837439    -1.082552262229     0.064502350668    12.000000000000
         C           -1.060836862561     0.264911237771     0.395053850668    12.000000000000
         C            1.139114337439     0.176186437771     0.303104750668    12.000000000000
         C           -2.357232662561     1.000670437771     0.519607750668    12.000000000000
         C            2.483955337439     0.810891437771     0.340723750668    12.000000000000
         C           -1.683963662561    -2.183140562229    -0.088792249332    12.000000000000
         C            1.511553337439    -2.322667562229    -0.176446249332    12.000000000000
         C           -2.849599662561     1.555725437771    -0.824878249332    12.000000000000
         C            2.812135337439     1.573252437771    -0.951225249332    12.000000000000
         H            3.232649337439     0.029140437771     0.519190750668     1.007825032230
         H            2.529627337439     1.495059437771     1.197224750668     1.007825032230
         H           -2.216890662561     1.821299437771     1.234234750668     1.007825032230
         H           -3.113957662561     0.330493437771     0.948905750668     1.007825032230
         H           -1.423931662561    -3.039922562229     0.543905750668     1.007825032230
         H           -2.712955662561    -1.891443562229     0.145510750668     1.007825032230
         H           -1.665972662561    -2.527486562229    -1.131283249332     1.007825032230
         H            2.513039337439    -2.064642562229    -0.538988249332     1.007825032230
         H            1.629756337439    -2.917812562229     0.738334750668     1.007825032230
         H            1.042036337439    -2.965458562229    -0.928866249332     1.007825032230
         H            2.811909337439     0.892022437771    -1.806538249332     1.007825032230
         H            3.796153337439     2.047535437771    -0.885699249332     1.007825032230
         H            2.062896337439     2.350135437771    -1.131565249332     1.007825032230
         H           -2.100363662561     2.228700437771    -1.253924249332     1.007825032230
         H           -3.783852662561     2.111141437771    -0.700975249332     1.007825032230
         H           -3.022841662561     0.740319437771    -1.533625249332     1.007825032230

  Basis Set: AUG-CC-PVTZ
    Blend: AUG-CC-PVTZ
  Basis Set: (AUG-CC-PVTZ AUX)
    Blend: AUG-CC-PVTZ-JKFIT
	 Reference Energy          =    -463.0129566759066506 [Eh]
	 Singles Energy            =      -0.0000000000000000 [Eh]
	 Same-Spin Energy          =      -0.4966700192871195 [Eh]
	 Opposite-Spin Energy      =      -1.6663667862690559 [Eh]
	 Correlation Energy        =      -2.1630368055561755 [Eh]
	 Total Energy              =    -465.1759934814628537 [Eh]

	 ================> DF-SCS-MP2 Energies <==================
	-----------------------------------------------------------
	 SCS Same-Spin Scale       =       0.3333333333333333 [-]
	 SCS Opposite-Spin Scale   =       1.2000000000000000 [-]
	 SCS Same-Spin Energy      =      -0.1655566730957065 [Eh]
	 SCS Opposite-Spin Energy  =      -1.9996401435228670 [Eh]
	 SCS Correlation Energy    =      -2.1651968166185735 [Eh]
	 SCS Total Energy          =    -465.1781534925252117 [Eh]
	-----------------------------------------------------------

  Dipole Moment: [D]
     X:    -0.0172      Y:    -0.6484      Z:    -0.2146     Total:     0.6832

*** Psi4 exiting successfully. Buy a developer a beer!
