                               Psi4 1.3.2 release

  ==> Input File <==

--------------------------------------------------------------------------
#psi4
#
memory 32 gb

molecule  {
0 1
  O        0.0723890     1.0222580     0.5077940
  C       -0.7418240    -1.0387750     0.1269710
  C        0.8880255    -1.1012773     0.0532859
  C       -1.0714850     0.2632460     0.3951280
  C        1.1400710     0.1773790     0.3033030
  C       -2.3562760     1.0018630     0.5198060
  C        2.4849120     0.8120840     0.3409220
  C       -1.6830070    -2.1819480    -0.0885940
  C        1.5125100    -2.3214750    -0.1762480
  C       -2.8486430     1.5569180    -0.8246800
  C        2.8130920     1.5744450    -0.9510270
  H        3.2336060     0.0303330     0.5193890
  H        2.5305840     1.4962520     1.1974230
  H       -2.2159340     1.8224920     1.2344330
  H       -3.1130010     0.3316860     0.9491040
  H       -1.4229750    -3.0387300     0.5441040
  H       -2.7119990    -1.8902510     0.1457090
  H       -1.6650160    -2.5262940    -1.1310850
  H        2.5139960    -2.0634500    -0.5387900
  H        1.6307130    -2.9166200     0.7385330
  H        1.0429930    -2.9642660    -0.9286680
  H        2.8128660     0.8932150    -1.8063400
  H        3.7971100     2.0487280    -0.8855010
  H        2.0638530     2.3513280    -1.1313670
  H       -2.0994070     2.2298930    -1.2537260
  H       -3.7828960     2.1123340    -0.7007770
  H       -3.0218850     0.7415120    -1.5334270
units angstrom
no_reorient  #important for SAPT in psi4, default
symmetry c1  #important for SAPT in psi4, default
}

set PROPERTIES_ORIGIN ["COM"]
properties('MP2/aug-cc-pvtz', properties = ['dipole'])
--------------------------------------------------------------------------

    Molecular point group: c1
  Charge       = 0
  Multiplicity = 1
  Basis Set: AUG-CC-PVTZ
    Blend: AUG-CC-PVTZ
  Basis Set: (AUG-CC-PVTZ AUX)
    Blend: AUG-CC-PVTZ-JKFIT

    Orbital Energies [Eh]
    ---------------------

    Doubly Occupied:

       1A    -20.595560     2A    -11.272075     3A    -11.270707
       4A    -11.230797     5A    -11.224925     6A    -11.223656
       7A    -11.222418     8A    -11.221959     9A    -11.221294
      10A    -11.215857    11A    -11.213198    12A     -1.426937
      13A     -1.098524    14A     -1.078143    15A     -1.033923
      16A     -1.001573    17A     -0.940421    18A     -0.924475
      19A     -0.865432    20A     -0.817229    21A     -0.758231
      22A     -0.696288    23A     -0.658649    24A     -0.629090
      25A     -0.613601    26A     -0.611040    27A     -0.589201
      28A     -0.585437    29A     -0.574730    30A     -0.570380
      31A     -0.558144    32A     -0.547396    33A     -0.529821
      34A     -0.522633    35A     -0.515338    36A     -0.505059
      37A     -0.493588    38A     -0.492253    39A     -0.483921
      40A     -0.420882    41A     -0.344032    42A     -0.295110

  @DF-RHF Final Energy:  -462.97860465368035

   => Energetics <=

    Nuclear Repulsion Energy =            628.2729103259620160
    One-Electron Energy =               -1874.3151703437672495
    Two-Electron Energy =                 783.0636553641249975
    Total Energy =                       -462.9786046536803497
  Basis Set: (AUG-CC-PVTZ AUX)
    Blend: AUG-CC-PVTZ-RI
    Molecular point group: c1

    Geometry (in Angstrom), charge = 0, multiplicity = 1:

       Center              X                  Y                   Z               Mass
    ------------   -----------------  -----------------  -----------------  -----------------
         O            0.056639721762     1.022862075906     0.508505989264    15.994914619570
         C           -0.757573278238    -1.038170924094     0.127682989264    12.000000000000
         C            0.872276221762    -1.100673224094     0.053997889264    12.000000000000
         C           -1.087234278238     0.263850075906     0.395839989264    12.000000000000
         C            1.124321721762     0.177983075906     0.304014989264    12.000000000000
         C           -2.372025278238     1.002467075906     0.520517989264    12.000000000000
         C            2.469162721762     0.812688075906     0.341633989264    12.000000000000
         C           -1.698756278238    -2.181343924094    -0.087882010736    12.000000000000
         C            1.496760721762    -2.320870924094    -0.175536010736    12.000000000000
         C           -2.864392278238     1.557522075906    -0.823968010736    12.000000000000
         C            2.797342721762     1.575049075906    -0.950315010736    12.000000000000
         H            3.217856721762     0.030937075906     0.520100989264     1.007825032230
         H            2.514834721762     1.496856075906     1.198134989264     1.007825032230
         H           -2.231683278238     1.823096075906     1.235144989264     1.007825032230
         H           -3.128750278238     0.332290075906     0.949815989264     1.007825032230
         H           -1.438724278238    -3.038125924094     0.544815989264     1.007825032230
         H           -2.727748278238    -1.889646924094     0.146420989264     1.007825032230
         H           -1.680765278238    -2.525689924094    -1.130373010736     1.007825032230
         H            2.498246721762    -2.062845924094    -0.538078010736     1.007825032230
         H            1.614963721762    -2.916015924094     0.739244989264     1.007825032230
         H            1.027243721762    -2.963661924094    -0.927956010736     1.007825032230
         H            2.797116721762     0.893819075906    -1.805628010736     1.007825032230
         H            3.781360721762     2.049332075906    -0.884789010736     1.007825032230
         H            2.048103721762     2.351932075906    -1.130655010736     1.007825032230
         H           -2.115156278238     2.230497075906    -1.253014010736     1.007825032230
         H           -3.798645278238     2.112938075906    -0.700065010736     1.007825032230
         H           -3.037634278238     0.742116075906    -1.532715010736     1.007825032230

  Basis Set: AUG-CC-PVTZ
    Blend: AUG-CC-PVTZ
  Basis Set: (AUG-CC-PVTZ AUX)
    Blend: AUG-CC-PVTZ-JKFIT
	 Reference Energy          =    -462.9786046536803497 [Eh]
	 Singles Energy            =      -0.0000000000000000 [Eh]
	 Same-Spin Energy          =      -0.4958537107735477 [Eh]
	 Opposite-Spin Energy      =      -1.6670766314493315 [Eh]
	 Correlation Energy        =      -2.1629303422228792 [Eh]
	 Total Energy              =    -465.1415349959032142 [Eh]

	 ================> DF-SCS-MP2 Energies <==================
	-----------------------------------------------------------
	 SCS Same-Spin Scale       =       0.3333333333333333 [-]
	 SCS Opposite-Spin Scale   =       1.2000000000000000 [-]
	 SCS Same-Spin Energy      =      -0.1652845702578492 [Eh]
	 SCS Opposite-Spin Energy  =      -2.0004919577391975 [Eh]
	 SCS Correlation Energy    =      -2.1657765279970467 [Eh]
	 SCS Total Energy          =    -465.1443811816773746 [Eh]
	-----------------------------------------------------------

  Dipole Moment: [D]
     X:    -0.0484      Y:    -0.8100      Z:    -0.2426     Total:     0.8470

*** Psi4 exiting successfully. Buy a developer a beer!
