                               Psi4 1.3.2 release

  ==> Input File <==

--------------------------------------------------------------------------
#psi4
#
memory 32 gb

molecule  {
0 1
  O        0.0723890     1.0222580     0.5077940
  C       -0.7418240    -1.0387750     0.1269710
  C        0.6883760    -1.0936210     0.0623120
  C       -1.0941754     0.2313579     0.3610250
  C        1.1400710     0.1773790     0.3033030
  C       -2.3562760     1.0018630     0.5198060
  C        2.4849120     0.8120840     0.3409220
  C       -1.6830070    -2.1819480    -0.0885940
  C        1.5125100    -2.3214750    -0.1762480
  C       -2.8486430     1.5569180    -0.8246800
  C        2.8130920     1.5744450    -0.9510270
  H        3.2336060     0.0303330     0.5193890
  H        2.5305840     1.4962520     1.1974230
  H       -2.2525092     1.8325091     1.2290867
  H       -3.1130010     0.3316860     0.9491040
  H       -1.4229750    -3.0387300     0.5441040
  H       -2.7119990    -1.8902510     0.1457090
  H       -1.6650160    -2.5262940    -1.1310850
  H        2.5139960    -2.0634500    -0.5387900
  H        1.6307130    -2.9166200     0.7385330
  H        1.0429930    -2.9642660    -0.9286680
  H        2.8128660     0.8932150    -1.8063400
  H        3.7971100     2.0487280    -0.8855010
  H        2.0638530     2.3513280    -1.1313670
  H       -2.0994070     2.2298930    -1.2537260
  H       -3.7828960     2.1123340    -0.7007770
  H       -3.0218850     0.7415120    -1.5334270
units angstrom
no_reorient  #important for SAPT in psi4, default
symmetry c1  #important for SAPT in psi4, default
}

set PROPERTIES_ORIGIN ["COM"]
properties('MP2/aug-cc-pvtz', properties = ['dipole'])
--------------------------------------------------------------------------

    Molecular point group: c1
  Charge       = 0
  Multiplicity = 1
  Basis Set: AUG-CC-PVTZ
    Blend: AUG-CC-PVTZ
  Basis Set: (AUG-CC-PVTZ AUX)
    Blend: AUG-CC-PVTZ-JKFIT

    Orbital Energies [Eh]
    ---------------------

    Doubly Occupied:

       1A    -20.592227     2A    -11.270954     3A    -11.267558
       4A    -11.230665     5A    -11.229954     6A    -11.224073
       7A    -11.222671     8A    -11.215764     9A    -11.214868
      10A    -11.214732    11A    -11.214513    12A     -1.414930
      13A     -1.102143    14A     -1.078166    15A     -1.036390
      16A     -0.992056    17A     -0.933884    18A     -0.924642
      19A     -0.869408    20A     -0.817158    21A     -0.743611
      22A     -0.722724    23A     -0.655656    24A     -0.623670
      25A     -0.612710    26A     -0.608309    27A     -0.585771
      28A     -0.584113    29A     -0.566230    30A     -0.556260
      31A     -0.549946    32A     -0.532994    33A     -0.526576
      34A     -0.521917    35A     -0.518288    36A     -0.504453
      37A     -0.495561    38A     -0.493835    39A     -0.480346
      40A     -0.471425    41A     -0.364043    42A     -0.282831

  @DF-RHF Final Energy:  -463.00931319817931

   => Energetics <=

    Nuclear Repulsion Energy =            629.4326062150191774
    One-Electron Energy =               -1876.7477926901465253
    Two-Electron Energy =                 784.3058732769480912
    Total Energy =                       -463.0093131981792567
  Basis Set: (AUG-CC-PVTZ AUX)
    Blend: AUG-CC-PVTZ-RI
    Molecular point group: c1

    Geometry (in Angstrom), charge = 0, multiplicity = 1:

       Center              X                  Y                   Z               Mass
    ------------   -----------------  -----------------  -----------------  -----------------
         O            0.074421329406     1.024707236986     0.510519601564    15.994914619570
         C           -0.739791670594    -1.036325763014     0.129696601564    12.000000000000
         C            0.690408329406    -1.091171763014     0.065037601564    12.000000000000
         C           -1.092143070594     0.233807136986     0.363750601564    12.000000000000
         C            1.142103329406     0.179828236986     0.306028601564    12.000000000000
         C           -2.354243670594     1.004312236986     0.522531601564    12.000000000000
         C            2.486944329406     0.814533236986     0.343647601564    12.000000000000
         C           -1.680974670594    -2.179498763014    -0.085868398436    12.000000000000
         C            1.514542329406    -2.319025763014    -0.173522398436    12.000000000000
         C           -2.846610670594     1.559367236986    -0.821954398436    12.000000000000
         C            2.815124329406     1.576894236986    -0.948301398436    12.000000000000
         H            3.235638329406     0.032782236986     0.522114601564     1.007825032230
         H            2.532616329406     1.498701236986     1.200148601564     1.007825032230
         H           -2.250476870594     1.834958336986     1.231812301564     1.007825032230
         H           -3.110968670594     0.334135236986     0.951829601564     1.007825032230
         H           -1.420942670594    -3.036280763014     0.546829601564     1.007825032230
         H           -2.709966670594    -1.887801763014     0.148434601564     1.007825032230
         H           -1.662983670594    -2.523844763014    -1.128359398436     1.007825032230
         H            2.516028329406    -2.061000763014    -0.536064398436     1.007825032230
         H            1.632745329406    -2.914170763014     0.741258601564     1.007825032230
         H            1.045025329406    -2.961816763014    -0.925942398436     1.007825032230
         H            2.814898329406     0.895664236986    -1.803614398436     1.007825032230
         H            3.799142329406     2.051177236986    -0.882775398436     1.007825032230
         H            2.065885329406     2.353777236986    -1.128641398436     1.007825032230
         H           -2.097374670594     2.232342236986    -1.251000398436     1.007825032230
         H           -3.780863670594     2.114783236986    -0.698051398436     1.007825032230
         H           -3.019852670594     0.743961236986    -1.530701398436     1.007825032230

  Basis Set: AUG-CC-PVTZ
    Blend: AUG-CC-PVTZ
  Basis Set: (AUG-CC-PVTZ AUX)
    Blend: AUG-CC-PVTZ-JKFIT
	 Reference Energy          =    -463.0093131981793135 [Eh]
	 Singles Energy            =      -0.0000000000000000 [Eh]
	 Same-Spin Energy          =      -0.4967166226170944 [Eh]
	 Opposite-Spin Energy      =      -1.6673015410687400 [Eh]
	 Correlation Energy        =      -2.1640181636858342 [Eh]
	 Total Energy              =    -465.1733313618651664 [Eh]

	 ================> DF-SCS-MP2 Energies <==================
	-----------------------------------------------------------
	 SCS Same-Spin Scale       =       0.3333333333333333 [-]
	 SCS Opposite-Spin Scale   =       1.2000000000000000 [-]
	 SCS Same-Spin Energy      =      -0.1655722075390315 [Eh]
	 SCS Opposite-Spin Energy  =      -2.0007618492824877 [Eh]
	 SCS Correlation Energy    =      -2.1663340568215190 [Eh]
	 SCS Total Energy          =    -465.1756472550008539 [Eh]
	-----------------------------------------------------------

  Dipole Moment: [D]
     X:    -0.0959      Y:    -0.7101      Z:    -0.2145     Total:     0.7480

*** Psi4 exiting successfully. Buy a developer a beer!
