                               Psi4 1.3.2 release

  ==> Input File <==

--------------------------------------------------------------------------
#psi4
#
memory 32 gb

molecule  {
0 1
  O        0.0306650     1.0803133     0.5172220
  C       -0.7418240    -1.0387750     0.1269710
  C        0.6883760    -1.0936210     0.0623120
  C       -1.0714850     0.2632460     0.3951280
  C        1.1400710     0.1773790     0.3033030
  C       -2.3153151     1.0673079     0.5298822
  C        2.4849120     0.8120840     0.3409220
  C       -1.6830070    -2.1819480    -0.0885940
  C        1.5125100    -2.3214750    -0.1762480
  C       -2.8486430     1.5569180    -0.8246800
  C        2.8130920     1.5744450    -0.9510270
  H        3.2336060     0.0303330     0.5193890
  H        2.5305840     1.4962520     1.1974230
  H       -2.2159340     1.8224920     1.2344330
  H       -3.1130010     0.3316860     0.9491040
  H       -1.4229750    -3.0387300     0.5441040
  H       -2.7119990    -1.8902510     0.1457090
  H       -1.6650160    -2.5262940    -1.1310850
  H        2.5139960    -2.0634500    -0.5387900
  H        1.6307130    -2.9166200     0.7385330
  H        1.0429930    -2.9642660    -0.9286680
  H        2.8128660     0.8932150    -1.8063400
  H        3.7971100     2.0487280    -0.8855010
  H        2.0638530     2.3513280    -1.1313670
  H       -2.0994070     2.2298930    -1.2537260
  H       -3.7828960     2.1123340    -0.7007770
  H       -3.0218850     0.7415120    -1.5334270
units angstrom
no_reorient  #important for SAPT in psi4, default
symmetry c1  #important for SAPT in psi4, default
}

set PROPERTIES_ORIGIN ["COM"]
properties('MP2/aug-cc-pvtz', properties = ['dipole'])
--------------------------------------------------------------------------

    Molecular point group: c1
  Charge       = 0
  Multiplicity = 1
  Basis Set: AUG-CC-PVTZ
    Blend: AUG-CC-PVTZ
  Basis Set: (AUG-CC-PVTZ AUX)
    Blend: AUG-CC-PVTZ-JKFIT

    Orbital Energies [Eh]
    ---------------------

    Doubly Occupied:

       1A    -20.596258     2A    -11.273178     3A    -11.272684
       4A    -11.230333     5A    -11.228383     6A    -11.227203
       7A    -11.224139     8A    -11.223991     9A    -11.217015
      10A    -11.215213    11A    -11.214081    12A     -1.408822
      13A     -1.103341    14A     -1.075622    15A     -1.035234
      16A     -0.991923    17A     -0.936121    18A     -0.922070
      19A     -0.869354    20A     -0.814175    21A     -0.738052
      22A     -0.725812    23A     -0.653460    24A     -0.621751
      25A     -0.613684    26A     -0.606798    27A     -0.587120
      28A     -0.579188    29A     -0.567667    30A     -0.557369
      31A     -0.550974    32A     -0.534138    33A     -0.528821
      34A     -0.525864    35A     -0.522479    36A     -0.507880
      37A     -0.493813    38A     -0.492057    39A     -0.473216
      40A     -0.466650    41A     -0.366490    42A     -0.279035

  @DF-RHF Final Energy:  -462.99623229423537

   => Energetics <=

    Nuclear Repulsion Energy =            628.0025909683365626
    One-Electron Energy =               -1873.8547412040370546
    Two-Electron Energy =                 782.8559179414651226
    Total Energy =                       -462.9962322942353694
  Basis Set: (AUG-CC-PVTZ AUX)
    Blend: AUG-CC-PVTZ-RI
    Molecular point group: c1

    Geometry (in Angstrom), charge = 0, multiplicity = 1:

       Center              X                  Y                   Z               Mass
    ------------   -----------------  -----------------  -----------------  -----------------
         O            0.031821014105     1.069046467413     0.515435781484    15.994914619570
         C           -0.740667985895    -1.050041832587     0.125184781484    12.000000000000
         C            0.689532014105    -1.104887832587     0.060525781484    12.000000000000
         C           -1.070328985895     0.251979167413     0.393341781484    12.000000000000
         C            1.141227014105     0.166112167413     0.301516781484    12.000000000000
         C           -2.314159085895     1.056041067413     0.528095981484    12.000000000000
         C            2.486068014105     0.800817167413     0.339135781484    12.000000000000
         C           -1.681850985895    -2.193214832587    -0.090380218516    12.000000000000
         C            1.513666014105    -2.332741832587    -0.178034218516    12.000000000000
         C           -2.847486985895     1.545651167413    -0.826466218516    12.000000000000
         C            2.814248014105     1.563178167413    -0.952813218516    12.000000000000
         H            3.234762014105     0.019066167413     0.517602781484     1.007825032230
         H            2.531740014105     1.484985167413     1.195636781484     1.007825032230
         H           -2.214777985895     1.811225167413     1.232646781484     1.007825032230
         H           -3.111844985895     0.320419167413     0.947317781484     1.007825032230
         H           -1.421818985895    -3.049996832587     0.542317781484     1.007825032230
         H           -2.710842985895    -1.901517832587     0.143922781484     1.007825032230
         H           -1.663859985895    -2.537560832587    -1.132871218516     1.007825032230
         H            2.515152014105    -2.074716832587    -0.540576218516     1.007825032230
         H            1.631869014105    -2.927886832587     0.736746781484     1.007825032230
         H            1.044149014105    -2.975532832587    -0.930454218516     1.007825032230
         H            2.814022014105     0.881948167413    -1.808126218516     1.007825032230
         H            3.798266014105     2.037461167413    -0.887287218516     1.007825032230
         H            2.065009014105     2.340061167413    -1.133153218516     1.007825032230
         H           -2.098250985895     2.218626167413    -1.255512218516     1.007825032230
         H           -3.781739985895     2.101067167413    -0.702563218516     1.007825032230
         H           -3.020728985895     0.730245167413    -1.535213218516     1.007825032230

  Basis Set: AUG-CC-PVTZ
    Blend: AUG-CC-PVTZ
  Basis Set: (AUG-CC-PVTZ AUX)
    Blend: AUG-CC-PVTZ-JKFIT
	 Reference Energy          =    -462.9962322942353694 [Eh]
	 Singles Energy            =      -0.0000000000000000 [Eh]
	 Same-Spin Energy          =      -0.4976309530597193 [Eh]
	 Opposite-Spin Energy      =      -1.6701156353839994 [Eh]
	 Correlation Energy        =      -2.1677465884437188 [Eh]
	 Total Energy              =    -465.1639788826790891 [Eh]

	 ================> DF-SCS-MP2 Energies <==================
	-----------------------------------------------------------
	 SCS Same-Spin Scale       =       0.3333333333333333 [-]
	 SCS Opposite-Spin Scale   =       1.2000000000000000 [-]
	 SCS Same-Spin Energy      =      -0.1658769843532397 [Eh]
	 SCS Opposite-Spin Energy  =      -2.0041387624607991 [Eh]
	 SCS Correlation Energy    =      -2.1700157468140389 [Eh]
	 SCS Total Energy          =    -465.1662480410494140 [Eh]
	-----------------------------------------------------------

  Dipole Moment: [D]
     X:     0.1373      Y:    -0.8506      Z:    -0.2651     Total:     0.9015

*** Psi4 exiting successfully. Buy a developer a beer!
