                               Psi4 1.3.2 release

  ==> Input File <==

--------------------------------------------------------------------------
#psi4
#
memory 32 gb

molecule  {
0 1
  O        0.0723890     1.0222580     0.5077940
  C       -0.7418240    -1.0387750     0.1269710
  C        0.6883760    -1.0936210     0.0623120
  C       -1.0714850     0.2632460     0.3951280
  C        1.1400710     0.1773790     0.3033030
  C       -2.3562760     1.0018630     0.5198060
  C        2.4849120     0.8120840     0.3409220
  C       -1.6830070    -2.1819480    -0.0885940
  C        1.5125100    -2.3214750    -0.1762480
  C       -2.8486430     1.5569180    -0.8246800
  C        2.8560620     1.5430700    -0.9575139
  H        3.2514645     0.0410375     0.4872518
  H        2.5305840     1.4962520     1.1974230
  H       -2.2159340     1.8224920     1.2344330
  H       -3.1130010     0.3316860     0.9491040
  H       -1.4229750    -3.0387300     0.5441040
  H       -2.7119990    -1.8902510     0.1457090
  H       -1.6650160    -2.5262940    -1.1310850
  H        2.5139960    -2.0634500    -0.5387900
  H        1.6307130    -2.9166200     0.7385330
  H        1.0429930    -2.9642660    -0.9286680
  H        2.8128660     0.8932150    -1.8063400
  H        3.7971100     2.0487280    -0.8855010
  H        2.0638530     2.3513280    -1.1313670
  H       -2.0994070     2.2298930    -1.2537260
  H       -3.7828960     2.1123340    -0.7007770
  H       -3.0218850     0.7415120    -1.5334270
units angstrom
no_reorient  #important for SAPT in psi4, default
symmetry c1  #important for SAPT in psi4, default
}

set PROPERTIES_ORIGIN ["COM"]
properties('MP2/aug-cc-pvtz', properties = ['dipole'])
--------------------------------------------------------------------------

    Molecular point group: c1
  Charge       = 0
  Multiplicity = 1
  Basis Set: AUG-CC-PVTZ
    Blend: AUG-CC-PVTZ
  Basis Set: (AUG-CC-PVTZ AUX)
    Blend: AUG-CC-PVTZ-JKFIT

    Orbital Energies [Eh]
    ---------------------

    Doubly Occupied:

       1A    -20.598959     2A    -11.270036     3A    -11.269972
       4A    -11.230237     5A    -11.230119     6A    -11.223341
       7A    -11.223024     8A    -11.216633     9A    -11.215504
      10A    -11.215409    11A    -11.214556    12A     -1.429931
      13A     -1.098999    14A     -1.078815    15A     -1.036363
      16A     -0.990308    17A     -0.932509    18A     -0.928149
      19A     -0.869954    20A     -0.815299    21A     -0.749483
      22A     -0.722061    23A     -0.658513    24A     -0.627722
      25A     -0.612792    26A     -0.609610    27A     -0.587252
      28A     -0.583035    29A     -0.567997    30A     -0.555891
      31A     -0.549818    32A     -0.537298    33A     -0.527524
      34A     -0.524151    35A     -0.522649    36A     -0.506072
      37A     -0.495941    38A     -0.491445    39A     -0.475582
      40A     -0.467711    41A     -0.360839    42A     -0.279352

  @DF-RHF Final Energy:  -463.00860450554711

   => Energetics <=

    Nuclear Repulsion Energy =            629.3286831731935536
    One-Electron Energy =               -1876.4728648574682666
    Two-Electron Energy =                 784.1355771787277718
    Total Energy =                       -463.0086045055470549
  Basis Set: (AUG-CC-PVTZ AUX)
    Blend: AUG-CC-PVTZ-RI
    Molecular point group: c1

    Geometry (in Angstrom), charge = 0, multiplicity = 1:

       Center              X                  Y                   Z               Mass
    ------------   -----------------  -----------------  -----------------  -----------------
         O            0.068881072980     1.024662206919     0.508518599526    15.994914619570
         C           -0.745331927020    -1.036370793081     0.127695599526    12.000000000000
         C            0.684868072980    -1.091216793081     0.063036599526    12.000000000000
         C           -1.074992927020     0.265650206919     0.395852599526    12.000000000000
         C            1.136563072980     0.179783206919     0.304027599526    12.000000000000
         C           -2.359783927020     1.004267206919     0.520530599526    12.000000000000
         C            2.481404072980     0.814488206919     0.341646599526    12.000000000000
         C           -1.686514927020    -2.179543793081    -0.087869400474    12.000000000000
         C            1.509002072980    -2.319070793081    -0.175523400474    12.000000000000
         C           -2.852150927020     1.559322206919    -0.823955400474    12.000000000000
         C            2.852554072980     1.545474206919    -0.956789300474    12.000000000000
         H            3.247956572980     0.043441706919     0.487976399526     1.007825032230
         H            2.527076072980     1.498656206919     1.198147599526     1.007825032230
         H           -2.219441927020     1.824896206919     1.235157599526     1.007825032230
         H           -3.116508927020     0.334090206919     0.949828599526     1.007825032230
         H           -1.426482927020    -3.036325793081     0.544828599526     1.007825032230
         H           -2.715506927020    -1.887846793081     0.146433599526     1.007825032230
         H           -1.668523927020    -2.523889793081    -1.130360400474     1.007825032230
         H            2.510488072980    -2.061045793081    -0.538065400474     1.007825032230
         H            1.627205072980    -2.914215793081     0.739257599526     1.007825032230
         H            1.039485072980    -2.961861793081    -0.927943400474     1.007825032230
         H            2.809358072980     0.895619206919    -1.805615400474     1.007825032230
         H            3.793602072980     2.051132206919    -0.884776400474     1.007825032230
         H            2.060345072980     2.353732206919    -1.130642400474     1.007825032230
         H           -2.102914927020     2.232297206919    -1.253001400474     1.007825032230
         H           -3.786403927020     2.114738206919    -0.700052400474     1.007825032230
         H           -3.025392927020     0.743916206919    -1.532702400474     1.007825032230

  Basis Set: AUG-CC-PVTZ
    Blend: AUG-CC-PVTZ
  Basis Set: (AUG-CC-PVTZ AUX)
    Blend: AUG-CC-PVTZ-JKFIT
	 Reference Energy          =    -463.0086045055471118 [Eh]
	 Singles Energy            =      -0.0000000000000000 [Eh]
	 Same-Spin Energy          =      -0.4971505453175865 [Eh]
	 Opposite-Spin Energy      =      -1.6672798060986507 [Eh]
	 Correlation Energy        =      -2.1644303514162373 [Eh]
	 Total Energy              =    -465.1730348569633406 [Eh]

	 ================> DF-SCS-MP2 Energies <==================
	-----------------------------------------------------------
	 SCS Same-Spin Scale       =       0.3333333333333333 [-]
	 SCS Opposite-Spin Scale   =       1.2000000000000000 [-]
	 SCS Same-Spin Energy      =      -0.1657168484391955 [Eh]
	 SCS Opposite-Spin Energy  =      -2.0007357673183805 [Eh]
	 SCS Correlation Energy    =      -2.1664526157575761 [Eh]
	 SCS Total Energy          =    -465.1750571213046896 [Eh]
	-----------------------------------------------------------

  Dipole Moment: [D]
     X:    -0.0273      Y:    -0.6750      Z:    -0.2205     Total:     0.7107

*** Psi4 exiting successfully. Buy a developer a beer!
