                               Psi4 1.3.2 release

  ==> Input File <==

--------------------------------------------------------------------------
#psi4
#
memory 32 gb

molecule  {
0 1
  O        0.0723890     1.0222580     0.5077940
  C       -0.7884037    -1.0490039     0.1236351
  C        0.6883760    -1.0936210     0.0623120
  C       -1.0714850     0.2632460     0.3951280
  C        1.1400710     0.1773790     0.3033030
  C       -2.3816046     0.9576714     0.5097916
  C        2.4849120     0.8120840     0.3409220
  C       -1.6830070    -2.1819480    -0.0885940
  C        1.5125100    -2.3214750    -0.1762480
  C       -2.8486430     1.5569180    -0.8246800
  C        2.8130920     1.5744450    -0.9510270
  H        3.2336060     0.0303330     0.5193890
  H        2.5305840     1.4962520     1.1974230
  H       -2.2159340     1.8224920     1.2344330
  H       -3.1130010     0.3316860     0.9491040
  H       -1.4229750    -3.0387300     0.5441040
  H       -2.7119990    -1.8902510     0.1457090
  H       -1.6650160    -2.5262940    -1.1310850
  H        2.5139960    -2.0634500    -0.5387900
  H        1.6307130    -2.9166200     0.7385330
  H        1.0429930    -2.9642660    -0.9286680
  H        2.8128660     0.8932150    -1.8063400
  H        3.7971100     2.0487280    -0.8855010
  H        2.0638530     2.3513280    -1.1313670
  H       -2.0994070     2.2298930    -1.2537260
  H       -3.7828960     2.1123340    -0.7007770
  H       -3.0218850     0.7415120    -1.5334270
units angstrom
no_reorient  #important for SAPT in psi4, default
symmetry c1  #important for SAPT in psi4, default
}

set PROPERTIES_ORIGIN ["COM"]
properties('MP2/aug-cc-pvtz', properties = ['dipole'])
--------------------------------------------------------------------------

    Molecular point group: c1
  Charge       = 0
  Multiplicity = 1
  Basis Set: AUG-CC-PVTZ
    Blend: AUG-CC-PVTZ
  Basis Set: (AUG-CC-PVTZ AUX)
    Blend: AUG-CC-PVTZ-JKFIT

    Orbital Energies [Eh]
    ---------------------

    Doubly Occupied:

       1A    -20.599335     2A    -11.271620     3A    -11.269969
       4A    -11.230390     5A    -11.229505     6A    -11.222375
       7A    -11.222265     8A    -11.218821     9A    -11.216598
      10A    -11.215424    11A    -11.214827    12A     -1.429135
      13A     -1.096539    14A     -1.079288    15A     -1.035733
      16A     -0.993990    17A     -0.932307    18A     -0.927775
      19A     -0.869365    20A     -0.815782    21A     -0.751963
      22A     -0.714603    23A     -0.659194    24A     -0.627175
      25A     -0.614142    26A     -0.607348    27A     -0.589305
      28A     -0.582987    29A     -0.569227    30A     -0.557616
      31A     -0.553002    32A     -0.535319    33A     -0.532429
      34A     -0.524571    35A     -0.521192    36A     -0.509427
      37A     -0.494895    38A     -0.490559    39A     -0.482643
      40A     -0.455319    41A     -0.354856    42A     -0.281789

  @DF-RHF Final Energy:  -463.00687111818473

   => Energetics <=

    Nuclear Repulsion Energy =            629.1156519850984523
    One-Electron Energy =               -1876.0438316817703708
    Two-Electron Energy =                 783.9213085784872419
    Total Energy =                       -463.0068711181847902
  Basis Set: (AUG-CC-PVTZ AUX)
    Blend: AUG-CC-PVTZ-RI
    Molecular point group: c1

    Geometry (in Angstrom), charge = 0, multiplicity = 1:

       Center              X                  Y                   Z               Mass
    ------------   -----------------  -----------------  -----------------  -----------------
         O            0.078061567237     1.026551071274     0.508847103915    15.994914619570
         C           -0.782731132763    -1.044710828726     0.124688203915    12.000000000000
         C            0.694048567237    -1.089327928726     0.063365103915    12.000000000000
         C           -1.065812432763     0.267539071274     0.396181103915    12.000000000000
         C            1.145743567237     0.181672071274     0.304356103915    12.000000000000
         C           -2.375932032763     0.961964471274     0.510844703915    12.000000000000
         C            2.490584567237     0.816377071274     0.341975103915    12.000000000000
         C           -1.677334432763    -2.177654928726    -0.087540896085    12.000000000000
         C            1.518182567237    -2.317181928726    -0.175194896085    12.000000000000
         C           -2.842970432763     1.561211071274    -0.823626896085    12.000000000000
         C            2.818764567237     1.578738071274    -0.949973896085    12.000000000000
         H            3.239278567237     0.034626071274     0.520442103915     1.007825032230
         H            2.536256567237     1.500545071274     1.198476103915     1.007825032230
         H           -2.210261432763     1.826785071274     1.235486103915     1.007825032230
         H           -3.107328432763     0.335979071274     0.950157103915     1.007825032230
         H           -1.417302432763    -3.034436928726     0.545157103915     1.007825032230
         H           -2.706326432763    -1.885957928726     0.146762103915     1.007825032230
         H           -1.659343432763    -2.522000928726    -1.130031896085     1.007825032230
         H            2.519668567237    -2.059156928726    -0.537736896085     1.007825032230
         H            1.636385567237    -2.912326928726     0.739586103915     1.007825032230
         H            1.048665567237    -2.959972928726    -0.927614896085     1.007825032230
         H            2.818538567237     0.897508071274    -1.805286896085     1.007825032230
         H            3.802782567237     2.053021071274    -0.884447896085     1.007825032230
         H            2.069525567237     2.355621071274    -1.130313896085     1.007825032230
         H           -2.093734432763     2.234186071274    -1.252672896085     1.007825032230
         H           -3.777223432763     2.116627071274    -0.699723896085     1.007825032230
         H           -3.016212432763     0.745805071274    -1.532373896085     1.007825032230

  Basis Set: AUG-CC-PVTZ
    Blend: AUG-CC-PVTZ
  Basis Set: (AUG-CC-PVTZ AUX)
    Blend: AUG-CC-PVTZ-JKFIT
	 Reference Energy          =    -463.0068711181847334 [Eh]
	 Singles Energy            =      -0.0000000000000000 [Eh]
	 Same-Spin Energy          =      -0.4967884333789531 [Eh]
	 Opposite-Spin Energy      =      -1.6670501731614946 [Eh]
	 Correlation Energy        =      -2.1638386065404478 [Eh]
	 Total Energy              =    -465.1707097247251568 [Eh]

	 ================> DF-SCS-MP2 Energies <==================
	-----------------------------------------------------------
	 SCS Same-Spin Scale       =       0.3333333333333333 [-]
	 SCS Opposite-Spin Scale   =       1.2000000000000000 [-]
	 SCS Same-Spin Energy      =      -0.1655961444596510 [Eh]
	 SCS Opposite-Spin Energy  =      -2.0004602077937936 [Eh]
	 SCS Correlation Energy    =      -2.1660563522534448 [Eh]
	 SCS Total Energy          =    -465.1729274704381965 [Eh]
	-----------------------------------------------------------

  Dipole Moment: [D]
     X:    -0.0440      Y:    -0.6997      Z:    -0.2301     Total:     0.7379

*** Psi4 exiting successfully. Buy a developer a beer!
