                               Psi4 1.3.2 release

  ==> Input File <==

--------------------------------------------------------------------------
#psi4
#
memory 32 gb

molecule  {
0 1
  O        0.0723890     1.0222580     0.5077940
  C       -0.7418240    -1.0387750     0.1269710
  C        0.6883760    -1.0936210     0.0623120
  C       -1.1545307     0.2081415     0.3869484
  C        1.1400710     0.1773790     0.3033030
  C       -2.3562760     1.0018630     0.5198060
  C        2.4849120     0.8120840     0.3409220
  C       -1.6830070    -2.1819480    -0.0885940
  C        1.5125100    -2.3214750    -0.1762480
  C       -2.8486430     1.5569180    -0.8246800
  C        2.8130920     1.5744450    -0.9510270
  H        3.2336060     0.0303330     0.5193890
  H        2.5305840     1.4962520     1.1974230
  H       -2.2159340     1.8224920     1.2344330
  H       -3.1130010     0.3316860     0.9491040
  H       -1.4229750    -3.0387300     0.5441040
  H       -2.7119990    -1.8902510     0.1457090
  H       -1.6650160    -2.5262940    -1.1310850
  H        2.5139960    -2.0634500    -0.5387900
  H        1.6307130    -2.9166200     0.7385330
  H        1.0429930    -2.9642660    -0.9286680
  H        2.8128660     0.8932150    -1.8063400
  H        3.7971100     2.0487280    -0.8855010
  H        2.0638530     2.3513280    -1.1313670
  H       -2.0994070     2.2298930    -1.2537260
  H       -3.7828960     2.1123340    -0.7007770
  H       -3.0218850     0.7415120    -1.5334270
units angstrom
no_reorient  #important for SAPT in psi4, default
symmetry c1  #important for SAPT in psi4, default
}

set PROPERTIES_ORIGIN ["COM"]
properties('MP2/aug-cc-pvtz', properties = ['dipole'])
--------------------------------------------------------------------------

    Molecular point group: c1
  Charge       = 0
  Multiplicity = 1
  Basis Set: AUG-CC-PVTZ
    Blend: AUG-CC-PVTZ
  Basis Set: (AUG-CC-PVTZ AUX)
    Blend: AUG-CC-PVTZ-JKFIT

    Orbital Energies [Eh]
    ---------------------

    Doubly Occupied:

       1A    -20.582748     2A    -11.273227     3A    -11.267767
       4A    -11.230391     5A    -11.230018     6A    -11.224041
       7A    -11.222338     8A    -11.220284     9A    -11.216177
      10A    -11.215067    11A    -11.213040    12A     -1.393651
      13A     -1.102479    14A     -1.080466    15A     -1.039194
      16A     -0.993365    17A     -0.931796    18A     -0.922657
      19A     -0.873753    20A     -0.819296    21A     -0.734126
      22A     -0.722261    23A     -0.651427    24A     -0.618256
      25A     -0.615981    26A     -0.608818    27A     -0.586983
      28A     -0.582254    29A     -0.563943    30A     -0.556496
      31A     -0.549851    32A     -0.532943    33A     -0.527181
      34A     -0.523172    35A     -0.510378    36A     -0.503241
      37A     -0.498624    38A     -0.495188    39A     -0.478790
      40A     -0.472484    41A     -0.363842    42A     -0.282719

  @DF-RHF Final Energy:  -463.00043036272837

   => Energetics <=

    Nuclear Repulsion Energy =            628.7409794671635836
    One-Electron Energy =               -1875.4213881536986719
    Two-Electron Energy =                 783.6799783238066084
    Total Energy =                       -463.0004303627283662
  Basis Set: (AUG-CC-PVTZ AUX)
    Blend: AUG-CC-PVTZ-RI
    Molecular point group: c1

    Geometry (in Angstrom), charge = 0, multiplicity = 1:

       Center              X                  Y                   Z               Mass
    ------------   -----------------  -----------------  -----------------  -----------------
         O            0.078940141381     1.026605028635     0.508439213085    15.994914619570
         C           -0.735272858619    -1.034427971365     0.127616213085    12.000000000000
         C            0.694927141381    -1.089273971365     0.062957213085    12.000000000000
         C           -1.147979558619     0.212488528635     0.387593613085    12.000000000000
         C            1.146622141381     0.181726028635     0.303948213085    12.000000000000
         C           -2.349724858619     1.006210028635     0.520451213085    12.000000000000
         C            2.491463141381     0.816431028635     0.341567213085    12.000000000000
         C           -1.676455858619    -2.177600971365    -0.087948786915    12.000000000000
         C            1.519061141381    -2.317127971365    -0.175602786915    12.000000000000
         C           -2.842091858619     1.561265028635    -0.824034786915    12.000000000000
         C            2.819643141381     1.578792028635    -0.950381786915    12.000000000000
         H            3.240157141381     0.034680028635     0.520034213085     1.007825032230
         H            2.537135141381     1.500599028635     1.198068213085     1.007825032230
         H           -2.209382858619     1.826839028635     1.235078213085     1.007825032230
         H           -3.106449858619     0.336033028635     0.949749213085     1.007825032230
         H           -1.416423858619    -3.034382971365     0.544749213085     1.007825032230
         H           -2.705447858619    -1.885903971365     0.146354213085     1.007825032230
         H           -1.658464858619    -2.521946971365    -1.130439786915     1.007825032230
         H            2.520547141381    -2.059102971365    -0.538144786915     1.007825032230
         H            1.637264141381    -2.912272971365     0.739178213085     1.007825032230
         H            1.049544141381    -2.959918971365    -0.928022786915     1.007825032230
         H            2.819417141381     0.897562028635    -1.805694786915     1.007825032230
         H            3.803661141381     2.053075028635    -0.884855786915     1.007825032230
         H            2.070404141381     2.355675028635    -1.130721786915     1.007825032230
         H           -2.092855858619     2.234240028635    -1.253080786915     1.007825032230
         H           -3.776344858619     2.116681028635    -0.700131786915     1.007825032230
         H           -3.015333858619     0.745859028635    -1.532781786915     1.007825032230

  Basis Set: AUG-CC-PVTZ
    Blend: AUG-CC-PVTZ
  Basis Set: (AUG-CC-PVTZ AUX)
    Blend: AUG-CC-PVTZ-JKFIT
	 Reference Energy          =    -463.0004303627283662 [Eh]
	 Singles Energy            =      -0.0000000000000000 [Eh]
	 Same-Spin Energy          =      -0.4975050493417377 [Eh]
	 Opposite-Spin Energy      =      -1.6691059366363490 [Eh]
	 Correlation Energy        =      -2.1666109859780867 [Eh]
	 Total Energy              =    -465.1670413487064479 [Eh]

	 ================> DF-SCS-MP2 Energies <==================
	-----------------------------------------------------------
	 SCS Same-Spin Scale       =       0.3333333333333333 [-]
	 SCS Opposite-Spin Scale   =       1.2000000000000000 [-]
	 SCS Same-Spin Energy      =      -0.1658350164472459 [Eh]
	 SCS Opposite-Spin Energy  =      -2.0029271239636186 [Eh]
	 SCS Correlation Energy    =      -2.1687621404108643 [Eh]
	 SCS Total Energy          =    -465.1691925031392429 [Eh]
	-----------------------------------------------------------

  Dipole Moment: [D]
     X:    -0.2074      Y:    -0.7198      Z:    -0.2452     Total:     0.7882

*** Psi4 exiting successfully. Buy a developer a beer!
