                               Psi4 1.3.2 release

  ==> Input File <==

--------------------------------------------------------------------------
#psi4
#
memory 32 gb

molecule  {
0 1
  O        0.0723890     1.0222580     0.5077940
  C       -0.7484031    -1.0317664     0.1181328
  C        0.6883760    -1.0936210     0.0623120
  C       -1.0714850     0.2632460     0.3951280
  C        1.1400710     0.1773790     0.3033030
  C       -2.3562760     1.0018630     0.5198060
  C        2.4849120     0.8120840     0.3409220
  C       -1.6830070    -2.1819480    -0.0885940
  C        1.5125100    -2.3214750    -0.1762480
  C       -2.8486430     1.5569180    -0.8246800
  C        2.8130920     1.5744450    -0.9510270
  H        3.2336060     0.0303330     0.5193890
  H        2.5305840     1.4962520     1.1974230
  H       -2.2159340     1.8224920     1.2344330
  H       -3.1130010     0.3316860     0.9491040
  H       -1.4303365    -3.0436186     0.5404371
  H       -2.7119990    -1.8902510     0.1457090
  H       -1.6650160    -2.5262940    -1.1310850
  H        2.5139960    -2.0634500    -0.5387900
  H        1.6307130    -2.9166200     0.7385330
  H        1.0429930    -2.9642660    -0.9286680
  H        2.8128660     0.8932150    -1.8063400
  H        3.7971100     2.0487280    -0.8855010
  H        2.0638530     2.3513280    -1.1313670
  H       -2.0994070     2.2298930    -1.2537260
  H       -3.7828960     2.1123340    -0.7007770
  H       -3.0218850     0.7415120    -1.5334270
units angstrom
no_reorient  #important for SAPT in psi4, default
symmetry c1  #important for SAPT in psi4, default
}

set PROPERTIES_ORIGIN ["COM"]
properties('MP2/aug-cc-pvtz', properties = ['dipole'])
--------------------------------------------------------------------------

    Molecular point group: c1
  Charge       = 0
  Multiplicity = 1
  Basis Set: AUG-CC-PVTZ
    Blend: AUG-CC-PVTZ
  Basis Set: (AUG-CC-PVTZ AUX)
    Blend: AUG-CC-PVTZ-JKFIT

    Orbital Energies [Eh]
    ---------------------

    Doubly Occupied:

       1A    -20.598182     2A    -11.269563     3A    -11.269033
       4A    -11.229998     5A    -11.229939     6A    -11.223241
       7A    -11.222935     8A    -11.216428     9A    -11.215434
      10A    -11.215099    11A    -11.214716    12A     -1.429613
      13A     -1.098262    14A     -1.079111    15A     -1.036083
      16A     -0.990243    17A     -0.932452    18A     -0.927769
      19A     -0.870022    20A     -0.815978    21A     -0.750002
      22A     -0.720620    23A     -0.658122    24A     -0.627365
      25A     -0.611044    26A     -0.609577    27A     -0.586867
      28A     -0.583603    29A     -0.567510    30A     -0.555883
      31A     -0.549138    32A     -0.533138    33A     -0.528560
      34A     -0.523724    35A     -0.521809    36A     -0.505332
      37A     -0.495164    38A     -0.492832    39A     -0.483875
      40A     -0.466262    41A     -0.360369    42A     -0.280183

  @DF-RHF Final Energy:  -463.01241800839841

   => Energetics <=

    Nuclear Repulsion Energy =            629.5901809687755986
    One-Electron Energy =               -1877.0150368062572852
    Two-Electron Energy =                 784.4124378290831601
    Total Energy =                       -463.0124180083984129
  Basis Set: (AUG-CC-PVTZ AUX)
    Blend: AUG-CC-PVTZ-RI
    Molecular point group: c1

    Geometry (in Angstrom), charge = 0, multiplicity = 1:

       Center              X                  Y                   Z               Mass
    ------------   -----------------  -----------------  -----------------  -----------------
         O            0.072956842622     1.021737622731     0.508515460684    15.994914619570
         C           -0.747835257378    -1.032286777269     0.118854260684    12.000000000000
         C            0.688943842622    -1.094141377269     0.063033460684    12.000000000000
         C           -1.070917157378     0.262725622731     0.395849460684    12.000000000000
         C            1.140638842622     0.176858622731     0.304024460684    12.000000000000
         C           -2.355708157378     1.001342622731     0.520527460684    12.000000000000
         C            2.485479842622     0.811563622731     0.341643460684    12.000000000000
         C           -1.682439157378    -2.182468377269    -0.087872539316    12.000000000000
         C            1.513077842622    -2.321995377269    -0.175526539316    12.000000000000
         C           -2.848075157378     1.556397622731    -0.823958539316    12.000000000000
         C            2.813659842622     1.573924622731    -0.950305539316    12.000000000000
         H            3.234173842622     0.029812622731     0.520110460684     1.007825032230
         H            2.531151842622     1.495731622731     1.198144460684     1.007825032230
         H           -2.215366157378     1.821971622731     1.235154460684     1.007825032230
         H           -3.112433157378     0.331165622731     0.949825460684     1.007825032230
         H           -1.429768657378    -3.044138977269     0.541158560684     1.007825032230
         H           -2.711431157378    -1.890771377269     0.146430460684     1.007825032230
         H           -1.664448157378    -2.526814377269    -1.130363539316     1.007825032230
         H            2.514563842622    -2.063970377269    -0.538068539316     1.007825032230
         H            1.631280842622    -2.917140377269     0.739254460684     1.007825032230
         H            1.043560842622    -2.964786377269    -0.927946539316     1.007825032230
         H            2.813433842622     0.892694622731    -1.805618539316     1.007825032230
         H            3.797677842622     2.048207622731    -0.884779539316     1.007825032230
         H            2.064420842622     2.350807622731    -1.130645539316     1.007825032230
         H           -2.098839157378     2.229372622731    -1.253004539316     1.007825032230
         H           -3.782328157378     2.111813622731    -0.700055539316     1.007825032230
         H           -3.021317157378     0.740991622731    -1.532705539316     1.007825032230

  Basis Set: AUG-CC-PVTZ
    Blend: AUG-CC-PVTZ
  Basis Set: (AUG-CC-PVTZ AUX)
    Blend: AUG-CC-PVTZ-JKFIT
	 Reference Energy          =    -463.0124180083984129 [Eh]
	 Singles Energy            =      -0.0000000000000000 [Eh]
	 Same-Spin Energy          =      -0.4968720910187622 [Eh]
	 Opposite-Spin Energy      =      -1.6668422195643740 [Eh]
	 Correlation Energy        =      -2.1637143105831362 [Eh]
	 Total Energy              =    -465.1761323189815585 [Eh]

	 ================> DF-SCS-MP2 Energies <==================
	-----------------------------------------------------------
	 SCS Same-Spin Scale       =       0.3333333333333333 [-]
	 SCS Opposite-Spin Scale   =       1.2000000000000000 [-]
	 SCS Same-Spin Energy      =      -0.1656240303395874 [Eh]
	 SCS Opposite-Spin Energy  =      -2.0002106634772487 [Eh]
	 SCS Correlation Energy    =      -2.1658346938168362 [Eh]
	 SCS Total Energy          =    -465.1782527022152749 [Eh]
	-----------------------------------------------------------

  Dipole Moment: [D]
     X:    -0.0295      Y:    -0.6595      Z:    -0.2113     Total:     0.6932

*** Psi4 exiting successfully. Buy a developer a beer!
