                               Psi4 1.3.2 release

  ==> Input File <==

--------------------------------------------------------------------------
#psi4
#
memory 32 gb

molecule  {
0 1
  O        0.0723890     1.0222580     0.5077940
  C       -0.7162294    -1.0676746     0.1621530
  C        0.6883760    -1.0936210     0.0623120
  C       -1.0714850     0.2632460     0.3951280
  C        1.1400710     0.1773790     0.3033030
  C       -2.3562760     1.0018630     0.5198060
  C        2.4849120     0.8120840     0.3409220
  C       -1.6830070    -2.1819480    -0.0885940
  C        1.5125100    -2.3214750    -0.1762480
  C       -2.8486430     1.5569180    -0.8246800
  C        2.8130920     1.5744450    -0.9510270
  H        3.2336060     0.0303330     0.5193890
  H        2.5305840     1.4962520     1.1974230
  H       -2.2159340     1.8224920     1.2344330
  H       -3.1130010     0.3316860     0.9491040
  H       -1.3937326    -3.0185267     0.5582871
  H       -2.7119990    -1.8902510     0.1457090
  H       -1.6650160    -2.5262940    -1.1310850
  H        2.5139960    -2.0634500    -0.5387900
  H        1.6307130    -2.9166200     0.7385330
  H        1.0429930    -2.9642660    -0.9286680
  H        2.8128660     0.8932150    -1.8063400
  H        3.7971100     2.0487280    -0.8855010
  H        2.0638530     2.3513280    -1.1313670
  H       -2.0994070     2.2298930    -1.2537260
  H       -3.7828960     2.1123340    -0.7007770
  H       -3.0218850     0.7415120    -1.5334270
units angstrom
no_reorient  #important for SAPT in psi4, default
symmetry c1  #important for SAPT in psi4, default
}

set PROPERTIES_ORIGIN ["COM"]
properties('MP2/aug-cc-pvtz', properties = ['dipole'])
--------------------------------------------------------------------------

    Molecular point group: c1
  Charge       = 0
  Multiplicity = 1
  Basis Set: AUG-CC-PVTZ
    Blend: AUG-CC-PVTZ
  Basis Set: (AUG-CC-PVTZ AUX)
    Blend: AUG-CC-PVTZ-JKFIT

    Orbital Energies [Eh]
    ---------------------

    Doubly Occupied:

       1A    -20.600681     2A    -11.272367     3A    -11.269003
       4A    -11.230923     5A    -11.229945     6A    -11.223090
       7A    -11.222625     8A    -11.216550     9A    -11.215808
      10A    -11.214581    11A    -11.214464    12A     -1.430191
      13A     -1.101041    14A     -1.077900    15A     -1.036728
      16A     -0.989462    17A     -0.932187    18A     -0.926605
      19A     -0.870674    20A     -0.813958    21A     -0.747088
      22A     -0.726010    23A     -0.657683    24A     -0.627149
      25A     -0.611001    26A     -0.610381    27A     -0.586764
      28A     -0.583951    29A     -0.568950    30A     -0.556694
      31A     -0.550974    32A     -0.534739    33A     -0.527187
      34A     -0.524458    35A     -0.517791    36A     -0.505425
      37A     -0.495665    38A     -0.490923    39A     -0.483805
      40A     -0.469741    41A     -0.362241    42A     -0.273918

  @DF-RHF Final Energy:  -463.00753288834744

   => Energetics <=

    Nuclear Repulsion Energy =            629.4978719474179343
    One-Electron Energy =               -1876.8081758335783888
    Two-Electron Energy =                 784.3027709978130133
    Total Energy =                       -463.0075328883474413
  Basis Set: (AUG-CC-PVTZ AUX)
    Blend: AUG-CC-PVTZ-RI
    Molecular point group: c1

    Geometry (in Angstrom), charge = 0, multiplicity = 1:

       Center              X                  Y                   Z               Mass
    ------------   -----------------  -----------------  -----------------  -----------------
         O            0.070176311420     1.024404003536     0.504924666158    15.994914619570
         C           -0.718442088580    -1.065528596464     0.159283666158    12.000000000000
         C            0.686163311420    -1.091474996464     0.059442666158    12.000000000000
         C           -1.073697688580     0.265392003536     0.392258666158    12.000000000000
         C            1.137858311420     0.179525003536     0.300433666158    12.000000000000
         C           -2.358488688580     1.004009003536     0.516936666158    12.000000000000
         C            2.482699311420     0.814230003536     0.338052666158    12.000000000000
         C           -1.685219688580    -2.179801996464    -0.091463333842    12.000000000000
         C            1.510297311420    -2.319328996464    -0.179117333842    12.000000000000
         C           -2.850855688580     1.559064003536    -0.827549333842    12.000000000000
         C            2.810879311420     1.576591003536    -0.953896333842    12.000000000000
         H            3.231393311420     0.032479003536     0.516519666158     1.007825032230
         H            2.528371311420     1.498398003536     1.194553666158     1.007825032230
         H           -2.218146688580     1.824638003536     1.231563666158     1.007825032230
         H           -3.115213688580     0.333832003536     0.946234666158     1.007825032230
         H           -1.395945288580    -3.016380696464     0.555417766158     1.007825032230
         H           -2.714211688580    -1.888104996464     0.142839666158     1.007825032230
         H           -1.667228688580    -2.524147996464    -1.133954333842     1.007825032230
         H            2.511783311420    -2.061303996464    -0.541659333842     1.007825032230
         H            1.628500311420    -2.914473996464     0.735663666158     1.007825032230
         H            1.040780311420    -2.962119996464    -0.931537333842     1.007825032230
         H            2.810653311420     0.895361003536    -1.809209333842     1.007825032230
         H            3.794897311420     2.050874003536    -0.888370333842     1.007825032230
         H            2.061640311420     2.353474003536    -1.134236333842     1.007825032230
         H           -2.101619688580     2.232039003536    -1.256595333842     1.007825032230
         H           -3.785108688580     2.114480003536    -0.703646333842     1.007825032230
         H           -3.024097688580     0.743658003536    -1.536296333842     1.007825032230

  Basis Set: AUG-CC-PVTZ
    Blend: AUG-CC-PVTZ
  Basis Set: (AUG-CC-PVTZ AUX)
    Blend: AUG-CC-PVTZ-JKFIT
	 Reference Energy          =    -463.0075328883474413 [Eh]
	 Singles Energy            =      -0.0000000000000000 [Eh]
	 Same-Spin Energy          =      -0.4981328476723694 [Eh]
	 Opposite-Spin Energy      =      -1.6685198571484432 [Eh]
	 Correlation Energy        =      -2.1666527048208124 [Eh]
	 Total Energy              =    -465.1741855931682608 [Eh]

	 ================> DF-SCS-MP2 Energies <==================
	-----------------------------------------------------------
	 SCS Same-Spin Scale       =       0.3333333333333333 [-]
	 SCS Opposite-Spin Scale   =       1.2000000000000000 [-]
	 SCS Same-Spin Energy      =      -0.1660442825574565 [Eh]
	 SCS Opposite-Spin Energy  =      -2.0022238285781317 [Eh]
	 SCS Correlation Energy    =      -2.1682681111355881 [Eh]
	 SCS Total Energy          =    -465.1758009994830445 [Eh]
	-----------------------------------------------------------

  Dipole Moment: [D]
     X:    -0.0346      Y:    -0.6235      Z:    -0.2361     Total:     0.6675

*** Psi4 exiting successfully. Buy a developer a beer!
