                               Psi4 1.4a3.dev225

  ==> Input File <==

--------------------------------------------------------------------------
#psi4
#
memory 32 gb

molecule  {
0 1
  O        0.0000040    -0.9323440    -0.5200900
  C       -0.7186120     1.1388030    -0.0293360
  C        0.7186000     1.1388090    -0.0293300
  C       -1.1092540    -0.1401520    -0.3350070
  C        1.1092550    -0.1401430    -0.3349960
  C       -2.4197690    -0.8327410    -0.4659430
  C        2.4638110    -0.8559893    -0.4703419
  C       -1.5881550     2.3237520     0.2504950
  C        1.5881310     2.3237650     0.2505070
  C       -2.6404590    -1.8837440     0.6266770
  C        2.6404800    -1.8837320     0.6266650
  H        3.2127060    -0.0780420    -0.4310990
  H        2.4812700    -1.3082390    -1.4528680
  H       -2.4812630    -1.3082740    -1.4528630
  H       -3.2127060    -0.0780720    -0.4311050
  H       -1.4004860     3.1330380    -0.4637010
  H       -2.6480190     2.0627510     0.1871390
  H       -1.4034730     2.7248980     1.2531230
  H        2.6479980     2.0627640     0.1871950
  H        1.4004870     3.1330370    -0.4637120
  H        1.4034130     2.7249310     1.2531200
  H        2.6185650    -1.4170920     1.6153140
  H        3.6057420    -2.3837880     0.5012060
  H        1.8526560    -2.6398250     0.5898280
  H       -1.8526300    -2.6398320     0.5898440
  H       -3.6057190    -2.3838080     0.5012310
  H       -2.6185400    -1.4170920     1.6153210
units angstrom
no_reorient  #important for SAPT in psi4, default
symmetry c1  #important for SAPT in psi4, default
}

set PROPERTIES_ORIGIN ["COM"]
properties('MP2/aug-cc-pvtz', properties = ['dipole'])
--------------------------------------------------------------------------

    Molecular point group: c1
  Charge       = 0
  Multiplicity = 1
  Basis Set: AUG-CC-PVTZ
    Blend: AUG-CC-PVTZ
  Basis Set: (AUG-CC-PVTZ AUX)
    Blend: AUG-CC-PVTZ-JKFIT

    Orbital Energies [Eh]
    ---------------------

    Doubly Occupied:

       1A    -20.597223     2A    -11.272460     3A    -11.270245
       4A    -11.230627     5A    -11.229658     6A    -11.222228
       7A    -11.222173     8A    -11.216866     9A    -11.215788
      10A    -11.213238    11A    -11.212940    12A     -1.429820
      13A     -1.097011    14A     -1.076743    15A     -1.037460
      16A     -0.991305    17A     -0.932346    18A     -0.925499
      19A     -0.867801    20A     -0.817658    21A     -0.750135
      22A     -0.718756    23A     -0.657459    24A     -0.627504
      25A     -0.614943    26A     -0.609294    27A     -0.586286
      28A     -0.581153    29A     -0.568281    30A     -0.555689
      31A     -0.551869    32A     -0.532015    33A     -0.530185
      34A     -0.524952    35A     -0.520545    36A     -0.508833
      37A     -0.494102    38A     -0.488706    39A     -0.485059
      40A     -0.463302    41A     -0.360025    42A     -0.280316

  @DF-RHF Final Energy:  -463.01212731989523

   => Energetics <=

    Nuclear Repulsion Energy =            629.1723170181935529
    One-Electron Energy =               -1876.1919018644694006
    Two-Electron Energy =                 784.0074575263805627
    Total Energy =                       -463.0121273198952849
  Basis Set: (AUG-CC-PVTZ AUX)
    Blend: AUG-CC-PVTZ-RI
    Molecular point group: c1

    Geometry (in Angstrom), charge = 0, multiplicity = 1:

       Center              X                  Y                   Z               Mass
    ------------   -----------------  -----------------  -----------------  -----------------
         O           -0.003469577357    -0.929317383719    -0.496293103143    15.994914619570
         C           -0.722085577357     1.141829616281    -0.005539103143    12.000000000000
         C            0.715126422643     1.141835616281    -0.005533103143    12.000000000000
         C           -1.112727577357    -0.137125383719    -0.311210103143    12.000000000000
         C            1.105781422643    -0.137116383719    -0.311199103143    12.000000000000
         C           -2.423242577357    -0.829714383719    -0.442146103143    12.000000000000
         C            2.460337422643    -0.852962683719    -0.446545003143    12.000000000000
         C           -1.591628577357     2.326778616281     0.274291896857    12.000000000000
         C            1.584657422643     2.326791616281     0.274303896857    12.000000000000
         C           -2.643932577357    -1.880717383719     0.650473896857    12.000000000000
         C            2.637006422643    -1.880705383719     0.650461896857    12.000000000000
         H            3.209232422643    -0.075015383719    -0.407302103143     1.007825032230
         H            2.477796422643    -1.305212383719    -1.429071103143     1.007825032230
         H           -2.484736577357    -1.305247383719    -1.429066103143     1.007825032230
         H           -3.216179577357    -0.075045383719    -0.407308103143     1.007825032230
         H           -1.403959577357     3.136064616281    -0.439904103143     1.007825032230
         H           -2.651492577357     2.065777616281     0.210935896857     1.007825032230
         H           -1.406946577357     2.727924616281     1.276919896857     1.007825032230
         H            2.644524422643     2.065790616281     0.210991896857     1.007825032230
         H            1.397013422643     3.136063616281    -0.439915103143     1.007825032230
         H            1.399939422643     2.727957616281     1.276916896857     1.007825032230
         H            2.615091422643    -1.414065383719     1.639110896857     1.007825032230
         H            3.602268422643    -2.380761383719     0.525002896857     1.007825032230
         H            1.849182422643    -2.636798383719     0.613624896857     1.007825032230
         H           -1.856103577357    -2.636805383719     0.613640896857     1.007825032230
         H           -3.609192577357    -2.380781383719     0.525027896857     1.007825032230
         H           -2.622013577357    -1.414065383719     1.639117896857     1.007825032230

  Basis Set: AUG-CC-PVTZ
    Blend: AUG-CC-PVTZ
  Basis Set: (AUG-CC-PVTZ AUX)
    Blend: AUG-CC-PVTZ-JKFIT
	 Reference Energy          =    -463.0121273198952281 [Eh]
	 Singles Energy            =      -0.0000000000000000 [Eh]
	 Same-Spin Energy          =      -0.4966061017443423 [Eh]
	 Opposite-Spin Energy      =      -1.6665566982368905 [Eh]
	 Correlation Energy        =      -2.1631627999812326 [Eh]
	 Total Energy              =    -465.1752901198764789 [Eh]

	 ================> DF-SCS-MP2 Energies <==================
	-----------------------------------------------------------
	 SCS Same-Spin Scale       =       0.3333333333333333 [-]
	 SCS Opposite-Spin Scale   =       1.2000000000000000 [-]
	 SCS Same-Spin Energy      =      -0.1655353672481141 [Eh]
	 SCS Opposite-Spin Energy  =      -1.9998680378842684 [Eh]
	 SCS Correlation Energy    =      -2.1654034051323823 [Eh]
	 SCS Total Energy          =    -465.1775307250276228 [Eh]
	-----------------------------------------------------------

  Dipole Moment: [D]
     X:     0.0257      Y:     0.6167      Z:     0.2249     Total:     0.6570

*** Psi4 exiting successfully. Buy a developer a beer!
