                               Psi4 1.3.2 release

  ==> Input File <==

--------------------------------------------------------------------------
#psi4
#
memory 32 gb

molecule  {
0 1
  O        0.0723890     1.0222580     0.5077940
  C       -0.7418240    -1.0387750     0.1269710
  C        0.6883760    -1.0936210     0.0623120
  C       -1.0714850     0.2632460     0.3951280
  C        1.1287649     0.1811927     0.3040839
  C       -2.3562760     1.0018630     0.5198060
  C        2.4849120     0.8120840     0.3409220
  C       -1.6830070    -2.1819480    -0.0885940
  C        1.5015635    -2.3285013    -0.1775417
  C       -2.8486430     1.5569180    -0.8246800
  C        2.8130920     1.5744450    -0.9510270
  H        3.2336060     0.0303330     0.5193890
  H        2.5305840     1.4962520     1.1974230
  H       -2.2159340     1.8224920     1.2344330
  H       -3.1130010     0.3316860     0.9491040
  H       -1.4229750    -3.0387300     0.5441040
  H       -2.7119990    -1.8902510     0.1457090
  H       -1.6650160    -2.5262940    -1.1310850
  H        2.5139960    -2.0634500    -0.5387900
  H        1.6307130    -2.9166200     0.7385330
  H        1.0429930    -2.9642660    -0.9286680
  H        2.8128660     0.8932150    -1.8063400
  H        3.7971100     2.0487280    -0.8855010
  H        2.0638530     2.3513280    -1.1313670
  H       -2.0994070     2.2298930    -1.2537260
  H       -3.7828960     2.1123340    -0.7007770
  H       -3.0218850     0.7415120    -1.5334270
units angstrom
no_reorient  #important for SAPT in psi4, default
symmetry c1  #important for SAPT in psi4, default
}

set PROPERTIES_ORIGIN ["COM"]
properties('MP2/aug-cc-pvtz', properties = ['dipole'])
--------------------------------------------------------------------------

    Molecular point group: c1
  Charge       = 0
  Multiplicity = 1
  Basis Set: AUG-CC-PVTZ
    Blend: AUG-CC-PVTZ
  Basis Set: (AUG-CC-PVTZ AUX)
    Blend: AUG-CC-PVTZ-JKFIT

    Orbital Energies [Eh]
    ---------------------

    Doubly Occupied:

       1A    -20.600417     2A    -11.269859     3A    -11.268998
       4A    -11.230113     5A    -11.230016     6A    -11.223248
       7A    -11.222946     8A    -11.215815     9A    -11.215372
      10A    -11.214706    11A    -11.214518    12A     -1.434555
      13A     -1.099140    14A     -1.078170    15A     -1.035577
      16A     -0.989673    17A     -0.933005    18A     -0.928147
      19A     -0.869355    20A     -0.815333    21A     -0.751486
      22A     -0.721537    23A     -0.658957    24A     -0.629312
      25A     -0.610579    26A     -0.609227    27A     -0.586901
      28A     -0.583380    29A     -0.569136    30A     -0.556636
      31A     -0.548005    32A     -0.532749    33A     -0.529395
      34A     -0.525626    35A     -0.521120    36A     -0.505469
      37A     -0.494944    38A     -0.491567    39A     -0.484139
      40A     -0.465344    41A     -0.360951    42A     -0.278888

  @DF-RHF Final Energy:  -463.01213372361849

   => Energetics <=

    Nuclear Repulsion Energy =            629.7192158729088760
    One-Electron Energy =               -1877.2540711185447435
    Two-Electron Energy =                 784.5227215220172639
    Total Energy =                       -463.0121337236184900
  Basis Set: (AUG-CC-PVTZ AUX)
    Blend: AUG-CC-PVTZ-RI
    Molecular point group: c1

    Geometry (in Angstrom), charge = 0, multiplicity = 1:

       Center              X                  Y                   Z               Mass
    ------------   -----------------  -----------------  -----------------  -----------------
         O            0.074144475802     1.022511534494     0.507834417329    15.994914619570
         C           -0.740068524198    -1.038521465506     0.127011417329    12.000000000000
         C            0.690131475802    -1.093367465506     0.062352417329    12.000000000000
         C           -1.069729524198     0.263499534494     0.395168417329    12.000000000000
         C            1.130520375802     0.181446234494     0.304124317329    12.000000000000
         C           -2.354520524198     1.002116534494     0.519846417329    12.000000000000
         C            2.486667475802     0.812337534494     0.340962417329    12.000000000000
         C           -1.681251524198    -2.181694465506    -0.088553582671    12.000000000000
         C            1.503318975802    -2.328247765506    -0.177501282671    12.000000000000
         C           -2.846887524198     1.557171534494    -0.824639582671    12.000000000000
         C            2.814847475802     1.574698534494    -0.950986582671    12.000000000000
         H            3.235361475802     0.030586534494     0.519429417329     1.007825032230
         H            2.532339475802     1.496505534494     1.197463417329     1.007825032230
         H           -2.214178524198     1.822745534494     1.234473417329     1.007825032230
         H           -3.111245524198     0.331939534494     0.949144417329     1.007825032230
         H           -1.421219524198    -3.038476465506     0.544144417329     1.007825032230
         H           -2.710243524198    -1.889997465506     0.145749417329     1.007825032230
         H           -1.663260524198    -2.526040465506    -1.131044582671     1.007825032230
         H            2.515751475802    -2.063196465506    -0.538749582671     1.007825032230
         H            1.632468475802    -2.916366465506     0.738573417329     1.007825032230
         H            1.044748475802    -2.964012465506    -0.928627582671     1.007825032230
         H            2.814621475802     0.893468534494    -1.806299582671     1.007825032230
         H            3.798865475802     2.048981534494    -0.885460582671     1.007825032230
         H            2.065608475802     2.351581534494    -1.131326582671     1.007825032230
         H           -2.097651524198     2.230146534494    -1.253685582671     1.007825032230
         H           -3.781140524198     2.112587534494    -0.700736582671     1.007825032230
         H           -3.020129524198     0.741765534494    -1.533386582671     1.007825032230

  Basis Set: AUG-CC-PVTZ
    Blend: AUG-CC-PVTZ
  Basis Set: (AUG-CC-PVTZ AUX)
    Blend: AUG-CC-PVTZ-JKFIT
	 Reference Energy          =    -463.0121337236184900 [Eh]
	 Singles Energy            =      -0.0000000000000000 [Eh]
	 Same-Spin Energy          =      -0.4969912413357038 [Eh]
	 Opposite-Spin Energy      =      -1.6668365283656872 [Eh]
	 Correlation Energy        =      -2.1638277697013910 [Eh]
	 Total Energy              =    -465.1759614933199032 [Eh]

	 ================> DF-SCS-MP2 Energies <==================
	-----------------------------------------------------------
	 SCS Same-Spin Scale       =       0.3333333333333333 [-]
	 SCS Opposite-Spin Scale   =       1.2000000000000000 [-]
	 SCS Same-Spin Energy      =      -0.1656637471119013 [Eh]
	 SCS Opposite-Spin Energy  =      -2.0002038340388246 [Eh]
	 SCS Correlation Energy    =      -2.1658675811507258 [Eh]
	 SCS Total Energy          =    -465.1780013047692250 [Eh]
	-----------------------------------------------------------

  Dipole Moment: [D]
     X:    -0.0513      Y:    -0.6518      Z:    -0.2123     Total:     0.6874

*** Psi4 exiting successfully. Buy a developer a beer!
