                               Psi4 1.4a3.dev225

  ==> Input File <==

--------------------------------------------------------------------------
#psi4
#
memory 32 gb

molecule  {
0 1
  O        0.0000040    -0.9323440    -0.5200900
  C       -0.7186120     1.1388030    -0.0293360
  C        0.6686000     1.1388088    -0.0293302
  C       -1.1092540    -0.1401520    -0.3350070
  C        1.1092550    -0.1401430    -0.3349960
  C       -2.4197690    -0.8327410    -0.4659430
  C        2.4197760    -0.8327180    -0.4659420
  C       -1.5881550     2.3237520     0.2504950
  C        1.5881310     2.3237650     0.2505070
  C       -2.6404590    -1.8837440     0.6266770
  C        2.6404800    -1.8837320     0.6266650
  H        3.2127060    -0.0780420    -0.4310990
  H        2.4812700    -1.3082390    -1.4528680
  H       -2.4812630    -1.3082740    -1.4528630
  H       -3.2127060    -0.0780720    -0.4311050
  H       -1.4004860     3.1330380    -0.4637010
  H       -2.6480190     2.0627510     0.1871390
  H       -1.4034730     2.7248980     1.2531230
  H        2.6479980     2.0627640     0.1871950
  H        1.4004870     3.1330370    -0.4637120
  H        1.4034130     2.7249310     1.2531200
  H        2.6185650    -1.4170920     1.6153140
  H        3.6057420    -2.3837880     0.5012060
  H        1.8526560    -2.6398250     0.5898280
  H       -1.8526300    -2.6398320     0.5898440
  H       -3.6057190    -2.3838080     0.5012310
  H       -2.6185400    -1.4170920     1.6153210
units angstrom
no_reorient  #important for SAPT in psi4, default
symmetry c1  #important for SAPT in psi4, default
}

set PROPERTIES_ORIGIN ["COM"]
properties('MP2/aug-cc-pvtz', properties = ['dipole'])
--------------------------------------------------------------------------

    Molecular point group: c1
  Charge       = 0
  Multiplicity = 1
  Basis Set: AUG-CC-PVTZ
    Blend: AUG-CC-PVTZ
  Basis Set: (AUG-CC-PVTZ AUX)
    Blend: AUG-CC-PVTZ-JKFIT

    Orbital Energies [Eh]
    ---------------------

    Doubly Occupied:

       1A    -20.598903     2A    -11.270983     3A    -11.270676
       4A    -11.231207     5A    -11.229831     6A    -11.223042
       7A    -11.222795     8A    -11.216205     9A    -11.213820
      10A    -11.213445    11A    -11.213364    12A     -1.431755
      13A     -1.102922    14A     -1.078202    15A     -1.037517
      16A     -0.987342    17A     -0.933798    18A     -0.924950
      19A     -0.871443    20A     -0.815802    21A     -0.748745
      22A     -0.727271    23A     -0.659868    24A     -0.628734
      25A     -0.611763    26A     -0.609768    27A     -0.585295
      28A     -0.581835    29A     -0.568344    30A     -0.554148
      31A     -0.550474    32A     -0.535329    33A     -0.530077
      34A     -0.524043    35A     -0.512323    36A     -0.505769
      37A     -0.492441    38A     -0.490757    39A     -0.484634
      40A     -0.473910    41A     -0.366355    42A     -0.274973

  @DF-RHF Final Energy:  -463.00924524187286

   => Energetics <=

    Nuclear Repulsion Energy =            630.3584050213712544
    One-Electron Energy =               -1878.5255828375768488
    Two-Electron Energy =                 785.1579325743327900
    Total Energy =                       -463.0092452418728044
  Basis Set: (AUG-CC-PVTZ AUX)
    Blend: AUG-CC-PVTZ-RI
    Molecular point group: c1

    Geometry (in Angstrom), charge = 0, multiplicity = 1:

       Center              X                  Y                   Z               Mass
    ------------   -----------------  -----------------  -----------------  -----------------
         O            0.003948376534    -0.931153125164    -0.496640173614    15.994914619570
         C           -0.714667623466     1.139993874836    -0.005886173614    12.000000000000
         C            0.672544376534     1.139999674836    -0.005880373614    12.000000000000
         C           -1.105309623466    -0.138961125164    -0.311557173614    12.000000000000
         C            1.113199376534    -0.138952125164    -0.311546173614    12.000000000000
         C           -2.415824623466    -0.831550125164    -0.442493173614    12.000000000000
         C            2.423720376534    -0.831527125164    -0.442492173614    12.000000000000
         C           -1.584210623466     2.324942874836     0.273944826386    12.000000000000
         C            1.592075376534     2.324955874836     0.273956826386    12.000000000000
         C           -2.636514623466    -1.882553125164     0.650126826386    12.000000000000
         C            2.644424376534    -1.882541125164     0.650114826386    12.000000000000
         H            3.216650376534    -0.076851125164    -0.407649173614     1.007825032230
         H            2.485214376534    -1.307048125164    -1.429418173614     1.007825032230
         H           -2.477318623466    -1.307083125164    -1.429413173614     1.007825032230
         H           -3.208761623466    -0.076881125164    -0.407655173614     1.007825032230
         H           -1.396541623466     3.134228874836    -0.440251173614     1.007825032230
         H           -2.644074623466     2.063941874836     0.210588826386     1.007825032230
         H           -1.399528623466     2.726088874836     1.276572826386     1.007825032230
         H            2.651942376534     2.063954874836     0.210644826386     1.007825032230
         H            1.404431376534     3.134227874836    -0.440262173614     1.007825032230
         H            1.407357376534     2.726121874836     1.276569826386     1.007825032230
         H            2.622509376534    -1.415901125164     1.638763826386     1.007825032230
         H            3.609686376534    -2.382597125164     0.524655826386     1.007825032230
         H            1.856600376534    -2.638634125164     0.613277826386     1.007825032230
         H           -1.848685623466    -2.638641125164     0.613293826386     1.007825032230
         H           -3.601774623466    -2.382617125164     0.524680826386     1.007825032230
         H           -2.614595623466    -1.415901125164     1.638770826386     1.007825032230

  Basis Set: AUG-CC-PVTZ
    Blend: AUG-CC-PVTZ
  Basis Set: (AUG-CC-PVTZ AUX)
    Blend: AUG-CC-PVTZ-JKFIT
	 Reference Energy          =    -463.0092452418728612 [Eh]
	 Singles Energy            =      -0.0000000000000000 [Eh]
	 Same-Spin Energy          =      -0.4979074400048227 [Eh]
	 Opposite-Spin Energy      =      -1.6678494087682028 [Eh]
	 Correlation Energy        =      -2.1657568487730252 [Eh]
	 Total Energy              =    -465.1750020906458758 [Eh]

	 ================> DF-SCS-MP2 Energies <==================
	-----------------------------------------------------------
	 SCS Same-Spin Scale       =       0.3333333333333333 [-]
	 SCS Opposite-Spin Scale   =       1.2000000000000000 [-]
	 SCS Same-Spin Energy      =      -0.1659691466682742 [Eh]
	 SCS Opposite-Spin Energy  =      -2.0014192905218433 [Eh]
	 SCS Correlation Energy    =      -2.1673884371901173 [Eh]
	 SCS Total Energy          =    -465.1766336790630021 [Eh]
	-----------------------------------------------------------

  Dipole Moment: [D]
     X:    -0.0025      Y:     0.6138      Z:     0.2189     Total:     0.6517

*** Psi4 exiting successfully. Buy a developer a beer!
