                               Psi4 1.3.2 release

  ==> Input File <==

--------------------------------------------------------------------------
#psi4
#
memory 32 gb

molecule  {
0 1
  O        0.0723890     1.0222580     0.5077940
  C       -0.6727251    -1.0204617     0.1325860
  C        0.6883760    -1.0936210     0.0623120
  C       -1.0714850     0.2632460     0.3951280
  C        1.1400710     0.1773790     0.3033030
  C       -2.3153584     1.0664466     0.5345390
  C        2.4849120     0.8120840     0.3409220
  C       -1.6830070    -2.1819480    -0.0885940
  C        1.5125100    -2.3214750    -0.1762480
  C       -2.8486430     1.5569180    -0.8246800
  C        2.8130920     1.5744450    -0.9510270
  H        3.2336060     0.0303330     0.5193890
  H        2.5305840     1.4962520     1.1974230
  H       -2.2159340     1.8224920     1.2344330
  H       -3.1130010     0.3316860     0.9491040
  H       -1.4229750    -3.0387300     0.5441040
  H       -2.7119990    -1.8902510     0.1457090
  H       -1.6650160    -2.5262940    -1.1310850
  H        2.5139960    -2.0634500    -0.5387900
  H        1.6307130    -2.9166200     0.7385330
  H        1.0429930    -2.9642660    -0.9286680
  H        2.8128660     0.8932150    -1.8063400
  H        3.7971100     2.0487280    -0.8855010
  H        2.0638530     2.3513280    -1.1313670
  H       -2.0994070     2.2298930    -1.2537260
  H       -3.7828960     2.1123340    -0.7007770
  H       -3.0218850     0.7415120    -1.5334270
units angstrom
no_reorient  #important for SAPT in psi4, default
symmetry c1  #important for SAPT in psi4, default
}

set PROPERTIES_ORIGIN ["COM"]
properties('MP2/aug-cc-pvtz', properties = ['dipole'])
--------------------------------------------------------------------------

    Molecular point group: c1
  Charge       = 0
  Multiplicity = 1
  Basis Set: AUG-CC-PVTZ
    Blend: AUG-CC-PVTZ
  Basis Set: (AUG-CC-PVTZ AUX)
    Blend: AUG-CC-PVTZ-JKFIT

    Orbital Energies [Eh]
    ---------------------

    Doubly Occupied:

       1A    -20.598086     2A    -11.269133     3A    -11.267521
       4A    -11.232443     5A    -11.229575     6A    -11.224303
       7A    -11.224119     8A    -11.216407     9A    -11.214593
      10A    -11.214236    11A    -11.210948    12A     -1.431387
      13A     -1.106259    14A     -1.077741    15A     -1.037030
      16A     -0.984661    17A     -0.934559    18A     -0.925268
      19A     -0.871797    20A     -0.817097    21A     -0.745942
      22A     -0.733865    23A     -0.659699    24A     -0.628701
      25A     -0.614103    26A     -0.606390    27A     -0.584817
      28A     -0.582918    29A     -0.566880    30A     -0.552627
      31A     -0.546306    32A     -0.536561    33A     -0.528651
      34A     -0.524913    35A     -0.513953    36A     -0.505895
      37A     -0.493502    38A     -0.493282    39A     -0.477434
      40A     -0.472815    41A     -0.370721    42A     -0.274570

  @DF-RHF Final Energy:  -462.99654475675248

   => Energetics <=

    Nuclear Repulsion Energy =            630.3850133172965116
    One-Electron Energy =               -1878.5596933660617651
    Two-Electron Energy =                 785.1781352920129393
    Total Energy =                       -462.9965447567524279
  Basis Set: (AUG-CC-PVTZ AUX)
    Blend: AUG-CC-PVTZ-RI
    Molecular point group: c1

    Geometry (in Angstrom), charge = 0, multiplicity = 1:

       Center              X                  Y                   Z               Mass
    ------------   -----------------  -----------------  -----------------  -----------------
         O            0.063710423747     1.015718783916     0.506188812474    15.994914619570
         C           -0.681403676253    -1.027000916084     0.130980812474    12.000000000000
         C            0.679697423747    -1.100160216084     0.060706812474    12.000000000000
         C           -1.080163576253     0.256706783916     0.393522812474    12.000000000000
         C            1.131392423747     0.170839783916     0.301697812474    12.000000000000
         C           -2.324036976253     1.059907383916     0.532933812474    12.000000000000
         C            2.476233423747     0.805544783916     0.339316812474    12.000000000000
         C           -1.691685576253    -2.188487216084    -0.090199187526    12.000000000000
         C            1.503831423747    -2.328014216084    -0.177853187526    12.000000000000
         C           -2.857321576253     1.550378783916    -0.826285187526    12.000000000000
         C            2.804413423747     1.567905783916    -0.952632187526    12.000000000000
         H            3.224927423747     0.023793783916     0.517783812474     1.007825032230
         H            2.521905423747     1.489712783916     1.195817812474     1.007825032230
         H           -2.224612576253     1.815952783916     1.232827812474     1.007825032230
         H           -3.121679576253     0.325146783916     0.947498812474     1.007825032230
         H           -1.431653576253    -3.045269216084     0.542498812474     1.007825032230
         H           -2.720677576253    -1.896790216084     0.144103812474     1.007825032230
         H           -1.673694576253    -2.532833216084    -1.132690187526     1.007825032230
         H            2.505317423747    -2.069989216084    -0.540395187526     1.007825032230
         H            1.622034423747    -2.923159216084     0.736927812474     1.007825032230
         H            1.034314423747    -2.970805216084    -0.930273187526     1.007825032230
         H            2.804187423747     0.886675783916    -1.807945187526     1.007825032230
         H            3.788431423747     2.042188783916    -0.887106187526     1.007825032230
         H            2.055174423747     2.344788783916    -1.132972187526     1.007825032230
         H           -2.108085576253     2.223353783916    -1.255331187526     1.007825032230
         H           -3.791574576253     2.105794783916    -0.702382187526     1.007825032230
         H           -3.030563576253     0.734972783916    -1.535032187526     1.007825032230

  Basis Set: AUG-CC-PVTZ
    Blend: AUG-CC-PVTZ
  Basis Set: (AUG-CC-PVTZ AUX)
    Blend: AUG-CC-PVTZ-JKFIT
	 Reference Energy          =    -462.9965447567524848 [Eh]
	 Singles Energy            =      -0.0000000000000000 [Eh]
	 Same-Spin Energy          =      -0.4982221795434782 [Eh]
	 Opposite-Spin Energy      =      -1.6686133135755730 [Eh]
	 Correlation Energy        =      -2.1668354931190512 [Eh]
	 Total Energy              =    -465.1633802498715227 [Eh]

	 ================> DF-SCS-MP2 Energies <==================
	-----------------------------------------------------------
	 SCS Same-Spin Scale       =       0.3333333333333333 [-]
	 SCS Opposite-Spin Scale   =       1.2000000000000000 [-]
	 SCS Same-Spin Energy      =      -0.1660740598478261 [Eh]
	 SCS Opposite-Spin Energy  =      -2.0023359762906874 [Eh]
	 SCS Correlation Energy    =      -2.1684100361385132 [Eh]
	 SCS Total Energy          =    -465.1649547928910238 [Eh]
	-----------------------------------------------------------

  Dipole Moment: [D]
     X:     0.0135      Y:    -0.5905      Z:    -0.2121     Total:     0.6276

*** Psi4 exiting successfully. Buy a developer a beer!
