                               Psi4 1.3.2 release

  ==> Input File <==

--------------------------------------------------------------------------
#psi4
#
memory 32 gb

molecule  {
0 1
  O        0.0723890     1.0222580     0.5077940
  C       -0.7418240    -1.0387750     0.1269710
  C        0.6893338    -1.0692046     0.0676209
  C       -1.0714850     0.2632460     0.3951280
  C        1.1400710     0.1773790     0.3033030
  C       -2.3562760     1.0018630     0.5198060
  C        2.4849120     0.8120840     0.3409220
  C       -1.7031447    -2.1658734    -0.0843342
  C        1.5125100    -2.3214750    -0.1762480
  C       -2.8486430     1.5569180    -0.8246800
  C        2.8130920     1.5744450    -0.9510270
  H        3.2336060     0.0303330     0.5193890
  H        2.5305840     1.4962520     1.1974230
  H       -2.2159340     1.8224920     1.2344330
  H       -3.1130010     0.3316860     0.9491040
  H       -1.4229750    -3.0387300     0.5441040
  H       -2.7119990    -1.8902510     0.1457090
  H       -1.6650160    -2.5262940    -1.1310850
  H        2.5139960    -2.0634500    -0.5387900
  H        1.6307130    -2.9166200     0.7385330
  H        1.0429930    -2.9642660    -0.9286680
  H        2.8128660     0.8932150    -1.8063400
  H        3.7971100     2.0487280    -0.8855010
  H        2.0638530     2.3513280    -1.1313670
  H       -2.0994070     2.2298930    -1.2537260
  H       -3.7828960     2.1123340    -0.7007770
  H       -3.0218850     0.7415120    -1.5334270
units angstrom
no_reorient  #important for SAPT in psi4, default
symmetry c1  #important for SAPT in psi4, default
}

set PROPERTIES_ORIGIN ["COM"]
properties('MP2/aug-cc-pvtz', properties = ['dipole'])
--------------------------------------------------------------------------

    Molecular point group: c1
  Charge       = 0
  Multiplicity = 1
  Basis Set: AUG-CC-PVTZ
    Blend: AUG-CC-PVTZ
  Basis Set: (AUG-CC-PVTZ AUX)
    Blend: AUG-CC-PVTZ-JKFIT

    Orbital Energies [Eh]
    ---------------------

    Doubly Occupied:

       1A    -20.596703     2A    -11.269390     3A    -11.266205
       4A    -11.230128     5A    -11.230026     6A    -11.223904
       7A    -11.223602     8A    -11.215671     9A    -11.215282
      10A    -11.214701    11A    -11.214142    12A     -1.429592
      13A     -1.098800    14A     -1.079614    15A     -1.036154
      16A     -0.989405    17A     -0.932659    18A     -0.927647
      19A     -0.870354    20A     -0.817058    21A     -0.750131
      22A     -0.721642    23A     -0.658134    24A     -0.627407
      25A     -0.610832    26A     -0.609610    27A     -0.586899
      28A     -0.583779    29A     -0.565013    30A     -0.554563
      31A     -0.550072    32A     -0.534140    33A     -0.527156
      34A     -0.521261    35A     -0.520433    36A     -0.505446
      37A     -0.495805    38A     -0.493258    39A     -0.483820
      40A     -0.468724    41A     -0.362055    42A     -0.281710

  @DF-RHF Final Energy:  -463.01194544474026

   => Energetics <=

    Nuclear Repulsion Energy =            629.9073891328774835
    One-Electron Energy =               -1877.6528167717958695
    Two-Electron Energy =                 784.7334821941782366
    Total Energy =                       -463.0119454447402632
  Basis Set: (AUG-CC-PVTZ AUX)
    Blend: AUG-CC-PVTZ-RI
    Molecular point group: c1

    Geometry (in Angstrom), charge = 0, multiplicity = 1:

       Center              X                  Y                   Z               Mass
    ------------   -----------------  -----------------  -----------------  -----------------
         O            0.073902085767     1.019063974653     0.507039137889    15.994914619570
         C           -0.740310914233    -1.041969025347     0.126216137889    12.000000000000
         C            0.690846885767    -1.072398625347     0.066866037889    12.000000000000
         C           -1.069971914233     0.260051974653     0.394373137889    12.000000000000
         C            1.141584085767     0.174184974653     0.302548137889    12.000000000000
         C           -2.354762914233     0.998668974653     0.519051137889    12.000000000000
         C            2.486425085767     0.808889974653     0.340167137889    12.000000000000
         C           -1.701631614233    -2.169067425347    -0.085089062111    12.000000000000
         C            1.514023085767    -2.324669025347    -0.177002862111    12.000000000000
         C           -2.847129914233     1.553723974653    -0.825434862111    12.000000000000
         C            2.814605085767     1.571250974653    -0.951781862111    12.000000000000
         H            3.235119085767     0.027138974653     0.518634137889     1.007825032230
         H            2.532097085767     1.493057974653     1.196668137889     1.007825032230
         H           -2.214420914233     1.819297974653     1.233678137889     1.007825032230
         H           -3.111487914233     0.328491974653     0.948349137889     1.007825032230
         H           -1.421461914233    -3.041924025347     0.543349137889     1.007825032230
         H           -2.710485914233    -1.893445025347     0.144954137889     1.007825032230
         H           -1.663502914233    -2.529488025347    -1.131839862111     1.007825032230
         H            2.515509085767    -2.066644025347    -0.539544862111     1.007825032230
         H            1.632226085767    -2.919814025347     0.737778137889     1.007825032230
         H            1.044506085767    -2.967460025347    -0.929422862111     1.007825032230
         H            2.814379085767     0.890020974653    -1.807094862111     1.007825032230
         H            3.798623085767     2.045533974653    -0.886255862111     1.007825032230
         H            2.065366085767     2.348133974653    -1.132121862111     1.007825032230
         H           -2.097893914233     2.226698974653    -1.254480862111     1.007825032230
         H           -3.781382914233     2.109139974653    -0.701531862111     1.007825032230
         H           -3.020371914233     0.738317974653    -1.534181862111     1.007825032230

  Basis Set: AUG-CC-PVTZ
    Blend: AUG-CC-PVTZ
  Basis Set: (AUG-CC-PVTZ AUX)
    Blend: AUG-CC-PVTZ-JKFIT
	 Reference Energy          =    -463.0119454447402632 [Eh]
	 Singles Energy            =      -0.0000000000000000 [Eh]
	 Same-Spin Energy          =      -0.4964921593960499 [Eh]
	 Opposite-Spin Energy      =      -1.6662704608032819 [Eh]
	 Correlation Energy        =      -2.1627626201993317 [Eh]
	 Total Energy              =    -465.1747080649395798 [Eh]

	 ================> DF-SCS-MP2 Energies <==================
	-----------------------------------------------------------
	 SCS Same-Spin Scale       =       0.3333333333333333 [-]
	 SCS Opposite-Spin Scale   =       1.2000000000000000 [-]
	 SCS Same-Spin Energy      =      -0.1654973864653499 [Eh]
	 SCS Opposite-Spin Energy  =      -1.9995245529639383 [Eh]
	 SCS Correlation Energy    =      -2.1650219394292884 [Eh]
	 SCS Total Energy          =    -465.1769673841695294 [Eh]
	-----------------------------------------------------------

  Dipole Moment: [D]
     X:    -0.0459      Y:    -0.6428      Z:    -0.2177     Total:     0.6802

*** Psi4 exiting successfully. Buy a developer a beer!
