                               Psi4 1.3.2 release

  ==> Input File <==

--------------------------------------------------------------------------
#psi4
#
memory 32 gb

molecule  {
0 1
  O        0.0723890     1.0222580     0.5077940
  C       -0.7186812    -1.0330648     0.1287617
  C        0.6883760    -1.0936210     0.0623120
  C       -1.0714850     0.2632460     0.3951280
  C        1.1400710     0.1773790     0.3033030
  C       -2.3430227     1.0236247     0.5247570
  C        2.4849120     0.8120840     0.3409220
  C       -1.6830070    -2.1819480    -0.0885940
  C        1.5125100    -2.3214750    -0.1762480
  C       -2.8486430     1.5569180    -0.8246800
  C        2.8130920     1.5744450    -0.9510270
  H        3.2336060     0.0303330     0.5193890
  H        2.5305840     1.4962520     1.1974230
  H       -2.2159340     1.8224920     1.2344330
  H       -3.1130010     0.3316860     0.9491040
  H       -1.4229750    -3.0387300     0.5441040
  H       -2.7119990    -1.8902510     0.1457090
  H       -1.6650160    -2.5262940    -1.1310850
  H        2.5139960    -2.0634500    -0.5387900
  H        1.6307130    -2.9166200     0.7385330
  H        1.0429930    -2.9642660    -0.9286680
  H        2.8128660     0.8932150    -1.8063400
  H        3.7971100     2.0487280    -0.8855010
  H        2.0638530     2.3513280    -1.1313670
  H       -2.0994070     2.2298930    -1.2537260
  H       -3.7828960     2.1123340    -0.7007770
  H       -3.0218850     0.7415120    -1.5334270
units angstrom
no_reorient  #important for SAPT in psi4, default
symmetry c1  #important for SAPT in psi4, default
}

set PROPERTIES_ORIGIN ["COM"]
properties('MP2/aug-cc-pvtz', properties = ['dipole'])
--------------------------------------------------------------------------

    Molecular point group: c1
  Charge       = 0
  Multiplicity = 1
  Basis Set: AUG-CC-PVTZ
    Blend: AUG-CC-PVTZ
  Basis Set: (AUG-CC-PVTZ AUX)
    Blend: AUG-CC-PVTZ-JKFIT

    Orbital Energies [Eh]
    ---------------------

    Doubly Occupied:

       1A    -20.598390     2A    -11.269288     3A    -11.268814
       4A    -11.230719     5A    -11.229820     6A    -11.223602
       7A    -11.223251     8A    -11.215693     9A    -11.215277
      10A    -11.214618    11A    -11.214039    12A     -1.430158
      13A     -1.100760    14A     -1.078525    15A     -1.036481
      16A     -0.988188    17A     -0.932900    18A     -0.926987
      19A     -0.870639    20A     -0.815825    21A     -0.748177
      22A     -0.725672    23A     -0.658097    24A     -0.627614
      25A     -0.611486    26A     -0.609105    27A     -0.585560
      28A     -0.584039    29A     -0.567282    30A     -0.554831
      31A     -0.548357    32A     -0.534179    33A     -0.527154
      34A     -0.523242    35A     -0.519351    36A     -0.505365
      37A     -0.495189    38A     -0.493016    39A     -0.481589
      40A     -0.471804    41A     -0.363898    42A     -0.277503

  @DF-RHF Final Energy:  -463.01001068638288

   => Energetics <=

    Nuclear Repulsion Energy =            629.8322237134511852
    One-Electron Energy =               -1877.4914966267688214
    Two-Electron Energy =                 784.6492622269347521
    Total Energy =                       -463.0100106863828842
  Basis Set: (AUG-CC-PVTZ AUX)
    Blend: AUG-CC-PVTZ-RI
    Molecular point group: c1

    Geometry (in Angstrom), charge = 0, multiplicity = 1:

       Center              X                  Y                   Z               Mass
    ------------   -----------------  -----------------  -----------------  -----------------
         O            0.069517971284     1.020090986760     0.507262145872    15.994914619570
         C           -0.721552228716    -1.035231813240     0.128229845872    12.000000000000
         C            0.685504971284    -1.095788013240     0.061780145872    12.000000000000
         C           -1.074356028716     0.261078986760     0.394596145872    12.000000000000
         C            1.137199971284     0.175211986760     0.302771145872    12.000000000000
         C           -2.345893728716     1.021457686760     0.524225145872    12.000000000000
         C            2.482040971284     0.809916986760     0.340390145872    12.000000000000
         C           -1.685878028716    -2.184115013240    -0.089125854128    12.000000000000
         C            1.509638971284    -2.323642013240    -0.176779854128    12.000000000000
         C           -2.851514028716     1.554750986760    -0.825211854128    12.000000000000
         C            2.810220971284     1.572277986760    -0.951558854128    12.000000000000
         H            3.230734971284     0.028165986760     0.518857145872     1.007825032230
         H            2.527712971284     1.494084986760     1.196891145872     1.007825032230
         H           -2.218805028716     1.820324986760     1.233901145872     1.007825032230
         H           -3.115872028716     0.329518986760     0.948572145872     1.007825032230
         H           -1.425846028716    -3.040897013240     0.543572145872     1.007825032230
         H           -2.714870028716    -1.892418013240     0.145177145872     1.007825032230
         H           -1.667887028716    -2.528461013240    -1.131616854128     1.007825032230
         H            2.511124971284    -2.065617013240    -0.539321854128     1.007825032230
         H            1.627841971284    -2.918787013240     0.738001145872     1.007825032230
         H            1.040121971284    -2.966433013240    -0.929199854128     1.007825032230
         H            2.809994971284     0.891047986760    -1.806871854128     1.007825032230
         H            3.794238971284     2.046560986760    -0.886032854128     1.007825032230
         H            2.060981971284     2.349160986760    -1.131898854128     1.007825032230
         H           -2.102278028716     2.227725986760    -1.254257854128     1.007825032230
         H           -3.785767028716     2.110166986760    -0.701308854128     1.007825032230
         H           -3.024756028716     0.739344986760    -1.533958854128     1.007825032230

  Basis Set: AUG-CC-PVTZ
    Blend: AUG-CC-PVTZ
  Basis Set: (AUG-CC-PVTZ AUX)
    Blend: AUG-CC-PVTZ-JKFIT
	 Reference Energy          =    -463.0100106863828842 [Eh]
	 Singles Energy            =      -0.0000000000000000 [Eh]
	 Same-Spin Energy          =      -0.4973868704856300 [Eh]
	 Opposite-Spin Energy      =      -1.6674385919784904 [Eh]
	 Correlation Energy        =      -2.1648254624641203 [Eh]
	 Total Energy              =    -465.1748361488470209 [Eh]

	 ================> DF-SCS-MP2 Energies <==================
	-----------------------------------------------------------
	 SCS Same-Spin Scale       =       0.3333333333333333 [-]
	 SCS Opposite-Spin Scale   =       1.2000000000000000 [-]
	 SCS Same-Spin Energy      =      -0.1657956234952100 [Eh]
	 SCS Opposite-Spin Energy  =      -2.0009263103741883 [Eh]
	 SCS Correlation Energy    =      -2.1667219338693982 [Eh]
	 SCS Total Energy          =    -465.1767326202522668 [Eh]
	-----------------------------------------------------------

  Dipole Moment: [D]
     X:    -0.0197      Y:    -0.6311      Z:    -0.2127     Total:     0.6663

*** Psi4 exiting successfully. Buy a developer a beer!
