                               Psi4 1.3.2 release

  ==> Input File <==

--------------------------------------------------------------------------
#psi4
#
memory 32 gb

molecule  {
0 1
  O        0.0723890     1.0222580     0.5077940
  C       -0.7418240    -1.0387750     0.1269710
  C        0.6883760    -1.0936210     0.0623120
  C       -1.0714850     0.2632460     0.3951280
  C        1.1400710     0.1773790     0.3033030
  C       -2.3562760     1.0018630     0.5198060
  C        2.4849120     0.8120840     0.3409220
  C       -1.7459045    -2.2583442    -0.1029998
  C        1.5125100    -2.3214750    -0.1762480
  C       -2.8486430     1.5569180    -0.8246800
  C        2.8130920     1.5744450    -0.9510270
  H        3.2336060     0.0303330     0.5193890
  H        2.5305840     1.4962520     1.1974230
  H       -2.2159340     1.8224920     1.2344330
  H       -3.1130010     0.3316860     0.9491040
  H       -1.4229750    -3.0387300     0.5441040
  H       -2.7119990    -1.8902510     0.1457090
  H       -1.6650160    -2.5262940    -1.1310850
  H        2.5139960    -2.0634500    -0.5387900
  H        1.6307130    -2.9166200     0.7385330
  H        1.0429930    -2.9642660    -0.9286680
  H        2.8128660     0.8932150    -1.8063400
  H        3.7971100     2.0487280    -0.8855010
  H        2.0638530     2.3513280    -1.1313670
  H       -2.0994070     2.2298930    -1.2537260
  H       -3.7828960     2.1123340    -0.7007770
  H       -3.0218850     0.7415120    -1.5334270
units angstrom
no_reorient  #important for SAPT in psi4, default
symmetry c1  #important for SAPT in psi4, default
}

set PROPERTIES_ORIGIN ["COM"]
properties('MP2/aug-cc-pvtz', properties = ['dipole'])
--------------------------------------------------------------------------

    Molecular point group: c1
  Charge       = 0
  Multiplicity = 1
  Basis Set: AUG-CC-PVTZ
    Blend: AUG-CC-PVTZ
  Basis Set: (AUG-CC-PVTZ AUX)
    Blend: AUG-CC-PVTZ-JKFIT

    Orbital Energies [Eh]
    ---------------------

    Doubly Occupied:

       1A    -20.598080     2A    -11.268812     3A    -11.268766
       4A    -11.229843     5A    -11.229605     6A    -11.222746
       7A    -11.221894     8A    -11.219136     9A    -11.215622
      10A    -11.215264    11A    -11.214335    12A     -1.429032
      13A     -1.092907    14A     -1.077416    15A     -1.035494
      16A     -0.985712    17A     -0.934939    18A     -0.927887
      19A     -0.869803    20A     -0.815464    21A     -0.748350
      22A     -0.718573    23A     -0.655716    24A     -0.626295
      25A     -0.610623    26A     -0.607899    27A     -0.586598
      28A     -0.585585    29A     -0.577746    30A     -0.560267
      31A     -0.555166    32A     -0.534967    33A     -0.528358
      34A     -0.521832    35A     -0.506824    36A     -0.504966
      37A     -0.495558    38A     -0.488817    39A     -0.482265
      40A     -0.467087    41A     -0.362503    42A     -0.278773

  @DF-RHF Final Energy:  -463.00494037268186

   => Energetics <=

    Nuclear Repulsion Energy =            627.7110147477879991
    One-Electron Energy =               -1873.2768626375752774
    Two-Electron Energy =                 782.5609075171053064
    Total Energy =                       -463.0049403726818582
  Basis Set: (AUG-CC-PVTZ AUX)
    Blend: AUG-CC-PVTZ-RI
    Molecular point group: c1

    Geometry (in Angstrom), charge = 0, multiplicity = 1:

       Center              X                  Y                   Z               Mass
    ------------   -----------------  -----------------  -----------------  -----------------
         O            0.077350749999     1.028284625050     0.508930367065    15.994914619570
         C           -0.736862250001    -1.032748374950     0.128107367065    12.000000000000
         C            0.693337749999    -1.087594374950     0.063448367065    12.000000000000
         C           -1.066523250001     0.269272625050     0.396264367065    12.000000000000
         C            1.145032749999     0.183405625050     0.304439367065    12.000000000000
         C           -2.351314250001     1.007889625050     0.520942367065    12.000000000000
         C            2.489873749999     0.818110625050     0.342058367065    12.000000000000
         C           -1.740942750001    -2.252317574950    -0.101863432935    12.000000000000
         C            1.517471749999    -2.315448374950    -0.175111632935    12.000000000000
         C           -2.843681250001     1.562944625050    -0.823543632935    12.000000000000
         C            2.818053749999     1.580471625050    -0.949890632935    12.000000000000
         H            3.238567749999     0.036359625050     0.520525367065     1.007825032230
         H            2.535545749999     1.502278625050     1.198559367065     1.007825032230
         H           -2.210972250001     1.828518625050     1.235569367065     1.007825032230
         H           -3.108039250001     0.337712625050     0.950240367065     1.007825032230
         H           -1.418013250001    -3.032703374950     0.545240367065     1.007825032230
         H           -2.707037250001    -1.884224374950     0.146845367065     1.007825032230
         H           -1.660054250001    -2.520267374950    -1.129948632935     1.007825032230
         H            2.518957749999    -2.057423374950    -0.537653632935     1.007825032230
         H            1.635674749999    -2.910593374950     0.739669367065     1.007825032230
         H            1.047954749999    -2.958239374950    -0.927531632935     1.007825032230
         H            2.817827749999     0.899241625050    -1.805203632935     1.007825032230
         H            3.802071749999     2.054754625050    -0.884364632935     1.007825032230
         H            2.068814749999     2.357354625050    -1.130230632935     1.007825032230
         H           -2.094445250001     2.235919625050    -1.252589632935     1.007825032230
         H           -3.777934250001     2.118360625050    -0.699640632935     1.007825032230
         H           -3.016923250001     0.747538625050    -1.532290632935     1.007825032230

  Basis Set: AUG-CC-PVTZ
    Blend: AUG-CC-PVTZ
  Basis Set: (AUG-CC-PVTZ AUX)
    Blend: AUG-CC-PVTZ-JKFIT
	 Reference Energy          =    -463.0049403726818582 [Eh]
	 Singles Energy            =      -0.0000000000000000 [Eh]
	 Same-Spin Energy          =      -0.4965874875422871 [Eh]
	 Opposite-Spin Energy      =      -1.6670192931211880 [Eh]
	 Correlation Energy        =      -2.1636067806634749 [Eh]
	 Total Energy              =    -465.1685471533453438 [Eh]

	 ================> DF-SCS-MP2 Energies <==================
	-----------------------------------------------------------
	 SCS Same-Spin Scale       =       0.3333333333333333 [-]
	 SCS Opposite-Spin Scale   =       1.2000000000000000 [-]
	 SCS Same-Spin Energy      =      -0.1655291625140957 [Eh]
	 SCS Opposite-Spin Energy  =      -2.0004231517454256 [Eh]
	 SCS Correlation Energy    =      -2.1659523142595214 [Eh]
	 SCS Total Energy          =    -465.1708926869413858 [Eh]
	-----------------------------------------------------------

  Dipole Moment: [D]
     X:    -0.0414      Y:    -0.6743      Z:    -0.2195     Total:     0.7103

*** Psi4 exiting successfully. Buy a developer a beer!
