                               Psi4 1.3.2 release

  ==> Input File <==

--------------------------------------------------------------------------
#psi4
#
memory 32 gb

molecule  {
0 1
  O        0.0723890     1.0222580     0.5077940
  C       -0.7418240    -1.0387750     0.1269710
  C        0.6883760    -1.0936210     0.0623120
  C       -1.0482376     0.2687607     0.3958657
  C        1.1400710     0.1773790     0.3033030
  C       -2.3562760     1.0018630     0.5198060
  C        2.4849120     0.8120840     0.3409220
  C       -1.6625651    -2.1978134    -0.0921268
  C        1.5125100    -2.3214750    -0.1762480
  C       -2.8486430     1.5569180    -0.8246800
  C        2.8130920     1.5744450    -0.9510270
  H        3.2336060     0.0303330     0.5193890
  H        2.5305840     1.4962520     1.1974230
  H       -2.2159340     1.8224920     1.2344330
  H       -3.1130010     0.3316860     0.9491040
  H       -1.4229750    -3.0387300     0.5441040
  H       -2.7119990    -1.8902510     0.1457090
  H       -1.6650160    -2.5262940    -1.1310850
  H        2.5139960    -2.0634500    -0.5387900
  H        1.6307130    -2.9166200     0.7385330
  H        1.0429930    -2.9642660    -0.9286680
  H        2.8128660     0.8932150    -1.8063400
  H        3.7971100     2.0487280    -0.8855010
  H        2.0638530     2.3513280    -1.1313670
  H       -2.0994070     2.2298930    -1.2537260
  H       -3.7828960     2.1123340    -0.7007770
  H       -3.0218850     0.7415120    -1.5334270
units angstrom
no_reorient  #important for SAPT in psi4, default
symmetry c1  #important for SAPT in psi4, default
}

set PROPERTIES_ORIGIN ["COM"]
properties('MP2/aug-cc-pvtz', properties = ['dipole'])
--------------------------------------------------------------------------

    Molecular point group: c1
  Charge       = 0
  Multiplicity = 1
  Basis Set: AUG-CC-PVTZ
    Blend: AUG-CC-PVTZ
  Basis Set: (AUG-CC-PVTZ AUX)
    Blend: AUG-CC-PVTZ-JKFIT

    Orbital Energies [Eh]
    ---------------------

    Doubly Occupied:

       1A    -20.602195     2A    -11.270535     3A    -11.268201
       4A    -11.230360     5A    -11.229762     6A    -11.223353
       7A    -11.222942     8A    -11.216108     9A    -11.215226
      10A    -11.214472    11A    -11.213582    12A     -1.439534
      13A     -1.099470    14A     -1.077530    15A     -1.034924
      16A     -0.989251    17A     -0.933700    18A     -0.928659
      19A     -0.868648    20A     -0.815128    21A     -0.753576
      22A     -0.721314    23A     -0.659977    24A     -0.630896
      25A     -0.610503    26A     -0.608547    27A     -0.587580
      28A     -0.582686    29A     -0.571349    30A     -0.558189
      31A     -0.546246    32A     -0.533037    33A     -0.530397
      34A     -0.525593    35A     -0.520773    36A     -0.505474
      37A     -0.494507    38A     -0.490582    39A     -0.484286
      40A     -0.462910    41A     -0.361491    42A     -0.278928

  @DF-RHF Final Energy:  -463.01159810579526

   => Energetics <=

    Nuclear Repulsion Energy =            629.8481289925728106
    One-Electron Energy =               -1877.4946101352140886
    Two-Electron Energy =                 784.6348830368460767
    Total Energy =                       -463.0115981057952013
  Basis Set: (AUG-CC-PVTZ AUX)
    Blend: AUG-CC-PVTZ-RI
    Molecular point group: c1

    Geometry (in Angstrom), charge = 0, multiplicity = 1:

       Center              X                  Y                   Z               Mass
    ------------   -----------------  -----------------  -----------------  -----------------
         O            0.068942646976     1.023074623734     0.508014456635    15.994914619570
         C           -0.745270353024    -1.037958376266     0.127191456635    12.000000000000
         C            0.684929646976    -1.092804376266     0.062532456635    12.000000000000
         C           -1.051683953024     0.269577323734     0.396086156635    12.000000000000
         C            1.136624646976     0.178195623734     0.303523456635    12.000000000000
         C           -2.359722353024     1.002679623734     0.520026456635    12.000000000000
         C            2.481465646976     0.812900623734     0.341142456635    12.000000000000
         C           -1.666011453024    -2.196996776266    -0.091906343365    12.000000000000
         C            1.509063646976    -2.320658376266    -0.176027543365    12.000000000000
         C           -2.852089353024     1.557734623734    -0.824459543365    12.000000000000
         C            2.809645646976     1.575261623734    -0.950806543365    12.000000000000
         H            3.230159646976     0.031149623734     0.519609456635     1.007825032230
         H            2.527137646976     1.497068623734     1.197643456635     1.007825032230
         H           -2.219380353024     1.823308623734     1.234653456635     1.007825032230
         H           -3.116447353024     0.332502623734     0.949324456635     1.007825032230
         H           -1.426421353024    -3.037913376266     0.544324456635     1.007825032230
         H           -2.715445353024    -1.889434376266     0.145929456635     1.007825032230
         H           -1.668462353024    -2.525477376266    -1.130864543365     1.007825032230
         H            2.510549646976    -2.062633376266    -0.538569543365     1.007825032230
         H            1.627266646976    -2.915803376266     0.738753456635     1.007825032230
         H            1.039546646976    -2.963449376266    -0.928447543365     1.007825032230
         H            2.809419646976     0.894031623734    -1.806119543365     1.007825032230
         H            3.793663646976     2.049544623734    -0.885280543365     1.007825032230
         H            2.060406646976     2.352144623734    -1.131146543365     1.007825032230
         H           -2.102853353024     2.230709623734    -1.253505543365     1.007825032230
         H           -3.786342353024     2.113150623734    -0.700556543365     1.007825032230
         H           -3.025331353024     0.742328623734    -1.533206543365     1.007825032230

  Basis Set: AUG-CC-PVTZ
    Blend: AUG-CC-PVTZ
  Basis Set: (AUG-CC-PVTZ AUX)
    Blend: AUG-CC-PVTZ-JKFIT
	 Reference Energy          =    -463.0115981057952581 [Eh]
	 Singles Energy            =      -0.0000000000000000 [Eh]
	 Same-Spin Energy          =      -0.4969058648413919 [Eh]
	 Opposite-Spin Energy      =      -1.6665881423213784 [Eh]
	 Correlation Energy        =      -2.1634940071627704 [Eh]
	 Total Energy              =    -465.1750921129580547 [Eh]

	 ================> DF-SCS-MP2 Energies <==================
	-----------------------------------------------------------
	 SCS Same-Spin Scale       =       0.3333333333333333 [-]
	 SCS Opposite-Spin Scale   =       1.2000000000000000 [-]
	 SCS Same-Spin Energy      =      -0.1656352882804640 [Eh]
	 SCS Opposite-Spin Energy  =      -1.9999057707856540 [Eh]
	 SCS Correlation Energy    =      -2.1655410590661179 [Eh]
	 SCS Total Energy          =    -465.1771391648613871 [Eh]
	-----------------------------------------------------------

  Dipole Moment: [D]
     X:     0.0135      Y:    -0.6526      Z:    -0.2119     Total:     0.6863

*** Psi4 exiting successfully. Buy a developer a beer!
