                               Psi4 1.3.2 release

  ==> Input File <==

--------------------------------------------------------------------------
#psi4
#
memory 32 gb

molecule  {
0 1
  O        0.0723890     1.0222580     0.5077940
  C       -0.7418240    -1.0387750     0.1269710
  C        0.6883760    -1.0936210     0.0623120
  C       -1.0716791     0.2608690     0.4078853
  C        1.1400710     0.1773790     0.3033030
  C       -2.3562760     1.0018630     0.5198060
  C        2.4849120     0.8120840     0.3409220
  C       -1.6830070    -2.1819480    -0.0885940
  C        1.5125100    -2.3214750    -0.1762480
  C       -2.8593752     1.5620931    -0.8185465
  C        2.8130920     1.5744450    -0.9510270
  H        3.2336060     0.0303330     0.5193890
  H        2.5305840     1.4962520     1.1974230
  H       -2.2159340     1.8224920     1.2344330
  H       -3.1130010     0.3316860     0.9491040
  H       -1.4229750    -3.0387300     0.5441040
  H       -2.7119990    -1.8902510     0.1457090
  H       -1.6650160    -2.5262940    -1.1310850
  H        2.5139960    -2.0634500    -0.5387900
  H        1.6307130    -2.9166200     0.7385330
  H        1.0429930    -2.9642660    -0.9286680
  H        2.8128660     0.8932150    -1.8063400
  H        3.7971100     2.0487280    -0.8855010
  H        2.0638530     2.3513280    -1.1313670
  H       -2.0994070     2.2298930    -1.2537260
  H       -3.7828960     2.1123340    -0.7007770
  H       -3.0218850     0.7415120    -1.5334270
units angstrom
no_reorient  #important for SAPT in psi4, default
symmetry c1  #important for SAPT in psi4, default
}

set PROPERTIES_ORIGIN ["COM"]
properties('MP2/aug-cc-pvtz', properties = ['dipole'])
--------------------------------------------------------------------------

    Molecular point group: c1
  Charge       = 0
  Multiplicity = 1
  Basis Set: AUG-CC-PVTZ
    Blend: AUG-CC-PVTZ
  Basis Set: (AUG-CC-PVTZ AUX)
    Blend: AUG-CC-PVTZ-JKFIT

    Orbital Energies [Eh]
    ---------------------

    Doubly Occupied:

       1A    -20.598602     2A    -11.269747     3A    -11.269702
       4A    -11.230079     5A    -11.229999     6A    -11.223252
       7A    -11.222951     8A    -11.216408     9A    -11.215580
      10A    -11.215416    11A    -11.214736    12A     -1.429532
      13A     -1.098813    14A     -1.078731    15A     -1.036085
      16A     -0.990170    17A     -0.932383    18A     -0.927838
      19A     -0.870417    20A     -0.815521    21A     -0.749332
      22A     -0.721727    23A     -0.657916    24A     -0.627188
      25A     -0.611104    26A     -0.609094    27A     -0.586972
      28A     -0.583606    29A     -0.567807    30A     -0.555869
      31A     -0.549508    32A     -0.535333    33A     -0.528401
      34A     -0.523926    35A     -0.521143    36A     -0.504663
      37A     -0.494762    38A     -0.492740    39A     -0.482815
      40A     -0.467371    41A     -0.360745    42A     -0.279195

  @DF-RHF Final Energy:  -463.01170811274869

   => Energetics <=

    Nuclear Repulsion Energy =            629.4210034258584301
    One-Electron Energy =               -1876.6710635699141676
    Two-Electron Energy =                 784.2383520313069312
    Total Energy =                       -463.0117081127486927
  Basis Set: (AUG-CC-PVTZ AUX)
    Blend: AUG-CC-PVTZ-RI
    Molecular point group: c1

    Geometry (in Angstrom), charge = 0, multiplicity = 1:

       Center              X                  Y                   Z               Mass
    ------------   -----------------  -----------------  -----------------  -----------------
         O            0.073251000275     1.022037380238     0.506303763741    15.994914619570
         C           -0.740961999725    -1.038995619762     0.125480763741    12.000000000000
         C            0.689238000275    -1.093841619762     0.060821763741    12.000000000000
         C           -1.070817099725     0.260648380238     0.406395063741    12.000000000000
         C            1.140933000275     0.177158380238     0.301812763741    12.000000000000
         C           -2.355413999725     1.001642380238     0.518315763741    12.000000000000
         C            2.485774000275     0.811863380238     0.339431763741    12.000000000000
         C           -1.682144999725    -2.182168619762    -0.090084236259    12.000000000000
         C            1.513372000275    -2.321695619762    -0.177738236259    12.000000000000
         C           -2.858513199725     1.561872480238    -0.820036736259    12.000000000000
         C            2.813954000275     1.574224380238    -0.952517236259    12.000000000000
         H            3.234468000275     0.030112380238     0.517898763741     1.007825032230
         H            2.531446000275     1.496031380238     1.195932763741     1.007825032230
         H           -2.215071999725     1.822271380238     1.232942763741     1.007825032230
         H           -3.112138999725     0.331465380238     0.947613763741     1.007825032230
         H           -1.422112999725    -3.038950619762     0.542613763741     1.007825032230
         H           -2.711136999725    -1.890471619762     0.144218763741     1.007825032230
         H           -1.664153999725    -2.526514619762    -1.132575236259     1.007825032230
         H            2.514858000275    -2.063670619762    -0.540280236259     1.007825032230
         H            1.631575000275    -2.916840619762     0.737042763741     1.007825032230
         H            1.043855000275    -2.964486619762    -0.930158236259     1.007825032230
         H            2.813728000275     0.892994380238    -1.807830236259     1.007825032230
         H            3.797972000275     2.048507380238    -0.886991236259     1.007825032230
         H            2.064715000275     2.351107380238    -1.132857236259     1.007825032230
         H           -2.098544999725     2.229672380238    -1.255216236259     1.007825032230
         H           -3.782033999725     2.112113380238    -0.702267236259     1.007825032230
         H           -3.021022999725     0.741291380238    -1.534917236259     1.007825032230

  Basis Set: AUG-CC-PVTZ
    Blend: AUG-CC-PVTZ
  Basis Set: (AUG-CC-PVTZ AUX)
    Blend: AUG-CC-PVTZ-JKFIT
	 Reference Energy          =    -463.0117081127486927 [Eh]
	 Singles Energy            =      -0.0000000000000000 [Eh]
	 Same-Spin Energy          =      -0.4971070222807621 [Eh]
	 Opposite-Spin Energy      =      -1.6671442637795515 [Eh]
	 Correlation Energy        =      -2.1642512860603134 [Eh]
	 Total Energy              =    -465.1759593988090273 [Eh]

	 ================> DF-SCS-MP2 Energies <==================
	-----------------------------------------------------------
	 SCS Same-Spin Scale       =       0.3333333333333333 [-]
	 SCS Opposite-Spin Scale   =       1.2000000000000000 [-]
	 SCS Same-Spin Energy      =      -0.1657023407602540 [Eh]
	 SCS Opposite-Spin Energy  =      -2.0005731165354619 [Eh]
	 SCS Correlation Energy    =      -2.1662754572957157 [Eh]
	 SCS Total Energy          =    -465.1779835700444323 [Eh]
	-----------------------------------------------------------

  Dipole Moment: [D]
     X:    -0.0271      Y:    -0.6544      Z:    -0.2223     Total:     0.6917

*** Psi4 exiting successfully. Buy a developer a beer!
