                               Psi4 1.4a3.dev225

  ==> Input File <==

--------------------------------------------------------------------------
#psi4
#
memory 32 gb

molecule  {
0 1
  O        0.0000040    -0.9323440    -0.5200900
  C       -0.7186120     1.1388030    -0.0293360
  C        0.7186000     1.1388090    -0.0293300
  C       -1.1092540    -0.1401520    -0.3350070
  C        1.1234941    -0.1867597    -0.3461373
  C       -2.4197690    -0.8327410    -0.4659430
  C        2.4197760    -0.8327180    -0.4659420
  C       -1.5881550     2.3237520     0.2504950
  C        1.5881310     2.3237650     0.2505070
  C       -2.6404590    -1.8837440     0.6266770
  C        2.6404800    -1.8837320     0.6266650
  H        3.2127060    -0.0780420    -0.4310990
  H        2.4812700    -1.3082390    -1.4528680
  H       -2.4812630    -1.3082740    -1.4528630
  H       -3.2127060    -0.0780720    -0.4311050
  H       -1.4004860     3.1330380    -0.4637010
  H       -2.6480190     2.0627510     0.1871390
  H       -1.4034730     2.7248980     1.2531230
  H        2.6479980     2.0627640     0.1871950
  H        1.4004870     3.1330370    -0.4637120
  H        1.4034130     2.7249310     1.2531200
  H        2.6185650    -1.4170920     1.6153140
  H        3.6057420    -2.3837880     0.5012060
  H        1.8526560    -2.6398250     0.5898280
  H       -1.8526300    -2.6398320     0.5898440
  H       -3.6057190    -2.3838080     0.5012310
  H       -2.6185400    -1.4170920     1.6153210
units angstrom
no_reorient  #important for SAPT in psi4, default
symmetry c1  #important for SAPT in psi4, default
}

set PROPERTIES_ORIGIN ["COM"]
properties('MP2/aug-cc-pvtz', properties = ['dipole'])
--------------------------------------------------------------------------

    Molecular point group: c1
  Charge       = 0
  Multiplicity = 1
  Basis Set: AUG-CC-PVTZ
    Blend: AUG-CC-PVTZ
  Basis Set: (AUG-CC-PVTZ AUX)
    Blend: AUG-CC-PVTZ-JKFIT

    Orbital Energies [Eh]
    ---------------------

    Doubly Occupied:

       1A    -20.600736     2A    -11.275281     3A    -11.270377
       4A    -11.230128     5A    -11.229054     6A    -11.222646
       7A    -11.221109     8A    -11.220198     9A    -11.217581
      10A    -11.214400    11A    -11.213350    12A     -1.436033
      13A     -1.093657    14A     -1.083053    15A     -1.039499
      16A     -0.988915    17A     -0.931134    18A     -0.926527
      19A     -0.872736    20A     -0.816632    21A     -0.751200
      22A     -0.718153    23A     -0.662702    24A     -0.629878
      25A     -0.613199    26A     -0.611943    27A     -0.586413
      28A     -0.584532    29A     -0.569218    30A     -0.555687
      31A     -0.551240    32A     -0.533086    33A     -0.532189
      34A     -0.525215    35A     -0.516303    36A     -0.507108
      37A     -0.494611    38A     -0.491593    39A     -0.486274
      40A     -0.463817    41A     -0.356203    42A     -0.273325

  @DF-RHF Final Energy:  -463.00799541686740

   => Energetics <=

    Nuclear Repulsion Energy =            629.7474911742075392
    One-Electron Energy =               -1877.2771089842540277
    Two-Electron Energy =                 784.5216223931792001
    Total Energy =                       -463.0079954168674021
  Basis Set: (AUG-CC-PVTZ AUX)
    Blend: AUG-CC-PVTZ-RI
    Molecular point group: c1

    Geometry (in Angstrom), charge = 0, multiplicity = 1:

       Center              X                  Y                   Z               Mass
    ------------   -----------------  -----------------  -----------------  -----------------
         O           -0.001119126862    -0.927475781116    -0.495761307595    15.994914619570
         C           -0.719735126862     1.143671218884    -0.005007307595    12.000000000000
         C            0.717476873138     1.143677218884    -0.005001307595    12.000000000000
         C           -1.110377126862    -0.135283781116    -0.310678307595    12.000000000000
         C            1.122370973138    -0.181891481116    -0.321808607595    12.000000000000
         C           -2.420892126862    -0.827872781116    -0.441614307595    12.000000000000
         C            2.418652873138    -0.827849781116    -0.441613307595    12.000000000000
         C           -1.589278126862     2.328620218884     0.274823692405    12.000000000000
         C            1.587007873138     2.328633218884     0.274835692405    12.000000000000
         C           -2.641582126862    -1.878875781116     0.651005692405    12.000000000000
         C            2.639356873138    -1.878863781116     0.650993692405    12.000000000000
         H            3.211582873138    -0.073173781116    -0.406770307595     1.007825032230
         H            2.480146873138    -1.303370781116    -1.428539307595     1.007825032230
         H           -2.482386126862    -1.303405781116    -1.428534307595     1.007825032230
         H           -3.213829126862    -0.073203781116    -0.406776307595     1.007825032230
         H           -1.401609126862     3.137906218884    -0.439372307595     1.007825032230
         H           -2.649142126862     2.067619218884     0.211467692405     1.007825032230
         H           -1.404596126862     2.729766218884     1.277451692405     1.007825032230
         H            2.646874873138     2.067632218884     0.211523692405     1.007825032230
         H            1.399363873138     3.137905218884    -0.439383307595     1.007825032230
         H            1.402289873138     2.729799218884     1.277448692405     1.007825032230
         H            2.617441873138    -1.412223781116     1.639642692405     1.007825032230
         H            3.604618873138    -2.378919781116     0.525534692405     1.007825032230
         H            1.851532873138    -2.634956781116     0.614156692405     1.007825032230
         H           -1.853753126862    -2.634963781116     0.614172692405     1.007825032230
         H           -3.606842126862    -2.378939781116     0.525559692405     1.007825032230
         H           -2.619663126862    -1.412223781116     1.639649692405     1.007825032230

  Basis Set: AUG-CC-PVTZ
    Blend: AUG-CC-PVTZ
  Basis Set: (AUG-CC-PVTZ AUX)
    Blend: AUG-CC-PVTZ-JKFIT
	 Reference Energy          =    -463.0079954168674021 [Eh]
	 Singles Energy            =      -0.0000000000000000 [Eh]
	 Same-Spin Energy          =      -0.4982284103353249 [Eh]
	 Opposite-Spin Energy      =      -1.6681576030451954 [Eh]
	 Correlation Energy        =      -2.1663860133805204 [Eh]
	 Total Energy              =    -465.1743814302479336 [Eh]

	 ================> DF-SCS-MP2 Energies <==================
	-----------------------------------------------------------
	 SCS Same-Spin Scale       =       0.3333333333333333 [-]
	 SCS Opposite-Spin Scale   =       1.2000000000000000 [-]
	 SCS Same-Spin Energy      =      -0.1660761367784416 [Eh]
	 SCS Opposite-Spin Energy  =      -2.0017891236542344 [Eh]
	 SCS Correlation Energy    =      -2.1678652604326762 [Eh]
	 SCS Total Energy          =    -465.1758606773000793 [Eh]
	-----------------------------------------------------------

  Dipole Moment: [D]
     X:    -0.0063      Y:     0.5630      Z:     0.2053     Total:     0.5993

*** Psi4 exiting successfully. Buy a developer a beer!
