                               Psi4 1.3.2 release

  ==> Input File <==

--------------------------------------------------------------------------
#psi4
#
memory 32 gb

molecule  {
0 1
  O        0.0723890     1.0222580     0.5077940
  C       -0.7418240    -1.0387750     0.1269710
  C        0.6883760    -1.0936210     0.0623120
  C       -1.0714850     0.2632460     0.3951280
  C        1.2176190     0.1160136     0.2884504
  C       -2.3562760     1.0018630     0.5198060
  C        2.4849120     0.8120840     0.3409220
  C       -1.6830070    -2.1819480    -0.0885940
  C        1.5125100    -2.3214750    -0.1762480
  C       -2.8486430     1.5569180    -0.8246800
  C        2.8130920     1.5744450    -0.9510270
  H        3.2336060     0.0303330     0.5193890
  H        2.5305840     1.4962520     1.1974230
  H       -2.2159340     1.8224920     1.2344330
  H       -3.1130010     0.3316860     0.9491040
  H       -1.4229750    -3.0387300     0.5441040
  H       -2.7119990    -1.8902510     0.1457090
  H       -1.6650160    -2.5262940    -1.1310850
  H        2.5139960    -2.0634500    -0.5387900
  H        1.6307130    -2.9166200     0.7385330
  H        1.0429930    -2.9642660    -0.9286680
  H        2.8128660     0.8932150    -1.8063400
  H        3.7971100     2.0487280    -0.8855010
  H        2.0638530     2.3513280    -1.1313670
  H       -2.0994070     2.2298930    -1.2537260
  H       -3.7828960     2.1123340    -0.7007770
  H       -3.0218850     0.7415120    -1.5334270
units angstrom
no_reorient  #important for SAPT in psi4, default
symmetry c1  #important for SAPT in psi4, default
}

set PROPERTIES_ORIGIN ["COM"]
properties('MP2/aug-cc-pvtz', properties = ['dipole'])
--------------------------------------------------------------------------

    Molecular point group: c1
  Charge       = 0
  Multiplicity = 1
  Basis Set: AUG-CC-PVTZ
    Blend: AUG-CC-PVTZ
  Basis Set: (AUG-CC-PVTZ AUX)
    Blend: AUG-CC-PVTZ-JKFIT

    Orbital Energies [Eh]
    ---------------------

    Doubly Occupied:

       1A    -20.582643     2A    -11.273537     3A    -11.267448
       4A    -11.230200     5A    -11.230194     6A    -11.223703
       7A    -11.222698     8A    -11.220938     9A    -11.216138
      10A    -11.215299    11A    -11.212624    12A     -1.393540
      13A     -1.101973    14A     -1.080809    15A     -1.039189
      16A     -0.993365    17A     -0.932011    18A     -0.922423
      19A     -0.874056    20A     -0.819390    21A     -0.733638
      22A     -0.722828    23A     -0.651317    24A     -0.618832
      25A     -0.614800    26A     -0.608618    27A     -0.588002
      28A     -0.580978    29A     -0.563937    30A     -0.556475
      31A     -0.549773    32A     -0.533765    33A     -0.526703
      34A     -0.522665    35A     -0.511484    36A     -0.503212
      37A     -0.498827    38A     -0.495492    39A     -0.478411
      40A     -0.472007    41A     -0.363907    42A     -0.282828

  @DF-RHF Final Energy:  -463.00055599533960

   => Energetics <=

    Nuclear Repulsion Energy =            628.7067601033807023
    One-Electron Energy =               -1875.3532771263046470
    Two-Electron Energy =                 783.6459610275843488
    Total Energy =                       -463.0005559953395959
  Basis Set: (AUG-CC-PVTZ AUX)
    Blend: AUG-CC-PVTZ-RI
    Molecular point group: c1

    Geometry (in Angstrom), charge = 0, multiplicity = 1:

       Center              X                  Y                   Z               Mass
    ------------   -----------------  -----------------  -----------------  -----------------
         O            0.066271702376     1.027098919925     0.508965612897    15.994914619570
         C           -0.747941297624    -1.033934080075     0.128142612897    12.000000000000
         C            0.682258702376    -1.088780080075     0.063483612897    12.000000000000
         C           -1.077602297624     0.268086919925     0.396299612897    12.000000000000
         C            1.211501702376     0.120854519925     0.289622012897    12.000000000000
         C           -2.362393297624     1.006703919925     0.520977612897    12.000000000000
         C            2.478794702376     0.816924919925     0.342093612897    12.000000000000
         C           -1.689124297624    -2.177107080075    -0.087422387103    12.000000000000
         C            1.506392702376    -2.316634080075    -0.175076387103    12.000000000000
         C           -2.854760297624     1.561758919925    -0.823508387103    12.000000000000
         C            2.806974702376     1.579285919925    -0.949855387103    12.000000000000
         H            3.227488702376     0.035173919925     0.520560612897     1.007825032230
         H            2.524466702376     1.501092919925     1.198594612897     1.007825032230
         H           -2.222051297624     1.827332919925     1.235604612897     1.007825032230
         H           -3.119118297624     0.336526919925     0.950275612897     1.007825032230
         H           -1.429092297624    -3.033889080075     0.545275612897     1.007825032230
         H           -2.718116297624    -1.885410080075     0.146880612897     1.007825032230
         H           -1.671133297624    -2.521453080075    -1.129913387103     1.007825032230
         H            2.507878702376    -2.058609080075    -0.537618387103     1.007825032230
         H            1.624595702376    -2.911779080075     0.739704612897     1.007825032230
         H            1.036875702376    -2.959425080075    -0.927496387103     1.007825032230
         H            2.806748702376     0.898055919925    -1.805168387103     1.007825032230
         H            3.790992702376     2.053568919925    -0.884329387103     1.007825032230
         H            2.057735702376     2.356168919925    -1.130195387103     1.007825032230
         H           -2.105524297624     2.234733919925    -1.252554387103     1.007825032230
         H           -3.789013297624     2.117174919925    -0.699605387103     1.007825032230
         H           -3.028002297624     0.746352919925    -1.532255387103     1.007825032230

  Basis Set: AUG-CC-PVTZ
    Blend: AUG-CC-PVTZ
  Basis Set: (AUG-CC-PVTZ AUX)
    Blend: AUG-CC-PVTZ-JKFIT
	 Reference Energy          =    -463.0005559953395959 [Eh]
	 Singles Energy            =      -0.0000000000000000 [Eh]
	 Same-Spin Energy          =      -0.4974964864395316 [Eh]
	 Opposite-Spin Energy      =      -1.6690698253902012 [Eh]
	 Correlation Energy        =      -2.1665663118297327 [Eh]
	 Total Energy              =    -465.1671223071693362 [Eh]

	 ================> DF-SCS-MP2 Energies <==================
	-----------------------------------------------------------
	 SCS Same-Spin Scale       =       0.3333333333333333 [-]
	 SCS Opposite-Spin Scale   =       1.2000000000000000 [-]
	 SCS Same-Spin Energy      =      -0.1658321621465105 [Eh]
	 SCS Opposite-Spin Energy  =      -2.0028837904682413 [Eh]
	 SCS Correlation Energy    =      -2.1687159526147517 [Eh]
	 SCS Total Energy          =    -465.1692719479543712 [Eh]
	-----------------------------------------------------------

  Dipole Moment: [D]
     X:     0.1243      Y:    -0.7342      Z:    -0.2597     Total:     0.7887

*** Psi4 exiting successfully. Buy a developer a beer!
