                               Psi4 1.3.2 release

  ==> Input File <==

--------------------------------------------------------------------------
#psi4
#
memory 32 gb

molecule  {
0 1
  O        0.0723890     1.0222580     0.5077940
  C       -0.7418240    -1.0387750     0.1269710
  C        0.6829495    -1.1670682     0.0480903
  C       -1.1405555     0.2440250     0.3939551
  C        1.1400710     0.1773790     0.3033030
  C       -2.3562760     1.0018630     0.5198060
  C        2.4849120     0.8120840     0.3409220
  C       -1.6830070    -2.1819480    -0.0885940
  C        1.5125100    -2.3214750    -0.1762480
  C       -2.8486430     1.5569180    -0.8246800
  C        2.8130920     1.5744450    -0.9510270
  H        3.2336060     0.0303330     0.5193890
  H        2.5305840     1.4962520     1.1974230
  H       -2.2159340     1.8224920     1.2344330
  H       -3.1130010     0.3316860     0.9491040
  H       -1.4229750    -3.0387300     0.5441040
  H       -2.7119990    -1.8902510     0.1457090
  H       -1.6650160    -2.5262940    -1.1310850
  H        2.5139960    -2.0634500    -0.5387900
  H        1.6307130    -2.9166200     0.7385330
  H        1.0429930    -2.9642660    -0.9286680
  H        2.8128660     0.8932150    -1.8063400
  H        3.7971100     2.0487280    -0.8855010
  H        2.0638530     2.3513280    -1.1313670
  H       -2.0994070     2.2298930    -1.2537260
  H       -3.7828960     2.1123340    -0.7007770
  H       -3.0218850     0.7415120    -1.5334270
units angstrom
no_reorient  #important for SAPT in psi4, default
symmetry c1  #important for SAPT in psi4, default
}

set PROPERTIES_ORIGIN ["COM"]
properties('MP2/aug-cc-pvtz', properties = ['dipole'])
--------------------------------------------------------------------------

    Molecular point group: c1
  Charge       = 0
  Multiplicity = 1
  Basis Set: AUG-CC-PVTZ
    Blend: AUG-CC-PVTZ
  Basis Set: (AUG-CC-PVTZ AUX)
    Blend: AUG-CC-PVTZ-JKFIT

    Orbital Energies [Eh]
    ---------------------

    Doubly Occupied:

       1A    -20.593570     2A    -11.282916     3A    -11.268245
       4A    -11.230977     5A    -11.229203     6A    -11.223160
       7A    -11.221320     8A    -11.220620     9A    -11.219588
      10A    -11.215573    11A    -11.215570    12A     -1.404076
      13A     -1.100117    14A     -1.081304    15A     -1.040116
      16A     -0.996845    17A     -0.927616    18A     -0.923367
      19A     -0.874024    20A     -0.812879    21A     -0.739091
      22A     -0.720487    23A     -0.654223    24A     -0.620922
      25A     -0.615634    26A     -0.610443    27A     -0.588943
      28A     -0.583929    29A     -0.568055    30A     -0.558507
      31A     -0.555969    32A     -0.534494    33A     -0.528593
      34A     -0.525326    35A     -0.514337    36A     -0.504311
      37A     -0.500179    38A     -0.494872    39A     -0.481209
      40A     -0.462845    41A     -0.356532    42A     -0.269717

  @DF-RHF Final Energy:  -462.99045439528879

   => Energetics <=

    Nuclear Repulsion Energy =            627.9589276628129255
    One-Electron Energy =               -1873.7593551227500939
    Two-Electron Energy =                 782.8099730646482612
    Total Energy =                       -462.9904543952887934
  Basis Set: (AUG-CC-PVTZ AUX)
    Blend: AUG-CC-PVTZ-RI
    Molecular point group: c1

    Geometry (in Angstrom), charge = 0, multiplicity = 1:

       Center              X                  Y                   Z               Mass
    ------------   -----------------  -----------------  -----------------  -----------------
         O            0.078265776916     1.029568242274     0.509008368584    15.994914619570
         C           -0.735947223084    -1.031464757726     0.128185368584    12.000000000000
         C            0.688826276916    -1.159757957726     0.049304668584    12.000000000000
         C           -1.134678723084     0.251335242274     0.395169468584    12.000000000000
         C            1.145947776916     0.184689242274     0.304517368584    12.000000000000
         C           -2.350399223084     1.009173242274     0.521020368584    12.000000000000
         C            2.490788776916     0.819394242274     0.342136368584    12.000000000000
         C           -1.677130223084    -2.174637757726    -0.087379631416    12.000000000000
         C            1.518386776916    -2.314164757726    -0.175033631416    12.000000000000
         C           -2.842766223084     1.564228242274    -0.823465631416    12.000000000000
         C            2.818968776916     1.581755242274    -0.949812631416    12.000000000000
         H            3.239482776916     0.037643242274     0.520603368584     1.007825032230
         H            2.536460776916     1.503562242274     1.198637368584     1.007825032230
         H           -2.210057223084     1.829802242274     1.235647368584     1.007825032230
         H           -3.107124223084     0.338996242274     0.950318368584     1.007825032230
         H           -1.417098223084    -3.031419757726     0.545318368584     1.007825032230
         H           -2.706122223084    -1.882940757726     0.146923368584     1.007825032230
         H           -1.659139223084    -2.518983757726    -1.129870631416     1.007825032230
         H            2.519872776916    -2.056139757726    -0.537575631416     1.007825032230
         H            1.636589776916    -2.909309757726     0.739747368584     1.007825032230
         H            1.048869776916    -2.956955757726    -0.927453631416     1.007825032230
         H            2.818742776916     0.900525242274    -1.805125631416     1.007825032230
         H            3.802986776916     2.056038242274    -0.884286631416     1.007825032230
         H            2.069729776916     2.358638242274    -1.130152631416     1.007825032230
         H           -2.093530223084     2.237203242274    -1.252511631416     1.007825032230
         H           -3.777019223084     2.119644242274    -0.699562631416     1.007825032230
         H           -3.016008223084     0.748822242274    -1.532212631416     1.007825032230

  Basis Set: AUG-CC-PVTZ
    Blend: AUG-CC-PVTZ
  Basis Set: (AUG-CC-PVTZ AUX)
    Blend: AUG-CC-PVTZ-JKFIT
	 Reference Energy          =    -462.9904543952887934 [Eh]
	 Singles Energy            =      -0.0000000000000000 [Eh]
	 Same-Spin Energy          =      -0.5001749067453529 [Eh]
	 Opposite-Spin Energy      =      -1.6724324385134051 [Eh]
	 Correlation Energy        =      -2.1726073452587578 [Eh]
	 Total Energy              =    -465.1630617405475618 [Eh]

	 ================> DF-SCS-MP2 Energies <==================
	-----------------------------------------------------------
	 SCS Same-Spin Scale       =       0.3333333333333333 [-]
	 SCS Opposite-Spin Scale   =       1.2000000000000000 [-]
	 SCS Same-Spin Energy      =      -0.1667249689151176 [Eh]
	 SCS Opposite-Spin Energy  =      -2.0069189262160858 [Eh]
	 SCS Correlation Energy    =      -2.1736438951312036 [Eh]
	 SCS Total Energy          =    -465.1640982904199859 [Eh]
	-----------------------------------------------------------

  Dipole Moment: [D]
     X:    -0.1184      Y:    -0.6797      Z:    -0.2249     Total:     0.7256

*** Psi4 exiting successfully. Buy a developer a beer!
