                               Psi4 1.4a3.dev225

  ==> Input File <==

--------------------------------------------------------------------------
#psi4
#
memory 32 gb

molecule  {
0 1
  O        0.0000040    -0.9323440    -0.5200900
  C       -0.7186120     1.1388030    -0.0293360
  C        0.7186000     1.1388090    -0.0293300
  C       -1.1092540    -0.1401520    -0.3350070
  C        1.1092550    -0.1401430    -0.3349960
  C       -2.4197690    -0.8327410    -0.4659430
  C        2.4197760    -0.8327180    -0.4659420
  C       -1.5881550     2.3237520     0.2504950
  C        1.5590724     2.2841653     0.2411552
  C       -2.6404590    -1.8837440     0.6266770
  C        2.6404800    -1.8837320     0.6266650
  H        3.2127060    -0.0780420    -0.4310990
  H        2.4812700    -1.3082390    -1.4528680
  H       -2.4812630    -1.3082740    -1.4528630
  H       -3.2127060    -0.0780720    -0.4311050
  H       -1.4004860     3.1330380    -0.4637010
  H       -2.6480190     2.0627510     0.1871390
  H       -1.4034730     2.7248980     1.2531230
  H        2.6479980     2.0627640     0.1871950
  H        1.4004870     3.1330370    -0.4637120
  H        1.4034130     2.7249310     1.2531200
  H        2.6185650    -1.4170920     1.6153140
  H        3.6057420    -2.3837880     0.5012060
  H        1.8526560    -2.6398250     0.5898280
  H       -1.8526300    -2.6398320     0.5898440
  H       -3.6057190    -2.3838080     0.5012310
  H       -2.6185400    -1.4170920     1.6153210
units angstrom
no_reorient  #important for SAPT in psi4, default
symmetry c1  #important for SAPT in psi4, default
}

set PROPERTIES_ORIGIN ["COM"]
properties('MP2/aug-cc-pvtz', properties = ['dipole'])
--------------------------------------------------------------------------

    Molecular point group: c1
  Charge       = 0
  Multiplicity = 1
  Basis Set: AUG-CC-PVTZ
    Blend: AUG-CC-PVTZ
  Basis Set: (AUG-CC-PVTZ AUX)
    Blend: AUG-CC-PVTZ-JKFIT

    Orbital Energies [Eh]
    ---------------------

    Doubly Occupied:

       1A    -20.597772     2A    -11.271586     3A    -11.271380
       4A    -11.230226     5A    -11.230173     6A    -11.224227
       7A    -11.222551     8A    -11.217272     9A    -11.214582
      10A    -11.213680    11A    -11.213677    12A     -1.431116
      13A     -1.102032    14A     -1.080156    15A     -1.037229
      16A     -0.993663    17A     -0.931987    18A     -0.926342
      19A     -0.870324    20A     -0.816344    21A     -0.752031
      22A     -0.721160    23A     -0.661247    24A     -0.629264
      25A     -0.613378    26A     -0.610623    27A     -0.585551
      28A     -0.582589    29A     -0.566772    30A     -0.556945
      31A     -0.548614    32A     -0.534757    33A     -0.527860
      34A     -0.527313    35A     -0.518522    36A     -0.506184
      37A     -0.493769    38A     -0.490877    39A     -0.484973
      40A     -0.465159    41A     -0.359079    42A     -0.280124

  @DF-RHF Final Energy:  -463.01060776715912

   => Energetics <=

    Nuclear Repulsion Energy =            630.9536663636844196
    One-Electron Energy =               -1879.7023276582667677
    Two-Electron Energy =                 785.7380535274230624
    Total Energy =                       -463.0106077671591720
  Basis Set: (AUG-CC-PVTZ AUX)
    Blend: AUG-CC-PVTZ-RI
    Molecular point group: c1

    Geometry (in Angstrom), charge = 0, multiplicity = 1:

       Center              X                  Y                   Z               Mass
    ------------   -----------------  -----------------  -----------------  -----------------
         O            0.002296413546    -0.928029317378    -0.495902472358    15.994914619570
         C           -0.716319586454     1.143117682622    -0.005148472358    12.000000000000
         C            0.720892413546     1.143123682622    -0.005142472358    12.000000000000
         C           -1.106961586454    -0.135837317378    -0.310819472358    12.000000000000
         C            1.111547413546    -0.135828317378    -0.310808472358    12.000000000000
         C           -2.417476586454    -0.828426317378    -0.441755472358    12.000000000000
         C            2.422068413546    -0.828403317378    -0.441754472358    12.000000000000
         C           -1.585862586454     2.328066682622     0.274682527642    12.000000000000
         C            1.561364813546     2.288479982622     0.265342727642    12.000000000000
         C           -2.638166586454    -1.879429317378     0.650864527642    12.000000000000
         C            2.642772413546    -1.879417317378     0.650852527642    12.000000000000
         H            3.214998413546    -0.073727317378    -0.406911472358     1.007825032230
         H            2.483562413546    -1.303924317378    -1.428680472358     1.007825032230
         H           -2.478970586454    -1.303959317378    -1.428675472358     1.007825032230
         H           -3.210413586454    -0.073757317378    -0.406917472358     1.007825032230
         H           -1.398193586454     3.137352682622    -0.439513472358     1.007825032230
         H           -2.645726586454     2.067065682622     0.211326527642     1.007825032230
         H           -1.401180586454     2.729212682622     1.277310527642     1.007825032230
         H            2.650290413546     2.067078682622     0.211382527642     1.007825032230
         H            1.402779413546     3.137351682622    -0.439524472358     1.007825032230
         H            1.405705413546     2.729245682622     1.277307527642     1.007825032230
         H            2.620857413546    -1.412777317378     1.639501527642     1.007825032230
         H            3.608034413546    -2.379473317378     0.525393527642     1.007825032230
         H            1.854948413546    -2.635510317378     0.614015527642     1.007825032230
         H           -1.850337586454    -2.635517317378     0.614031527642     1.007825032230
         H           -3.603426586454    -2.379493317378     0.525418527642     1.007825032230
         H           -2.616247586454    -1.412777317378     1.639508527642     1.007825032230

  Basis Set: AUG-CC-PVTZ
    Blend: AUG-CC-PVTZ
  Basis Set: (AUG-CC-PVTZ AUX)
    Blend: AUG-CC-PVTZ-JKFIT
	 Reference Energy          =    -463.0106077671591152 [Eh]
	 Singles Energy            =      -0.0000000000000000 [Eh]
	 Same-Spin Energy          =      -0.4974553294182009 [Eh]
	 Opposite-Spin Energy      =      -1.6672656979832374 [Eh]
	 Correlation Energy        =      -2.1647210274014386 [Eh]
	 Total Energy              =    -465.1753287945605280 [Eh]

	 ================> DF-SCS-MP2 Energies <==================
	-----------------------------------------------------------
	 SCS Same-Spin Scale       =       0.3333333333333333 [-]
	 SCS Opposite-Spin Scale   =       1.2000000000000000 [-]
	 SCS Same-Spin Energy      =      -0.1658184431394003 [Eh]
	 SCS Opposite-Spin Energy  =      -2.0007188375798850 [Eh]
	 SCS Correlation Energy    =      -2.1665372807192851 [Eh]
	 SCS Total Energy          =    -465.1771450478784118 [Eh]
	-----------------------------------------------------------

  Dipole Moment: [D]
     X:    -0.0117      Y:     0.6194      Z:     0.2219     Total:     0.6581

*** Psi4 exiting successfully. Buy a developer a beer!
