                               Psi4 1.3.2 release

  ==> Input File <==

--------------------------------------------------------------------------
#psi4
#
memory 32 gb

molecule  {
0 1
  O        0.0723890     1.0222580     0.5077940
  C       -0.7418240    -1.0387750     0.1269710
  C        0.6869826    -1.1180206     0.0570227
  C       -1.0714850     0.2632460     0.3951280
  C        1.1400710     0.1773790     0.3033030
  C       -2.3562760     1.0018630     0.5198060
  C        2.4849120     0.8120840     0.3409220
  C       -1.6625826    -2.1976743    -0.0927881
  C        1.5125100    -2.3214750    -0.1762480
  C       -2.8486430     1.5569180    -0.8246800
  C        2.8130920     1.5744450    -0.9510270
  H        3.2336060     0.0303330     0.5193890
  H        2.5305840     1.4962520     1.1974230
  H       -2.2159340     1.8224920     1.2344330
  H       -3.1130010     0.3316860     0.9491040
  H       -1.4229750    -3.0387300     0.5441040
  H       -2.7119990    -1.8902510     0.1457090
  H       -1.6650160    -2.5262940    -1.1310850
  H        2.5139960    -2.0634500    -0.5387900
  H        1.6307130    -2.9166200     0.7385330
  H        1.0429930    -2.9642660    -0.9286680
  H        2.8128660     0.8932150    -1.8063400
  H        3.7971100     2.0487280    -0.8855010
  H        2.0638530     2.3513280    -1.1313670
  H       -2.0994070     2.2298930    -1.2537260
  H       -3.7828960     2.1123340    -0.7007770
  H       -3.0218850     0.7415120    -1.5334270
units angstrom
no_reorient  #important for SAPT in psi4, default
symmetry c1  #important for SAPT in psi4, default
}

set PROPERTIES_ORIGIN ["COM"]
properties('MP2/aug-cc-pvtz', properties = ['dipole'])
--------------------------------------------------------------------------

    Molecular point group: c1
  Charge       = 0
  Multiplicity = 1
  Basis Set: AUG-CC-PVTZ
    Blend: AUG-CC-PVTZ
  Basis Set: (AUG-CC-PVTZ AUX)
    Blend: AUG-CC-PVTZ-JKFIT

    Orbital Energies [Eh]
    ---------------------

    Doubly Occupied:

       1A    -20.600604     2A    -11.272624     3A    -11.269884
       4A    -11.230130     5A    -11.229992     6A    -11.222746
       7A    -11.222176     8A    -11.217601     9A    -11.215927
      10A    -11.215316    11A    -11.214669    12A     -1.429945
      13A     -1.099030    14A     -1.078260    15A     -1.036319
      16A     -0.991216    17A     -0.931884    18A     -0.927536
      19A     -0.869973    20A     -0.814241    21A     -0.748917
      22A     -0.721778    23A     -0.658077    24A     -0.627319
      25A     -0.611277    26A     -0.610003    27A     -0.586895
      28A     -0.584067    29A     -0.571145    30A     -0.559203
      31A     -0.548874    32A     -0.532209    33A     -0.527768
      34A     -0.526335    35A     -0.521541    36A     -0.505263
      37A     -0.494891    38A     -0.491884    39A     -0.484012
      40A     -0.463956    41A     -0.359631    42A     -0.276092

  @DF-RHF Final Energy:  -463.00861871816028

   => Energetics <=

    Nuclear Repulsion Energy =            629.2716310067252152
    One-Electron Energy =               -1876.3580736906410493
    Two-Electron Energy =                 784.0778239657554423
    Total Energy =                       -463.0086187181602781
  Basis Set: (AUG-CC-PVTZ AUX)
    Blend: AUG-CC-PVTZ-RI
    Molecular point group: c1

    Geometry (in Angstrom), charge = 0, multiplicity = 1:

       Center              X                  Y                   Z               Mass
    ------------   -----------------  -----------------  -----------------  -----------------
         O            0.070887817736     1.025423441309     0.508542063388    15.994914619570
         C           -0.743325182264    -1.035609558691     0.127719063388    12.000000000000
         C            0.685481417736    -1.114855158691     0.057770763388    12.000000000000
         C           -1.072986182264     0.266411441309     0.395876063388    12.000000000000
         C            1.138569817736     0.180544441309     0.304051063388    12.000000000000
         C           -2.357777182264     1.005028441309     0.520554063388    12.000000000000
         C            2.483410817736     0.815249441309     0.341670063388    12.000000000000
         C           -1.664083782264    -2.194508858691    -0.092040036612    12.000000000000
         C            1.511008817736    -2.318309558691    -0.175499936612    12.000000000000
         C           -2.850144182264     1.560083441309    -0.823931936612    12.000000000000
         C            2.811590817736     1.577610441309    -0.950278936612    12.000000000000
         H            3.232104817736     0.033498441309     0.520137063388     1.007825032230
         H            2.529082817736     1.499417441309     1.198171063388     1.007825032230
         H           -2.217435182264     1.825657441309     1.235181063388     1.007825032230
         H           -3.114502182264     0.334851441309     0.949852063388     1.007825032230
         H           -1.424476182264    -3.035564558691     0.544852063388     1.007825032230
         H           -2.713500182264    -1.887085558691     0.146457063388     1.007825032230
         H           -1.666517182264    -2.523128558691    -1.130336936612     1.007825032230
         H            2.512494817736    -2.060284558691    -0.538041936612     1.007825032230
         H            1.629211817736    -2.913454558691     0.739281063388     1.007825032230
         H            1.041491817736    -2.961100558691    -0.927919936612     1.007825032230
         H            2.811364817736     0.896380441309    -1.805591936612     1.007825032230
         H            3.795608817736     2.051893441309    -0.884752936612     1.007825032230
         H            2.062351817736     2.354493441309    -1.130618936612     1.007825032230
         H           -2.100908182264     2.233058441309    -1.252977936612     1.007825032230
         H           -3.784397182264     2.115499441309    -0.700028936612     1.007825032230
         H           -3.023386182264     0.744677441309    -1.532678936612     1.007825032230

  Basis Set: AUG-CC-PVTZ
    Blend: AUG-CC-PVTZ
  Basis Set: (AUG-CC-PVTZ AUX)
    Blend: AUG-CC-PVTZ-JKFIT
	 Reference Energy          =    -463.0086187181602781 [Eh]
	 Singles Energy            =      -0.0000000000000000 [Eh]
	 Same-Spin Energy          =      -0.4978060084763247 [Eh]
	 Opposite-Spin Energy      =      -1.6681772907006023 [Eh]
	 Correlation Energy        =      -2.1659832991769270 [Eh]
	 Total Energy              =    -465.1746020173371789 [Eh]

	 ================> DF-SCS-MP2 Energies <==================
	-----------------------------------------------------------
	 SCS Same-Spin Scale       =       0.3333333333333333 [-]
	 SCS Opposite-Spin Scale   =       1.2000000000000000 [-]
	 SCS Same-Spin Energy      =      -0.1659353361587749 [Eh]
	 SCS Opposite-Spin Energy  =      -2.0018127488407225 [Eh]
	 SCS Correlation Energy    =      -2.1677480849994972 [Eh]
	 SCS Total Energy          =    -465.1763668031597945 [Eh]
	-----------------------------------------------------------

  Dipole Moment: [D]
     X:    -0.0132      Y:    -0.6616      Z:    -0.2150     Total:     0.6958

*** Psi4 exiting successfully. Buy a developer a beer!
