                               Psi4 1.4a3.dev225

  ==> Input File <==

--------------------------------------------------------------------------
#psi4
#
memory 32 gb

molecule  {
0 1
  O        0.0000040    -0.9323440    -0.5200900
  C       -0.7186120     1.1388030    -0.0293360
  C        0.7186000     1.1388090    -0.0293300
  C       -1.1253816    -0.1286342    -0.3323161
  C        1.1092550    -0.1401430    -0.3349960
  C       -2.4197690    -0.8327410    -0.4659430
  C        2.4197760    -0.8327180    -0.4659420
  C       -1.5881550     2.3237520     0.2504950
  C        1.5881310     2.3237650     0.2505070
  C       -2.6404590    -1.8837440     0.6266770
  C        2.6404800    -1.8837320     0.6266650
  H        3.2127060    -0.0780420    -0.4310990
  H        2.4812700    -1.3082390    -1.4528680
  H       -2.4812630    -1.3082740    -1.4528630
  H       -3.2127060    -0.0780720    -0.4311050
  H       -1.4004860     3.1330380    -0.4637010
  H       -2.6480190     2.0627510     0.1871390
  H       -1.4034730     2.7248980     1.2531230
  H        2.6479980     2.0627640     0.1871950
  H        1.4004870     3.1330370    -0.4637120
  H        1.4034130     2.7249310     1.2531200
  H        2.6185650    -1.4170920     1.6153140
  H        3.6057420    -2.3837880     0.5012060
  H        1.8526560    -2.6398250     0.5898280
  H       -1.8526300    -2.6398320     0.5898440
  H       -3.6057190    -2.3838080     0.5012310
  H       -2.6185400    -1.4170920     1.6153210
units angstrom
no_reorient  #important for SAPT in psi4, default
symmetry c1  #important for SAPT in psi4, default
}

set PROPERTIES_ORIGIN ["COM"]
properties('MP2/aug-cc-pvtz', properties = ['dipole'])
--------------------------------------------------------------------------

    Molecular point group: c1
  Charge       = 0
  Multiplicity = 1
  Basis Set: AUG-CC-PVTZ
    Blend: AUG-CC-PVTZ
  Basis Set: (AUG-CC-PVTZ AUX)
    Blend: AUG-CC-PVTZ-JKFIT

    Orbital Energies [Eh]
    ---------------------

    Doubly Occupied:

       1A    -20.594248     2A    -11.271881     3A    -11.270331
       4A    -11.230069     5A    -11.229944     6A    -11.222681
       7A    -11.222411     8A    -11.218197     9A    -11.216331
      10A    -11.213587    11A    -11.213552    12A     -1.422704
      13A     -1.098204    14A     -1.079832    15A     -1.037349
      16A     -0.991614    17A     -0.932723    18A     -0.925641
      19A     -0.870918    20A     -0.816555    21A     -0.748559
      22A     -0.719390    23A     -0.658091    24A     -0.625772
      25A     -0.612611    26A     -0.610460    27A     -0.585964
      28A     -0.581084    29A     -0.568025    30A     -0.555976
      31A     -0.552134    32A     -0.532605    33A     -0.530900
      34A     -0.522264    35A     -0.517981    36A     -0.505354
      37A     -0.494384    38A     -0.491072    39A     -0.484016
      40A     -0.468981    41A     -0.361006    42A     -0.281172

  @DF-RHF Final Energy:  -463.01312800105131

   => Energetics <=

    Nuclear Repulsion Energy =            629.7810846225823980
    One-Electron Energy =               -1877.4152849600504851
    Two-Electron Energy =                 784.6210723364166597
    Total Energy =                       -463.0131280010513137
  Basis Set: (AUG-CC-PVTZ AUX)
    Blend: AUG-CC-PVTZ-RI
    Molecular point group: c1

    Geometry (in Angstrom), charge = 0, multiplicity = 1:

       Center              X                  Y                   Z               Mass
    ------------   -----------------  -----------------  -----------------  -----------------
         O            0.001276351210    -0.932061722951    -0.496852461121    15.994914619570
         C           -0.717339648790     1.139085277049    -0.006098461121    12.000000000000
         C            0.719872351210     1.139091277049    -0.006092461121    12.000000000000
         C           -1.124109248790    -0.128351922951    -0.309078561121    12.000000000000
         C            1.110527351210    -0.139860722951    -0.311758461121    12.000000000000
         C           -2.418496648790    -0.832458722951    -0.442705461121    12.000000000000
         C            2.421048351210    -0.832435722951    -0.442704461121    12.000000000000
         C           -1.586882648790     2.324034277049     0.273732538879    12.000000000000
         C            1.589403351210     2.324047277049     0.273744538879    12.000000000000
         C           -2.639186648790    -1.883461722951     0.649914538879    12.000000000000
         C            2.641752351210    -1.883449722951     0.649902538879    12.000000000000
         H            3.213978351210    -0.077759722951    -0.407861461121     1.007825032230
         H            2.482542351210    -1.307956722951    -1.429630461121     1.007825032230
         H           -2.479990648790    -1.307991722951    -1.429625461121     1.007825032230
         H           -3.211433648790    -0.077789722951    -0.407867461121     1.007825032230
         H           -1.399213648790     3.133320277049    -0.440463461121     1.007825032230
         H           -2.646746648790     2.063033277049     0.210376538879     1.007825032230
         H           -1.402200648790     2.725180277049     1.276360538879     1.007825032230
         H            2.649270351210     2.063046277049     0.210432538879     1.007825032230
         H            1.401759351210     3.133319277049    -0.440474461121     1.007825032230
         H            1.404685351210     2.725213277049     1.276357538879     1.007825032230
         H            2.619837351210    -1.416809722951     1.638551538879     1.007825032230
         H            3.607014351210    -2.383505722951     0.524443538879     1.007825032230
         H            1.853928351210    -2.639542722951     0.613065538879     1.007825032230
         H           -1.851357648790    -2.639549722951     0.613081538879     1.007825032230
         H           -3.604446648790    -2.383525722951     0.524468538879     1.007825032230
         H           -2.617267648790    -1.416809722951     1.638558538879     1.007825032230

  Basis Set: AUG-CC-PVTZ
    Blend: AUG-CC-PVTZ
  Basis Set: (AUG-CC-PVTZ AUX)
    Blend: AUG-CC-PVTZ-JKFIT
	 Reference Energy          =    -463.0131280010513137 [Eh]
	 Singles Energy            =      -0.0000000000000000 [Eh]
	 Same-Spin Energy          =      -0.4969161839217753 [Eh]
	 Opposite-Spin Energy      =      -1.6670389726810142 [Eh]
	 Correlation Energy        =      -2.1639551566027895 [Eh]
	 Total Energy              =    -465.1770831576541241 [Eh]

	 ================> DF-SCS-MP2 Energies <==================
	-----------------------------------------------------------
	 SCS Same-Spin Scale       =       0.3333333333333333 [-]
	 SCS Opposite-Spin Scale   =       1.2000000000000000 [-]
	 SCS Same-Spin Energy      =      -0.1656387279739251 [Eh]
	 SCS Opposite-Spin Energy  =      -2.0004467672172170 [Eh]
	 SCS Correlation Energy    =      -2.1660854951911421 [Eh]
	 SCS Total Energy          =    -465.1792134962424825 [Eh]
	-----------------------------------------------------------

  Dipole Moment: [D]
     X:    -0.0310      Y:     0.6582      Z:     0.2337     Total:     0.6991

*** Psi4 exiting successfully. Buy a developer a beer!
