                               Psi4 1.3.2 release

  ==> Input File <==

--------------------------------------------------------------------------
#psi4
#
memory 32 gb

molecule  {
0 1
  O        0.0723890     1.0222580     0.5077940
  C       -0.7423347    -1.0510973     0.1249172
  C        0.6883760    -1.0936210     0.0623120
  C       -1.0714850     0.2632460     0.3951280
  C        1.1400710     0.1773790     0.3033030
  C       -2.3562760     1.0018630     0.5198060
  C        2.4849120     0.8120840     0.3409220
  C       -1.6830070    -2.1819480    -0.0885940
  C        1.5015748    -2.3285947    -0.1770223
  C       -2.8486430     1.5569180    -0.8246800
  C        2.8130920     1.5744450    -0.9510270
  H        3.2336060     0.0303330     0.5193890
  H        2.5305840     1.4962520     1.1974230
  H       -2.2159340     1.8224920     1.2344330
  H       -3.1130010     0.3316860     0.9491040
  H       -1.4229750    -3.0387300     0.5441040
  H       -2.7119990    -1.8902510     0.1457090
  H       -1.6650160    -2.5262940    -1.1310850
  H        2.5139960    -2.0634500    -0.5387900
  H        1.6307130    -2.9166200     0.7385330
  H        1.0429930    -2.9642660    -0.9286680
  H        2.8128660     0.8932150    -1.8063400
  H        3.7971100     2.0487280    -0.8855010
  H        2.0638530     2.3513280    -1.1313670
  H       -2.0994070     2.2298930    -1.2537260
  H       -3.7828960     2.1123340    -0.7007770
  H       -3.0218850     0.7415120    -1.5334270
units angstrom
no_reorient  #important for SAPT in psi4, default
symmetry c1  #important for SAPT in psi4, default
}

set PROPERTIES_ORIGIN ["COM"]
properties('MP2/aug-cc-pvtz', properties = ['dipole'])
--------------------------------------------------------------------------

    Molecular point group: c1
  Charge       = 0
  Multiplicity = 1
  Basis Set: AUG-CC-PVTZ
    Blend: AUG-CC-PVTZ
  Basis Set: (AUG-CC-PVTZ AUX)
    Blend: AUG-CC-PVTZ-JKFIT

    Orbital Energies [Eh]
    ---------------------

    Doubly Occupied:

       1A    -20.599601     2A    -11.271237     3A    -11.269549
       4A    -11.230132     5A    -11.229992     6A    -11.222873
       7A    -11.222644     8A    -11.216730     9A    -11.215748
      10A    -11.215499    11A    -11.214578    12A     -1.429801
      13A     -1.098865    14A     -1.078572    15A     -1.036260
      16A     -0.990642    17A     -0.932147    18A     -0.927550
      19A     -0.870070    20A     -0.814877    21A     -0.749057
      22A     -0.721932    23A     -0.658012    24A     -0.627482
      25A     -0.611031    26A     -0.609872    27A     -0.586833
      28A     -0.583720    29A     -0.569215    30A     -0.557085
      31A     -0.549049    32A     -0.532787    33A     -0.528688
      34A     -0.525363    35A     -0.521304    36A     -0.505353
      37A     -0.495124    38A     -0.492303    39A     -0.483892
      40A     -0.465929    41A     -0.360002    42A     -0.277496

  @DF-RHF Final Energy:  -463.01071600373302

   => Energetics <=

    Nuclear Repulsion Energy =            629.4244452326046257
    One-Electron Energy =               -1876.6725296915833496
    Two-Electron Energy =                 784.2373684552455870
    Total Energy =                       -463.0107160037330232
  Basis Set: (AUG-CC-PVTZ AUX)
    Blend: AUG-CC-PVTZ-RI
    Molecular point group: c1

    Geometry (in Angstrom), charge = 0, multiplicity = 1:

       Center              X                  Y                   Z               Mass
    ------------   -----------------  -----------------  -----------------  -----------------
         O            0.073291988937     1.023791791216     0.508017059841    15.994914619570
         C           -0.741431711063    -1.049563508784     0.125140259841    12.000000000000
         C            0.689278988937    -1.092087208784     0.062535059841    12.000000000000
         C           -1.070582011063     0.264779791216     0.395351059841    12.000000000000
         C            1.140973988937     0.178912791216     0.303526059841    12.000000000000
         C           -2.355373011063     1.003396791216     0.520029059841    12.000000000000
         C            2.485814988937     0.813617791216     0.341145059841    12.000000000000
         C           -1.682104011063    -2.180414208784    -0.088370940159    12.000000000000
         C            1.502477788937    -2.327060908784    -0.176799240159    12.000000000000
         C           -2.847740011063     1.558451791216    -0.824456940159    12.000000000000
         C            2.813994988937     1.575978791216    -0.950803940159    12.000000000000
         H            3.234508988937     0.031866791216     0.519612059841     1.007825032230
         H            2.531486988937     1.497785791216     1.197646059841     1.007825032230
         H           -2.215031011063     1.824025791216     1.234656059841     1.007825032230
         H           -3.112098011063     0.333219791216     0.949327059841     1.007825032230
         H           -1.422072011063    -3.037196208784     0.544327059841     1.007825032230
         H           -2.711096011063    -1.888717208784     0.145932059841     1.007825032230
         H           -1.664113011063    -2.524760208784    -1.130861940159     1.007825032230
         H            2.514898988937    -2.061916208784    -0.538566940159     1.007825032230
         H            1.631615988937    -2.915086208784     0.738756059841     1.007825032230
         H            1.043895988937    -2.962732208784    -0.928444940159     1.007825032230
         H            2.813768988937     0.894748791216    -1.806116940159     1.007825032230
         H            3.798012988937     2.050261791216    -0.885277940159     1.007825032230
         H            2.064755988937     2.352861791216    -1.131143940159     1.007825032230
         H           -2.098504011063     2.231426791216    -1.253502940159     1.007825032230
         H           -3.781993011063     2.113867791216    -0.700553940159     1.007825032230
         H           -3.020982011063     0.743045791216    -1.533203940159     1.007825032230

  Basis Set: AUG-CC-PVTZ
    Blend: AUG-CC-PVTZ
  Basis Set: (AUG-CC-PVTZ AUX)
    Blend: AUG-CC-PVTZ-JKFIT
	 Reference Energy          =    -463.0107160037330232 [Eh]
	 Singles Energy            =      -0.0000000000000000 [Eh]
	 Same-Spin Energy          =      -0.4974347691434612 [Eh]
	 Opposite-Spin Energy      =      -1.6676156752034148 [Eh]
	 Correlation Energy        =      -2.1650504443468761 [Eh]
	 Total Energy              =    -465.1757664480799122 [Eh]

	 ================> DF-SCS-MP2 Energies <==================
	-----------------------------------------------------------
	 SCS Same-Spin Scale       =       0.3333333333333333 [-]
	 SCS Opposite-Spin Scale   =       1.2000000000000000 [-]
	 SCS Same-Spin Energy      =      -0.1658115897144871 [Eh]
	 SCS Opposite-Spin Energy  =      -2.0011388102440977 [Eh]
	 SCS Correlation Energy    =      -2.1669503999585848 [Eh]
	 SCS Total Energy          =    -465.1776664036916031 [Eh]
	-----------------------------------------------------------

  Dipole Moment: [D]
     X:    -0.0391      Y:    -0.6568      Z:    -0.2159     Total:     0.6925

*** Psi4 exiting successfully. Buy a developer a beer!
