                               Psi4 1.3.2 release

  ==> Input File <==

--------------------------------------------------------------------------
#psi4
#
memory 32 gb

molecule  {
0 1
  O        0.0723890     1.0222580     0.5077940
  C       -0.7418240    -1.0387750     0.1269710
  C        0.6976440    -1.0752042    -0.0133507
  C       -1.0714850     0.2632460     0.3951280
  C        1.1400710     0.1773790     0.3033030
  C       -2.3562760     1.0018630     0.5198060
  C        2.4849120     0.8120840     0.3409220
  C       -1.6830070    -2.1819480    -0.0885940
  C        1.5125100    -2.3214750    -0.1762480
  C       -2.8486430     1.5569180    -0.8246800
  C        2.8130920     1.5744450    -0.9510270
  H        3.2336060     0.0303330     0.5193890
  H        2.5305840     1.4962520     1.1974230
  H       -2.2159340     1.8224920     1.2344330
  H       -3.1130010     0.3316860     0.9491040
  H       -1.4229750    -3.0387300     0.5441040
  H       -2.7119990    -1.8902510     0.1457090
  H       -1.6650160    -2.5262940    -1.1310850
  H        2.5139960    -2.0634500    -0.5387900
  H        1.6621169    -2.9540734     0.7083032
  H        1.0429930    -2.9642660    -0.9286680
  H        2.8128660     0.8932150    -1.8063400
  H        3.7971100     2.0487280    -0.8855010
  H        2.0638530     2.3513280    -1.1313670
  H       -2.0994070     2.2298930    -1.2537260
  H       -3.7828960     2.1123340    -0.7007770
  H       -3.0218850     0.7415120    -1.5334270
units angstrom
no_reorient  #important for SAPT in psi4, default
symmetry c1  #important for SAPT in psi4, default
}

set PROPERTIES_ORIGIN ["COM"]
properties('MP2/aug-cc-pvtz', properties = ['dipole'])
--------------------------------------------------------------------------

    Molecular point group: c1
  Charge       = 0
  Multiplicity = 1
  Basis Set: AUG-CC-PVTZ
    Blend: AUG-CC-PVTZ
  Basis Set: (AUG-CC-PVTZ AUX)
    Blend: AUG-CC-PVTZ-JKFIT

    Orbital Energies [Eh]
    ---------------------

    Doubly Occupied:

       1A    -20.599077     2A    -11.271278     3A    -11.269901
       4A    -11.230292     5A    -11.230291     6A    -11.223026
       7A    -11.222500     8A    -11.217076     9A    -11.216113
      10A    -11.215669    11A    -11.215005    12A     -1.430368
      13A     -1.097302    14A     -1.079651    15A     -1.036276
      16A     -0.990053    17A     -0.932029    18A     -0.927981
      19A     -0.870217    20A     -0.816503    21A     -0.750912
      22A     -0.719851    23A     -0.658833    24A     -0.626990
      25A     -0.611025    26A     -0.610426    27A     -0.587166
      28A     -0.583703    29A     -0.566450    30A     -0.556825
      31A     -0.547089    32A     -0.533036    33A     -0.527292
      34A     -0.524038    35A     -0.521849    36A     -0.505646
      37A     -0.495404    38A     -0.492899    39A     -0.484228
      40A     -0.464842    41A     -0.359973    42A     -0.281067

  @DF-RHF Final Energy:  -463.00913409886840

   => Energetics <=

    Nuclear Repulsion Energy =            629.4485022211060823
    One-Electron Energy =               -1876.7149620669072192
    Two-Electron Energy =                 784.2573257469327928
    Total Energy =                       -463.0091340988683442
  Basis Set: (AUG-CC-PVTZ AUX)
    Blend: AUG-CC-PVTZ-RI
    Molecular point group: c1

    Geometry (in Angstrom), charge = 0, multiplicity = 1:

       Center              X                  Y                   Z               Mass
    ------------   -----------------  -----------------  -----------------  -----------------
         O            0.071449915414     1.021053434586     0.513962897763    15.994914619570
         C           -0.742763084586    -1.039979565414     0.133139897763    12.000000000000
         C            0.696704915414    -1.076408765414    -0.007181802237    12.000000000000
         C           -1.072424084586     0.262041434586     0.401296897763    12.000000000000
         C            1.139131915414     0.176174434586     0.309471897763    12.000000000000
         C           -2.357215084586     1.000658434586     0.525974897763    12.000000000000
         C            2.483972915414     0.810879434586     0.347090897763    12.000000000000
         C           -1.683946084586    -2.183152565414    -0.082425102237    12.000000000000
         C            1.511570915414    -2.322679565414    -0.170079102237    12.000000000000
         C           -2.849582084586     1.555713434586    -0.818511102237    12.000000000000
         C            2.812152915414     1.573240434586    -0.944858102237    12.000000000000
         H            3.232666915414     0.029128434586     0.525557897763     1.007825032230
         H            2.529644915414     1.495047434586     1.203591897763     1.007825032230
         H           -2.216873084586     1.821287434586     1.240601897763     1.007825032230
         H           -3.113940084586     0.330481434586     0.955272897763     1.007825032230
         H           -1.423914084586    -3.039934565414     0.550272897763     1.007825032230
         H           -2.712938084586    -1.891455565414     0.151877897763     1.007825032230
         H           -1.665955084586    -2.527498565414    -1.124916102237     1.007825032230
         H            2.513056915414    -2.064654565414    -0.532621102237     1.007825032230
         H            1.661177815414    -2.955277965414     0.714472097763     1.007825032230
         H            1.042053915414    -2.965470565414    -0.922499102237     1.007825032230
         H            2.811926915414     0.892010434586    -1.800171102237     1.007825032230
         H            3.796170915414     2.047523434586    -0.879332102237     1.007825032230
         H            2.062913915414     2.350123434586    -1.125198102237     1.007825032230
         H           -2.100346084586     2.228688434586    -1.247557102237     1.007825032230
         H           -3.783835084586     2.111129434586    -0.694608102237     1.007825032230
         H           -3.022824084586     0.740307434586    -1.527258102237     1.007825032230

  Basis Set: AUG-CC-PVTZ
    Blend: AUG-CC-PVTZ
  Basis Set: (AUG-CC-PVTZ AUX)
    Blend: AUG-CC-PVTZ-JKFIT
	 Reference Energy          =    -463.0091340988684010 [Eh]
	 Singles Energy            =      -0.0000000000000000 [Eh]
	 Same-Spin Energy          =      -0.4969852742055287 [Eh]
	 Opposite-Spin Energy      =      -1.6671579159208521 [Eh]
	 Correlation Energy        =      -2.1641431901263806 [Eh]
	 Total Energy              =    -465.1732772889947682 [Eh]

	 ================> DF-SCS-MP2 Energies <==================
	-----------------------------------------------------------
	 SCS Same-Spin Scale       =       0.3333333333333333 [-]
	 SCS Opposite-Spin Scale   =       1.2000000000000000 [-]
	 SCS Same-Spin Energy      =      -0.1656617580685096 [Eh]
	 SCS Opposite-Spin Energy  =      -2.0005894991050224 [Eh]
	 SCS Correlation Energy    =      -2.1662512571735322 [Eh]
	 SCS Total Energy          =    -465.1753853560419429 [Eh]
	-----------------------------------------------------------

  Dipole Moment: [D]
     X:    -0.0400      Y:    -0.6256      Z:    -0.1660     Total:     0.6485

*** Psi4 exiting successfully. Buy a developer a beer!
