                               Psi4 1.3.2 release

  ==> Input File <==

--------------------------------------------------------------------------
#psi4
#
memory 32 gb

molecule  {
0 1
  O        0.0984272     0.9827789     0.4991389
  C       -0.6956565    -1.0264012     0.1279085
  C        0.6883760    -1.0936210     0.0623120
  C       -1.0714850     0.2632460     0.3951280
  C        1.1400710     0.1773790     0.3033030
  C       -2.3562760     1.0018630     0.5198060
  C        2.4849120     0.8120840     0.3409220
  C       -1.6830070    -2.1819480    -0.0885940
  C        1.5125100    -2.3214750    -0.1762480
  C       -2.8486430     1.5569180    -0.8246800
  C        2.8130920     1.5744450    -0.9510270
  H        3.2336060     0.0303330     0.5193890
  H        2.5305840     1.4962520     1.1974230
  H       -2.2159340     1.8224920     1.2344330
  H       -3.1130010     0.3316860     0.9491040
  H       -1.4229750    -3.0387300     0.5441040
  H       -2.7119990    -1.8902510     0.1457090
  H       -1.6650160    -2.5262940    -1.1310850
  H        2.5139960    -2.0634500    -0.5387900
  H        1.6307130    -2.9166200     0.7385330
  H        1.0429930    -2.9642660    -0.9286680
  H        2.8128660     0.8932150    -1.8063400
  H        3.7971100     2.0487280    -0.8855010
  H        2.0638530     2.3513280    -1.1313670
  H       -2.0994070     2.2298930    -1.2537260
  H       -3.7828960     2.1123340    -0.7007770
  H       -3.0218850     0.7415120    -1.5334270
units angstrom
no_reorient  #important for SAPT in psi4, default
symmetry c1  #important for SAPT in psi4, default
}

set PROPERTIES_ORIGIN ["COM"]
properties('MP2/aug-cc-pvtz', properties = ['dipole'])
--------------------------------------------------------------------------

    Molecular point group: c1
  Charge       = 0
  Multiplicity = 1
  Basis Set: AUG-CC-PVTZ
    Blend: AUG-CC-PVTZ
  Basis Set: (AUG-CC-PVTZ AUX)
    Blend: AUG-CC-PVTZ-JKFIT

    Orbital Energies [Eh]
    ---------------------

    Doubly Occupied:

       1A    -20.599717     2A    -11.267110     3A    -11.265897
       4A    -11.232846     5A    -11.229776     6A    -11.223293
       7A    -11.220755     8A    -11.216011     9A    -11.215260
      10A    -11.213414    11A    -11.206967    12A     -1.447161
      13A     -1.100365    14A     -1.080506    15A     -1.037753
      16A     -0.985491    17A     -0.931164    18A     -0.930483
      19A     -0.871921    20A     -0.818757    21A     -0.753248
      22A     -0.727276    23A     -0.662827    24A     -0.633644
      25A     -0.610827    26A     -0.609953    27A     -0.590218
      28A     -0.581802    29A     -0.566431    30A     -0.552815
      31A     -0.546312    32A     -0.535204    33A     -0.527647
      34A     -0.522678    35A     -0.513411    36A     -0.506244
      37A     -0.496754    38A     -0.492648    39A     -0.484183
      40A     -0.471356    41A     -0.363638    42A     -0.275957

  @DF-RHF Final Energy:  -463.00894244716017

   => Energetics <=

    Nuclear Repulsion Energy =            631.2728951568574303
    One-Electron Energy =               -1880.3242336491821334
    Two-Electron Energy =                 786.0423960451645371
    Total Energy =                       -463.0089424471601660
  Basis Set: (AUG-CC-PVTZ AUX)
    Blend: AUG-CC-PVTZ-RI
    Molecular point group: c1

    Geometry (in Angstrom), charge = 0, multiplicity = 1:

       Center              X                  Y                   Z               Mass
    ------------   -----------------  -----------------  -----------------  -----------------
         O            0.092047525597     0.985953994430     0.499974964804    15.994914619570
         C           -0.702036174403    -1.023226105570     0.128744564804    12.000000000000
         C            0.681996325597    -1.090445905570     0.063148064804    12.000000000000
         C           -1.077864674403     0.266421094430     0.395964064804    12.000000000000
         C            1.133691325597     0.180554094430     0.304139064804    12.000000000000
         C           -2.362655674403     1.005038094430     0.520642064804    12.000000000000
         C            2.478532325597     0.815259094430     0.341758064804    12.000000000000
         C           -1.689386674403    -2.178772905570    -0.087757935196    12.000000000000
         C            1.506130325597    -2.318299905570    -0.175411935196    12.000000000000
         C           -2.855022674403     1.560093094430    -0.823843935196    12.000000000000
         C            2.806712325597     1.577620094430    -0.950190935196    12.000000000000
         H            3.227226325597     0.033508094430     0.520225064804     1.007825032230
         H            2.524204325597     1.499427094430     1.198259064804     1.007825032230
         H           -2.222313674403     1.825667094430     1.235269064804     1.007825032230
         H           -3.119380674403     0.334861094430     0.949940064804     1.007825032230
         H           -1.429354674403    -3.035554905570     0.544940064804     1.007825032230
         H           -2.718378674403    -1.887075905570     0.146545064804     1.007825032230
         H           -1.671395674403    -2.523118905570    -1.130248935196     1.007825032230
         H            2.507616325597    -2.060274905570    -0.537953935196     1.007825032230
         H            1.624333325597    -2.913444905570     0.739369064804     1.007825032230
         H            1.036613325597    -2.961090905570    -0.927831935196     1.007825032230
         H            2.806486325597     0.896390094430    -1.805503935196     1.007825032230
         H            3.790730325597     2.051903094430    -0.884664935196     1.007825032230
         H            2.057473325597     2.354503094430    -1.130530935196     1.007825032230
         H           -2.105786674403     2.233068094430    -1.252889935196     1.007825032230
         H           -3.789275674403     2.115509094430    -0.699940935196     1.007825032230
         H           -3.028264674403     0.744687094430    -1.532590935196     1.007825032230

  Basis Set: AUG-CC-PVTZ
    Blend: AUG-CC-PVTZ
  Basis Set: (AUG-CC-PVTZ AUX)
    Blend: AUG-CC-PVTZ-JKFIT
	 Reference Energy          =    -463.0089424471601660 [Eh]
	 Singles Energy            =      -0.0000000000000000 [Eh]
	 Same-Spin Energy          =      -0.4975516013807071 [Eh]
	 Opposite-Spin Energy      =      -1.6662293321510402 [Eh]
	 Correlation Energy        =      -2.1637809335317475 [Eh]
	 Total Energy              =    -465.1727233806919344 [Eh]

	 ================> DF-SCS-MP2 Energies <==================
	-----------------------------------------------------------
	 SCS Same-Spin Scale       =       0.3333333333333333 [-]
	 SCS Opposite-Spin Scale   =       1.2000000000000000 [-]
	 SCS Same-Spin Energy      =      -0.1658505337935690 [Eh]
	 SCS Opposite-Spin Energy  =      -1.9994751985812482 [Eh]
	 SCS Correlation Energy    =      -2.1653257323748174 [Eh]
	 SCS Total Energy          =    -465.1742681795349768 [Eh]
	-----------------------------------------------------------

  Dipole Moment: [D]
     X:    -0.0966      Y:    -0.4641      Z:    -0.1795     Total:     0.5069

*** Psi4 exiting successfully. Buy a developer a beer!
