                               Psi4 1.3.2 release

  ==> Input File <==

--------------------------------------------------------------------------
#psi4
#
memory 32 gb

molecule  {
0 1
  O        0.0723890     1.0222580     0.5077940
  C       -0.7418240    -1.0387750     0.1269710
  C        0.6828907    -1.1667401     0.0465098
  C       -1.0714850     0.2632460     0.3951280
  C        1.1400710     0.1773790     0.3033030
  C       -2.3562760     1.0018630     0.5198060
  C        2.4849120     0.8120840     0.3409220
  C       -1.6208988    -2.2280633    -0.1009742
  C        1.5125100    -2.3214750    -0.1762480
  C       -2.8486430     1.5569180    -0.8246800
  C        2.8130920     1.5744450    -0.9510270
  H        3.2336060     0.0303330     0.5193890
  H        2.5305840     1.4962520     1.1974230
  H       -2.2159340     1.8224920     1.2344330
  H       -3.1130010     0.3316860     0.9491040
  H       -1.4229750    -3.0387300     0.5441040
  H       -2.7119990    -1.8902510     0.1457090
  H       -1.6650160    -2.5262940    -1.1310850
  H        2.5139960    -2.0634500    -0.5387900
  H        1.6307130    -2.9166200     0.7385330
  H        1.0429930    -2.9642660    -0.9286680
  H        2.8128660     0.8932150    -1.8063400
  H        3.7971100     2.0487280    -0.8855010
  H        2.0638530     2.3513280    -1.1313670
  H       -2.0994070     2.2298930    -1.2537260
  H       -3.7828960     2.1123340    -0.7007770
  H       -3.0218850     0.7415120    -1.5334270
units angstrom
no_reorient  #important for SAPT in psi4, default
symmetry c1  #important for SAPT in psi4, default
}

set PROPERTIES_ORIGIN ["COM"]
properties('MP2/aug-cc-pvtz', properties = ['dipole'])
--------------------------------------------------------------------------

    Molecular point group: c1
  Charge       = 0
  Multiplicity = 1
  Basis Set: AUG-CC-PVTZ
    Blend: AUG-CC-PVTZ
  Basis Set: (AUG-CC-PVTZ AUX)
    Blend: AUG-CC-PVTZ-JKFIT

    Orbital Energies [Eh]
    ---------------------

    Doubly Occupied:

       1A    -20.604565     2A    -11.278591     3A    -11.270409
       4A    -11.230138     5A    -11.230113     6A    -11.222612
       7A    -11.221199     8A    -11.220329     9A    -11.217706
      10A    -11.214956    11A    -11.214772    12A     -1.430681
      13A     -1.100431    14A     -1.077370    15A     -1.036665
      16A     -0.994672    17A     -0.931143    18A     -0.926992
      19A     -0.869682    20A     -0.811994    21A     -0.748532
      22A     -0.721640    23A     -0.658488    24A     -0.627683
      25A     -0.612232    26A     -0.610916    27A     -0.588268
      28A     -0.586229    29A     -0.577726    30A     -0.564994
      31A     -0.554223    32A     -0.530925    33A     -0.530580
      34A     -0.521928    35A     -0.519800    36A     -0.505153
      37A     -0.494020    38A     -0.491208    39A     -0.484354
      40A     -0.453202    41A     -0.358043    42A     -0.270152

  @DF-RHF Final Energy:  -462.99225803206264

   => Energetics <=

    Nuclear Repulsion Energy =            628.7197493998680784
    One-Electron Energy =               -1875.1933895793333704
    Two-Electron Energy =                 783.4813821474026554
    Total Energy =                       -462.9922580320626366
  Basis Set: (AUG-CC-PVTZ AUX)
    Blend: AUG-CC-PVTZ-RI
    Molecular point group: c1

    Geometry (in Angstrom), charge = 0, multiplicity = 1:

       Center              X                  Y                   Z               Mass
    ------------   -----------------  -----------------  -----------------  -----------------
         O            0.067922379539     1.031663917785     0.510017134583    15.994914619570
         C           -0.746290620461    -1.029369082215     0.129194134583    12.000000000000
         C            0.678424079539    -1.157334182215     0.048732934583    12.000000000000
         C           -1.075951620461     0.272651917785     0.397351134583    12.000000000000
         C            1.135604379539     0.186784917785     0.305526134583    12.000000000000
         C           -2.360742620461     1.011268917785     0.522029134583    12.000000000000
         C            2.480445379539     0.821489917785     0.343145134583    12.000000000000
         C           -1.625365420461    -2.218657382215    -0.098751065417    12.000000000000
         C            1.508043379539    -2.312069082215    -0.174024865417    12.000000000000
         C           -2.853109620461     1.566323917785    -0.822456865417    12.000000000000
         C            2.808625379539     1.583850917785    -0.948803865417    12.000000000000
         H            3.229139379539     0.039738917785     0.521612134583     1.007825032230
         H            2.526117379539     1.505657917785     1.199646134583     1.007825032230
         H           -2.220400620461     1.831897917785     1.236656134583     1.007825032230
         H           -3.117467620461     0.341091917785     0.951327134583     1.007825032230
         H           -1.427441620461    -3.029324082215     0.546327134583     1.007825032230
         H           -2.716465620461    -1.880845082215     0.147932134583     1.007825032230
         H           -1.669482620461    -2.516888082215    -1.128861865417     1.007825032230
         H            2.509529379539    -2.054044082215    -0.536566865417     1.007825032230
         H            1.626246379539    -2.907214082215     0.740756134583     1.007825032230
         H            1.038526379539    -2.954860082215    -0.926444865417     1.007825032230
         H            2.808399379539     0.902620917785    -1.804116865417     1.007825032230
         H            3.792643379539     2.058133917785    -0.883277865417     1.007825032230
         H            2.059386379539     2.360733917785    -1.129143865417     1.007825032230
         H           -2.103873620461     2.239298917785    -1.251502865417     1.007825032230
         H           -3.787362620461     2.121739917785    -0.698553865417     1.007825032230
         H           -3.026351620461     0.750917917785    -1.531203865417     1.007825032230

  Basis Set: AUG-CC-PVTZ
    Blend: AUG-CC-PVTZ
  Basis Set: (AUG-CC-PVTZ AUX)
    Blend: AUG-CC-PVTZ-JKFIT
	 Reference Energy          =    -462.9922580320626366 [Eh]
	 Singles Energy            =      -0.0000000000000000 [Eh]
	 Same-Spin Energy          =      -0.4995129402272098 [Eh]
	 Opposite-Spin Energy      =      -1.6708671653274718 [Eh]
	 Correlation Energy        =      -2.1703801055546816 [Eh]
	 Total Energy              =    -465.1626381376173072 [Eh]

	 ================> DF-SCS-MP2 Energies <==================
	-----------------------------------------------------------
	 SCS Same-Spin Scale       =       0.3333333333333333 [-]
	 SCS Opposite-Spin Scale   =       1.2000000000000000 [-]
	 SCS Same-Spin Energy      =      -0.1665043134090699 [Eh]
	 SCS Opposite-Spin Energy  =      -2.0050405983929660 [Eh]
	 SCS Correlation Energy    =      -2.1715449118020360 [Eh]
	 SCS Total Energy          =    -465.1638029438646527 [Eh]
	-----------------------------------------------------------

  Dipole Moment: [D]
     X:     0.0292      Y:    -0.6772      Z:    -0.2138     Total:     0.7108

*** Psi4 exiting successfully. Buy a developer a beer!
