                               Psi4 1.3.2 release

  ==> Input File <==

--------------------------------------------------------------------------
#psi4
#
memory 32 gb

molecule  {
0 1
  O        0.0723890     1.0222580     0.5077940
  C       -0.7418240    -1.0387750     0.1269710
  C        0.6436353    -1.0780839     0.0689729
  C       -1.0714850     0.2632460     0.3951280
  C        1.1400710     0.1773790     0.3033030
  C       -2.3562760     1.0018630     0.5198060
  C        2.4622206     0.8573610     0.3523732
  C       -1.6830070    -2.1819480    -0.0885940
  C        1.5125100    -2.3214750    -0.1762480
  C       -2.8486430     1.5569180    -0.8246800
  C        2.8130920     1.5744450    -0.9510270
  H        3.2336060     0.0303330     0.5193890
  H        2.5305840     1.4962520     1.1974230
  H       -2.2159340     1.8224920     1.2344330
  H       -3.1130010     0.3316860     0.9491040
  H       -1.4229750    -3.0387300     0.5441040
  H       -2.7119990    -1.8902510     0.1457090
  H       -1.6650160    -2.5262940    -1.1310850
  H        2.5139960    -2.0634500    -0.5387900
  H        1.6307130    -2.9166200     0.7385330
  H        1.0429930    -2.9642660    -0.9286680
  H        2.8128660     0.8932150    -1.8063400
  H        3.7971100     2.0487280    -0.8855010
  H        2.0638530     2.3513280    -1.1313670
  H       -2.0994070     2.2298930    -1.2537260
  H       -3.7828960     2.1123340    -0.7007770
  H       -3.0218850     0.7415120    -1.5334270
units angstrom
no_reorient  #important for SAPT in psi4, default
symmetry c1  #important for SAPT in psi4, default
}

set PROPERTIES_ORIGIN ["COM"]
properties('MP2/aug-cc-pvtz', properties = ['dipole'])
--------------------------------------------------------------------------

    Molecular point group: c1
  Charge       = 0
  Multiplicity = 1
  Basis Set: AUG-CC-PVTZ
    Blend: AUG-CC-PVTZ
  Basis Set: (AUG-CC-PVTZ AUX)
    Blend: AUG-CC-PVTZ-JKFIT

    Orbital Energies [Eh]
    ---------------------

    Doubly Occupied:

       1A    -20.598209     2A    -11.269517     3A    -11.267793
       4A    -11.231637     5A    -11.229892     6A    -11.223997
       7A    -11.223602     8A    -11.215503     9A    -11.215208
      10A    -11.214782    11A    -11.212202    12A     -1.430726
      13A     -1.103518    14A     -1.078325    15A     -1.037438
      16A     -0.986716    17A     -0.933531    18A     -0.926609
      19A     -0.870955    20A     -0.815715    21A     -0.746960
      22A     -0.729858    23A     -0.658965    24A     -0.627569
      25A     -0.613124    26A     -0.607415    27A     -0.585473
      28A     -0.583341    29A     -0.567049    30A     -0.553755
      31A     -0.547278    32A     -0.535591    33A     -0.527438
      34A     -0.525152    35A     -0.515365    36A     -0.508143
      37A     -0.494319    38A     -0.492405    39A     -0.475951
      40A     -0.474564    41A     -0.367277    42A     -0.276553

  @DF-RHF Final Energy:  -463.00471466876854

   => Energetics <=

    Nuclear Repulsion Energy =            630.1812606932793415
    One-Electron Energy =               -1878.1731156524576818
    Two-Electron Energy =                 784.9871402904099114
    Total Energy =                       -463.0047146687685427
  Basis Set: (AUG-CC-PVTZ AUX)
    Blend: AUG-CC-PVTZ-RI
    Molecular point group: c1

    Geometry (in Angstrom), charge = 0, multiplicity = 1:

       Center              X                  Y                   Z               Mass
    ------------   -----------------  -----------------  -----------------  -----------------
         O            0.077708462061     1.017460786279     0.506365191515    15.994914619570
         C           -0.736504537939    -1.043572213721     0.125542191515    12.000000000000
         C            0.648954762061    -1.082881113721     0.067544091515    12.000000000000
         C           -1.066165537939     0.258448786279     0.393699191515    12.000000000000
         C            1.145390462061     0.172581786279     0.301874191515    12.000000000000
         C           -2.350956537939     0.997065786279     0.518377191515    12.000000000000
         C            2.467540062061     0.852563786279     0.350944391515    12.000000000000
         C           -1.677687537939    -2.186745213721    -0.090022808485    12.000000000000
         C            1.517829462061    -2.326272213721    -0.177676808485    12.000000000000
         C           -2.843323537939     1.552120786279    -0.826108808485    12.000000000000
         C            2.818411462061     1.569647786279    -0.952455808485    12.000000000000
         H            3.238925462061     0.025535786279     0.517960191515     1.007825032230
         H            2.535903462061     1.491454786279     1.195994191515     1.007825032230
         H           -2.210614537939     1.817694786279     1.233004191515     1.007825032230
         H           -3.107681537939     0.326888786279     0.947675191515     1.007825032230
         H           -1.417655537939    -3.043527213721     0.542675191515     1.007825032230
         H           -2.706679537939    -1.895048213721     0.144280191515     1.007825032230
         H           -1.659696537939    -2.531091213721    -1.132513808485     1.007825032230
         H            2.519315462061    -2.068247213721    -0.540218808485     1.007825032230
         H            1.636032462061    -2.921417213721     0.737104191515     1.007825032230
         H            1.048312462061    -2.969063213721    -0.930096808485     1.007825032230
         H            2.818185462061     0.888417786279    -1.807768808485     1.007825032230
         H            3.802429462061     2.043930786279    -0.886929808485     1.007825032230
         H            2.069172462061     2.346530786279    -1.132795808485     1.007825032230
         H           -2.094087537939     2.225095786279    -1.255154808485     1.007825032230
         H           -3.777576537939     2.107536786279    -0.702205808485     1.007825032230
         H           -3.016565537939     0.736714786279    -1.534855808485     1.007825032230

  Basis Set: AUG-CC-PVTZ
    Blend: AUG-CC-PVTZ
  Basis Set: (AUG-CC-PVTZ AUX)
    Blend: AUG-CC-PVTZ-JKFIT
	 Reference Energy          =    -463.0047146687685427 [Eh]
	 Singles Energy            =      -0.0000000000000000 [Eh]
	 Same-Spin Energy          =      -0.4978460127183162 [Eh]
	 Opposite-Spin Energy      =      -1.6680495185965034 [Eh]
	 Correlation Energy        =      -2.1658955313148196 [Eh]
	 Total Energy              =    -465.1706102000833880 [Eh]

	 ================> DF-SCS-MP2 Energies <==================
	-----------------------------------------------------------
	 SCS Same-Spin Scale       =       0.3333333333333333 [-]
	 SCS Opposite-Spin Scale   =       1.2000000000000000 [-]
	 SCS Same-Spin Energy      =      -0.1659486709061054 [Eh]
	 SCS Opposite-Spin Energy  =      -2.0016594223158042 [Eh]
	 SCS Correlation Energy    =      -2.1676080932219097 [Eh]
	 SCS Total Energy          =    -465.1723227619904719 [Eh]
	-----------------------------------------------------------

  Dipole Moment: [D]
     X:    -0.0597      Y:    -0.6062      Z:    -0.2112     Total:     0.6447

*** Psi4 exiting successfully. Buy a developer a beer!
