                               Psi4 1.3.2 release

  ==> Input File <==

--------------------------------------------------------------------------
#psi4
#
memory 32 gb

molecule  {
0 1
  O        0.0723890     1.0222580     0.5077940
  C       -0.7418240    -1.0387750     0.1269710
  C        0.6857876    -1.1005106     0.0873978
  C       -1.0714850     0.2632460     0.3951280
  C        1.1400710     0.1773790     0.3033030
  C       -2.3562760     1.0018630     0.5198060
  C        2.4849120     0.8120840     0.3409220
  C       -1.6830070    -2.1819480    -0.0885940
  C        1.5125100    -2.3214750    -0.1762480
  C       -2.8486430     1.5569180    -0.8246800
  C        2.8130920     1.5744450    -0.9510270
  H        3.2336060     0.0303330     0.5193890
  H        2.5305840     1.4962520     1.1974230
  H       -2.2159340     1.8224920     1.2344330
  H       -3.1130010     0.3316860     0.9491040
  H       -1.4229750    -3.0387300     0.5441040
  H       -2.7119990    -1.8902510     0.1457090
  H       -1.6650160    -2.5262940    -1.1310850
  H        2.5139960    -2.0634500    -0.5387900
  H        1.6201688    -2.9037678     0.7480563
  H        1.0429930    -2.9642660    -0.9286680
  H        2.8128660     0.8932150    -1.8063400
  H        3.7971100     2.0487280    -0.8855010
  H        2.0638530     2.3513280    -1.1313670
  H       -2.0994070     2.2298930    -1.2537260
  H       -3.7828960     2.1123340    -0.7007770
  H       -3.0218850     0.7415120    -1.5334270
units angstrom
no_reorient  #important for SAPT in psi4, default
symmetry c1  #important for SAPT in psi4, default
}

set PROPERTIES_ORIGIN ["COM"]
properties('MP2/aug-cc-pvtz', properties = ['dipole'])
--------------------------------------------------------------------------

    Molecular point group: c1
  Charge       = 0
  Multiplicity = 1
  Basis Set: AUG-CC-PVTZ
    Blend: AUG-CC-PVTZ
  Basis Set: (AUG-CC-PVTZ AUX)
    Blend: AUG-CC-PVTZ-JKFIT

    Orbital Energies [Eh]
    ---------------------

    Doubly Occupied:

       1A    -20.598655     2A    -11.269526     3A    -11.269372
       4A    -11.230083     5A    -11.229970     6A    -11.223212
       7A    -11.222956     8A    -11.216214     9A    -11.215437
      10A    -11.215021    11A    -11.214641    12A     -1.429584
      13A     -1.099078    14A     -1.078657    15A     -1.036222
      16A     -0.990095    17A     -0.932296    18A     -0.927468
      19A     -0.870146    20A     -0.815236    21A     -0.748941
      22A     -0.722147    23A     -0.657773    24A     -0.627488
      25A     -0.611074    26A     -0.609540    27A     -0.586783
      28A     -0.583659    29A     -0.568596    30A     -0.556273
      31A     -0.549774    32A     -0.533679    33A     -0.527870
      34A     -0.523700    35A     -0.520653    36A     -0.505282
      37A     -0.495239    38A     -0.492323    39A     -0.483773
      40A     -0.467676    41A     -0.360757    42A     -0.278178

  @DF-RHF Final Energy:  -463.01155951624202

   => Energetics <=

    Nuclear Repulsion Energy =            629.5751019673675728
    One-Electron Energy =               -1876.9832314283892174
    Two-Electron Energy =                 784.3965699447796851
    Total Energy =                       -463.0115595162419595
  Basis Set: (AUG-CC-PVTZ AUX)
    Blend: AUG-CC-PVTZ-RI
    Molecular point group: c1

    Geometry (in Angstrom), charge = 0, multiplicity = 1:

       Center              X                  Y                   Z               Mass
    ------------   -----------------  -----------------  -----------------  -----------------
         O            0.072663122129     1.022716446455     0.505751977279    15.994914619570
         C           -0.741549877871    -1.038316553545     0.124928977279    12.000000000000
         C            0.686061722129    -1.100052153545     0.085355777279    12.000000000000
         C           -1.071210877871     0.263704446455     0.393085977279    12.000000000000
         C            1.140345122129     0.177837446455     0.301260977279    12.000000000000
         C           -2.356001877871     1.002321446455     0.517763977279    12.000000000000
         C            2.485186122129     0.812542446455     0.338879977279    12.000000000000
         C           -1.682732877871    -2.181489553545    -0.090636022721    12.000000000000
         C            1.512784122129    -2.321016553545    -0.178290022721    12.000000000000
         C           -2.848368877871     1.557376446455    -0.826722022721    12.000000000000
         C            2.813366122129     1.574903446455    -0.953069022721    12.000000000000
         H            3.233880122129     0.030791446455     0.517346977279     1.007825032230
         H            2.530858122129     1.496710446455     1.195380977279     1.007825032230
         H           -2.215659877871     1.822950446455     1.232390977279     1.007825032230
         H           -3.112726877871     0.332144446455     0.947061977279     1.007825032230
         H           -1.422700877871    -3.038271553545     0.542061977279     1.007825032230
         H           -2.711724877871    -1.889792553545     0.143666977279     1.007825032230
         H           -1.664741877871    -2.525835553545    -1.133127022721     1.007825032230
         H            2.514270122129    -2.062991553545    -0.540832022721     1.007825032230
         H            1.620442922129    -2.903309353545     0.746014277279     1.007825032230
         H            1.043267122129    -2.963807553545    -0.930710022721     1.007825032230
         H            2.813140122129     0.893673446455    -1.808382022721     1.007825032230
         H            3.797384122129     2.049186446455    -0.887543022721     1.007825032230
         H            2.064127122129     2.351786446455    -1.133409022721     1.007825032230
         H           -2.099132877871     2.230351446455    -1.255768022721     1.007825032230
         H           -3.782621877871     2.112792446455    -0.702819022721     1.007825032230
         H           -3.021610877871     0.741970446455    -1.535469022721     1.007825032230

  Basis Set: AUG-CC-PVTZ
    Blend: AUG-CC-PVTZ
  Basis Set: (AUG-CC-PVTZ AUX)
    Blend: AUG-CC-PVTZ-JKFIT
	 Reference Energy          =    -463.0115595162420163 [Eh]
	 Singles Energy            =      -0.0000000000000000 [Eh]
	 Same-Spin Energy          =      -0.4972110342089785 [Eh]
	 Opposite-Spin Energy      =      -1.6672995263412007 [Eh]
	 Correlation Energy        =      -2.1645105605501791 [Eh]
	 Total Energy              =    -465.1760700767922003 [Eh]

	 ================> DF-SCS-MP2 Energies <==================
	-----------------------------------------------------------
	 SCS Same-Spin Scale       =       0.3333333333333333 [-]
	 SCS Opposite-Spin Scale   =       1.2000000000000000 [-]
	 SCS Same-Spin Energy      =      -0.1657370114029928 [Eh]
	 SCS Opposite-Spin Energy  =      -2.0007594316094406 [Eh]
	 SCS Correlation Energy    =      -2.1664964430124334 [Eh]
	 SCS Total Energy          =    -465.1780559592544364 [Eh]
	-----------------------------------------------------------

  Dipole Moment: [D]
     X:    -0.0290      Y:    -0.6553      Z:    -0.2324     Total:     0.6959

*** Psi4 exiting successfully. Buy a developer a beer!
