                               Psi4 1.4a3.dev225

  ==> Input File <==

--------------------------------------------------------------------------
#psi4
#
memory 32 gb

molecule  {
0 1
  O        0.0000040    -0.9323440    -0.5200900
  C       -0.7186120     1.1388030    -0.0293360
  C        0.7186000     1.1388090    -0.0293300
  C       -1.1092540    -0.1401520    -0.3350070
  C        1.1092550    -0.1401430    -0.3349960
  C       -2.4021551    -0.8234323    -0.4641832
  C        2.4197760    -0.8327180    -0.4659420
  C       -1.5881550     2.3237520     0.2504950
  C        1.5881310     2.3237650     0.2505070
  C       -2.6404590    -1.8837440     0.6266770
  C        2.6404800    -1.8837320     0.6266650
  H        3.2127060    -0.0780420    -0.4310990
  H        2.4812700    -1.3082390    -1.4528680
  H       -2.4812630    -1.3082740    -1.4528630
  H       -3.2127060    -0.0780720    -0.4311050
  H       -1.4004860     3.1330380    -0.4637010
  H       -2.6480190     2.0627510     0.1871390
  H       -1.4034730     2.7248980     1.2531230
  H        2.6479980     2.0627640     0.1871950
  H        1.4004870     3.1330370    -0.4637120
  H        1.4034130     2.7249310     1.2531200
  H        2.6185650    -1.4170920     1.6153140
  H        3.6057420    -2.3837880     0.5012060
  H        1.8526560    -2.6398250     0.5898280
  H       -1.8526300    -2.6398320     0.5898440
  H       -3.6057190    -2.3838080     0.5012310
  H       -2.6185400    -1.4170920     1.6153210
units angstrom
no_reorient  #important for SAPT in psi4, default
symmetry c1  #important for SAPT in psi4, default
}

set PROPERTIES_ORIGIN ["COM"]
properties('MP2/aug-cc-pvtz', properties = ['dipole'])
--------------------------------------------------------------------------

    Molecular point group: c1
  Charge       = 0
  Multiplicity = 1
  Basis Set: AUG-CC-PVTZ
    Blend: AUG-CC-PVTZ
  Basis Set: (AUG-CC-PVTZ AUX)
    Blend: AUG-CC-PVTZ-JKFIT

    Orbital Energies [Eh]
    ---------------------

    Doubly Occupied:

       1A    -20.597440     2A    -11.271286     3A    -11.270217
       4A    -11.230138     5A    -11.229921     6A    -11.222613
       7A    -11.222590     8A    -11.217759     9A    -11.216779
      10A    -11.213800    11A    -11.213586    12A     -1.431025
      13A     -1.098172    14A     -1.080673    15A     -1.036702
      16A     -0.990778    17A     -0.933094    18A     -0.927082
      19A     -0.871122    20A     -0.815711    21A     -0.752065
      22A     -0.719404    23A     -0.660735    24A     -0.628818
      25A     -0.612077    26A     -0.609555    27A     -0.585588
      28A     -0.581967    29A     -0.569021    30A     -0.556035
      31A     -0.552082    32A     -0.533311    33A     -0.531587
      34A     -0.524838    35A     -0.517055    36A     -0.503964
      37A     -0.494819    38A     -0.490591    39A     -0.483891
      40A     -0.467786    41A     -0.360590    42A     -0.279985

  @DF-RHF Final Energy:  -463.01334634695013

   => Energetics <=

    Nuclear Repulsion Energy =            630.3065932494326944
    One-Electron Energy =               -1878.4273756207626320
    Two-Electron Energy =                 785.1074360243796946
    Total Energy =                       -463.0133463469501294
  Basis Set: (AUG-CC-PVTZ AUX)
    Blend: AUG-CC-PVTZ-RI
    Molecular point group: c1

    Geometry (in Angstrom), charge = 0, multiplicity = 1:

       Center              X                  Y                   Z               Mass
    ------------   -----------------  -----------------  -----------------  -----------------
         O           -0.001385348064    -0.931887458029    -0.496779011268    15.994914619570
         C           -0.720001348064     1.139259541971    -0.006025011268    12.000000000000
         C            0.717210651936     1.139265541971    -0.006019011268    12.000000000000
         C           -1.110643348064    -0.139695458029    -0.311696011268    12.000000000000
         C            1.107865651936    -0.139686458029    -0.311685011268    12.000000000000
         C           -2.403544448064    -0.822975758029    -0.440872211268    12.000000000000
         C            2.418386651936    -0.832261458029    -0.442631011268    12.000000000000
         C           -1.589544348064     2.324208541971     0.273805988732    12.000000000000
         C            1.586741651936     2.324221541971     0.273817988732    12.000000000000
         C           -2.641848348064    -1.883287458029     0.649987988732    12.000000000000
         C            2.639090651936    -1.883275458029     0.649975988732    12.000000000000
         H            3.211316651936    -0.077585458029    -0.407788011268     1.007825032230
         H            2.479880651936    -1.307782458029    -1.429557011268     1.007825032230
         H           -2.482652348064    -1.307817458029    -1.429552011268     1.007825032230
         H           -3.214095348064    -0.077615458029    -0.407794011268     1.007825032230
         H           -1.401875348064     3.133494541971    -0.440390011268     1.007825032230
         H           -2.649408348064     2.063207541971     0.210449988732     1.007825032230
         H           -1.404862348064     2.725354541971     1.276433988732     1.007825032230
         H            2.646608651936     2.063220541971     0.210505988732     1.007825032230
         H            1.399097651936     3.133493541971    -0.440401011268     1.007825032230
         H            1.402023651936     2.725387541971     1.276430988732     1.007825032230
         H            2.617175651936    -1.416635458029     1.638624988732     1.007825032230
         H            3.604352651936    -2.383331458029     0.524516988732     1.007825032230
         H            1.851266651936    -2.639368458029     0.613138988732     1.007825032230
         H           -1.854019348064    -2.639375458029     0.613154988732     1.007825032230
         H           -3.607108348064    -2.383351458029     0.524541988732     1.007825032230
         H           -2.619929348064    -1.416635458029     1.638631988732     1.007825032230

  Basis Set: AUG-CC-PVTZ
    Blend: AUG-CC-PVTZ
  Basis Set: (AUG-CC-PVTZ AUX)
    Blend: AUG-CC-PVTZ-JKFIT
	 Reference Energy          =    -463.0133463469501294 [Eh]
	 Singles Energy            =      -0.0000000000000000 [Eh]
	 Same-Spin Energy          =      -0.4970654874994117 [Eh]
	 Opposite-Spin Energy      =      -1.6668790561611642 [Eh]
	 Correlation Energy        =      -2.1639445436605760 [Eh]
	 Total Energy              =    -465.1772908906107205 [Eh]

	 ================> DF-SCS-MP2 Energies <==================
	-----------------------------------------------------------
	 SCS Same-Spin Scale       =       0.3333333333333333 [-]
	 SCS Opposite-Spin Scale   =       1.2000000000000000 [-]
	 SCS Same-Spin Energy      =      -0.1656884958331372 [Eh]
	 SCS Opposite-Spin Energy  =      -2.0002548673933971 [Eh]
	 SCS Correlation Energy    =      -2.1659433632265341 [Eh]
	 SCS Total Energy          =    -465.1792897101766471 [Eh]
	-----------------------------------------------------------

  Dipole Moment: [D]
     X:     0.0102      Y:     0.6508      Z:     0.2268     Total:     0.6893

*** Psi4 exiting successfully. Buy a developer a beer!
