                               Psi4 1.3.2 release

  ==> Input File <==

--------------------------------------------------------------------------
#psi4
#
memory 32 gb

molecule  {
0 1
  O        0.0723890     1.0222580     0.5077940
  C       -0.7418240    -1.0387750     0.1269710
  C        0.6883760    -1.0936210     0.0623120
  C       -1.0946320     0.2573347     0.3943086
  C        1.1400710     0.1773790     0.3033030
  C       -2.3562760     1.0018630     0.5198060
  C        2.4849120     0.8120840     0.3409220
  C       -1.7031622    -2.1657343    -0.0849955
  C        1.5125100    -2.3214750    -0.1762480
  C       -2.8486430     1.5569180    -0.8246800
  C        2.8130920     1.5744450    -0.9510270
  H        3.2336060     0.0303330     0.5193890
  H        2.5305840     1.4962520     1.1974230
  H       -2.2159340     1.8224920     1.2344330
  H       -3.1130010     0.3316860     0.9491040
  H       -1.4229750    -3.0387300     0.5441040
  H       -2.7119990    -1.8902510     0.1457090
  H       -1.6650160    -2.5262940    -1.1310850
  H        2.5139960    -2.0634500    -0.5387900
  H        1.6307130    -2.9166200     0.7385330
  H        1.0429930    -2.9642660    -0.9286680
  H        2.8128660     0.8932150    -1.8063400
  H        3.7971100     2.0487280    -0.8855010
  H        2.0638530     2.3513280    -1.1313670
  H       -2.0994070     2.2298930    -1.2537260
  H       -3.7828960     2.1123340    -0.7007770
  H       -3.0218850     0.7415120    -1.5334270
units angstrom
no_reorient  #important for SAPT in psi4, default
symmetry c1  #important for SAPT in psi4, default
}

set PROPERTIES_ORIGIN ["COM"]
properties('MP2/aug-cc-pvtz', properties = ['dipole'])
--------------------------------------------------------------------------

    Molecular point group: c1
  Charge       = 0
  Multiplicity = 1
  Basis Set: AUG-CC-PVTZ
    Blend: AUG-CC-PVTZ
  Basis Set: (AUG-CC-PVTZ AUX)
    Blend: AUG-CC-PVTZ-JKFIT

    Orbital Energies [Eh]
    ---------------------

    Doubly Occupied:

       1A    -20.595036     2A    -11.270723     3A    -11.268914
       4A    -11.230214     5A    -11.229893     6A    -11.223313
       7A    -11.222848     8A    -11.217537     9A    -11.215769
      10A    -11.215724    11A    -11.214866    12A     -1.420410
      13A     -1.098404    14A     -1.080271    15A     -1.037445
      16A     -0.991012    17A     -0.931161    18A     -0.926623
      19A     -0.871661    20A     -0.816086    21A     -0.745343
      22A     -0.722479    23A     -0.656437    24A     -0.624199
      25A     -0.612163    26A     -0.610317    27A     -0.586978
      28A     -0.584126    29A     -0.565428    30A     -0.555485
      31A     -0.550510    32A     -0.534090    33A     -0.527838
      34A     -0.521923    35A     -0.518703    36A     -0.505047
      37A     -0.496074    38A     -0.494400    39A     -0.483319
      40A     -0.470549    41A     -0.359990    42A     -0.278954

  @DF-RHF Final Energy:  -463.00958304827327

   => Energetics <=

    Nuclear Repulsion Energy =            629.3288781038177149
    One-Electron Energy =               -1876.5123994703794779
    Two-Electron Energy =                 784.1739383182884922
    Total Energy =                       -463.0095830482732708
  Basis Set: (AUG-CC-PVTZ AUX)
    Blend: AUG-CC-PVTZ-RI
    Molecular point group: c1

    Geometry (in Angstrom), charge = 0, multiplicity = 1:

       Center              X                  Y                   Z               Mass
    ------------   -----------------  -----------------  -----------------  -----------------
         O            0.075804974151     1.021445403300     0.507574735696    15.994914619570
         C           -0.738408025849    -1.039587596700     0.126751735696    12.000000000000
         C            0.691791974151    -1.094433596700     0.062092735696    12.000000000000
         C           -1.091216025849     0.256522103300     0.394089335696    12.000000000000
         C            1.143486974151     0.176566403300     0.303083735696    12.000000000000
         C           -2.352860025849     1.001050403300     0.519586735696    12.000000000000
         C            2.488327974151     0.811271403300     0.340702735696    12.000000000000
         C           -1.699746225849    -2.166546896700    -0.085214764304    12.000000000000
         C            1.515925974151    -2.322287596700    -0.176467264304    12.000000000000
         C           -2.845227025849     1.556105403300    -0.824899264304    12.000000000000
         C            2.816507974151     1.573632403300    -0.951246264304    12.000000000000
         H            3.237021974151     0.029520403300     0.519169735696     1.007825032230
         H            2.533999974151     1.495439403300     1.197203735696     1.007825032230
         H           -2.212518025849     1.821679403300     1.234213735696     1.007825032230
         H           -3.109585025849     0.330873403300     0.948884735696     1.007825032230
         H           -1.419559025849    -3.039542596700     0.543884735696     1.007825032230
         H           -2.708583025849    -1.891063596700     0.145489735696     1.007825032230
         H           -1.661600025849    -2.527106596700    -1.131304264304     1.007825032230
         H            2.517411974151    -2.064262596700    -0.539009264304     1.007825032230
         H            1.634128974151    -2.917432596700     0.738313735696     1.007825032230
         H            1.046408974151    -2.965078596700    -0.928887264304     1.007825032230
         H            2.816281974151     0.892402403300    -1.806559264304     1.007825032230
         H            3.800525974151     2.047915403300    -0.885720264304     1.007825032230
         H            2.067268974151     2.350515403300    -1.131586264304     1.007825032230
         H           -2.095991025849     2.229080403300    -1.253945264304     1.007825032230
         H           -3.779480025849     2.111521403300    -0.700996264304     1.007825032230
         H           -3.018469025849     0.740699403300    -1.533646264304     1.007825032230

  Basis Set: AUG-CC-PVTZ
    Blend: AUG-CC-PVTZ
  Basis Set: (AUG-CC-PVTZ AUX)
    Blend: AUG-CC-PVTZ-JKFIT
	 Reference Energy          =    -463.0095830482732708 [Eh]
	 Singles Energy            =      -0.0000000000000000 [Eh]
	 Same-Spin Energy          =      -0.4973602571085635 [Eh]
	 Opposite-Spin Energy      =      -1.6677940559742963 [Eh]
	 Correlation Energy        =      -2.1651543130828599 [Eh]
	 Total Energy              =    -465.1747373613561081 [Eh]

	 ================> DF-SCS-MP2 Energies <==================
	-----------------------------------------------------------
	 SCS Same-Spin Scale       =       0.3333333333333333 [-]
	 SCS Opposite-Spin Scale   =       1.2000000000000000 [-]
	 SCS Same-Spin Energy      =      -0.1657867523695211 [Eh]
	 SCS Opposite-Spin Energy  =      -2.0013528671691554 [Eh]
	 SCS Correlation Energy    =      -2.1671396195386765 [Eh]
	 SCS Total Energy          =    -465.1767226678119300 [Eh]
	-----------------------------------------------------------

  Dipole Moment: [D]
     X:    -0.0741      Y:    -0.6508      Z:    -0.2206     Total:     0.6912

*** Psi4 exiting successfully. Buy a developer a beer!
