                               Psi4 1.3.2 release

  ==> Input File <==

--------------------------------------------------------------------------
#psi4
#
memory 32 gb

molecule  {
0 1
  O        0.0723890     1.0222580     0.5077940
  C       -0.7386924    -0.9895369     0.1351353
  C        0.6883760    -1.0936210     0.0623120
  C       -1.0714850     0.2632460     0.3951280
  C        1.1400710     0.1773790     0.3033030
  C       -2.3562760     1.0018630     0.5198060
  C        2.4849120     0.8120840     0.3409220
  C       -1.6830070    -2.1819480    -0.0885940
  C        1.5556151    -2.2920667    -0.1729699
  C       -2.8486430     1.5569180    -0.8246800
  C        2.8130920     1.5744450    -0.9510270
  H        3.2336060     0.0303330     0.5193890
  H        2.5305840     1.4962520     1.1974230
  H       -2.2159340     1.8224920     1.2344330
  H       -3.1130010     0.3316860     0.9491040
  H       -1.4229750    -3.0387300     0.5441040
  H       -2.7119990    -1.8902510     0.1457090
  H       -1.6650160    -2.5262940    -1.1310850
  H        2.5139960    -2.0634500    -0.5387900
  H        1.6307130    -2.9166200     0.7385330
  H        1.0429930    -2.9642660    -0.9286680
  H        2.8128660     0.8932150    -1.8063400
  H        3.7971100     2.0487280    -0.8855010
  H        2.0638530     2.3513280    -1.1313670
  H       -2.0994070     2.2298930    -1.2537260
  H       -3.7828960     2.1123340    -0.7007770
  H       -3.0218850     0.7415120    -1.5334270
units angstrom
no_reorient  #important for SAPT in psi4, default
symmetry c1  #important for SAPT in psi4, default
}

set PROPERTIES_ORIGIN ["COM"]
properties('MP2/aug-cc-pvtz', properties = ['dipole'])
--------------------------------------------------------------------------

    Molecular point group: c1
  Charge       = 0
  Multiplicity = 1
  Basis Set: AUG-CC-PVTZ
    Blend: AUG-CC-PVTZ
  Basis Set: (AUG-CC-PVTZ AUX)
    Blend: AUG-CC-PVTZ-JKFIT

    Orbital Energies [Eh]
    ---------------------

    Doubly Occupied:

       1A    -20.594870     2A    -11.269180     3A    -11.262951
       4A    -11.230202     5A    -11.230001     6A    -11.224500
       7A    -11.224464     8A    -11.215546     9A    -11.215147
      10A    -11.215040    11A    -11.212335    12A     -1.429654
      13A     -1.099150    14A     -1.080345    15A     -1.036143
      16A     -0.989012    17A     -0.932744    18A     -0.927763
      19A     -0.870525    20A     -0.818768    21A     -0.751392
      22A     -0.720698    23A     -0.658388    24A     -0.627381
      25A     -0.611138    26A     -0.609482    27A     -0.587135
      28A     -0.584787    29A     -0.563919    30A     -0.557165
      31A     -0.548228    32A     -0.534727    33A     -0.523494
      34A     -0.521783    35A     -0.516060    36A     -0.505261
      37A     -0.496508    38A     -0.493121    39A     -0.484012
      40A     -0.468057    41A     -0.364121    42A     -0.284560

  @DF-RHF Final Energy:  -463.00835285435778

   => Energetics <=

    Nuclear Repulsion Energy =            630.2498798021237008
    One-Electron Energy =               -1878.3369449043937038
    Two-Electron Energy =                 785.0787122479123354
    Total Energy =                       -463.0083528543577813
  Basis Set: (AUG-CC-PVTZ AUX)
    Blend: AUG-CC-PVTZ-RI
    Molecular point group: c1

    Geometry (in Angstrom), charge = 0, multiplicity = 1:

       Center              X                  Y                   Z               Mass
    ------------   -----------------  -----------------  -----------------  -----------------
         O            0.068741695248     1.016054084740     0.506891331006    15.994914619570
         C           -0.742339704752    -0.995740815260     0.134232631006    12.000000000000
         C            0.684728695248    -1.099824915260     0.061409331006    12.000000000000
         C           -1.075132304752     0.257042084740     0.394225331006    12.000000000000
         C            1.136423695248     0.171175084740     0.302400331006    12.000000000000
         C           -2.359923304752     0.995659084740     0.518903331006    12.000000000000
         C            2.481264695248     0.805880084740     0.340019331006    12.000000000000
         C           -1.686654304752    -2.188151915260    -0.089496668994    12.000000000000
         C            1.551967795248    -2.298270615260    -0.173872568994    12.000000000000
         C           -2.852290304752     1.550714084740    -0.825582668994    12.000000000000
         C            2.809444695248     1.568241084740    -0.951929668994    12.000000000000
         H            3.229958695248     0.024129084740     0.518486331006     1.007825032230
         H            2.526936695248     1.490048084740     1.196520331006     1.007825032230
         H           -2.219581304752     1.816288084740     1.233530331006     1.007825032230
         H           -3.116648304752     0.325482084740     0.948201331006     1.007825032230
         H           -1.426622304752    -3.044933915260     0.543201331006     1.007825032230
         H           -2.715646304752    -1.896454915260     0.144806331006     1.007825032230
         H           -1.668663304752    -2.532497915260    -1.131987668994     1.007825032230
         H            2.510348695248    -2.069653915260    -0.539692668994     1.007825032230
         H            1.627065695248    -2.922823915260     0.737630331006     1.007825032230
         H            1.039345695248    -2.970469915260    -0.929570668994     1.007825032230
         H            2.809218695248     0.887011084740    -1.807242668994     1.007825032230
         H            3.793462695248     2.042524084740    -0.886403668994     1.007825032230
         H            2.060205695248     2.345124084740    -1.132269668994     1.007825032230
         H           -2.103054304752     2.223689084740    -1.254628668994     1.007825032230
         H           -3.786543304752     2.106130084740    -0.701679668994     1.007825032230
         H           -3.025532304752     0.735308084740    -1.534329668994     1.007825032230

  Basis Set: AUG-CC-PVTZ
    Blend: AUG-CC-PVTZ
  Basis Set: (AUG-CC-PVTZ AUX)
    Blend: AUG-CC-PVTZ-JKFIT
	 Reference Energy          =    -463.0083528543577813 [Eh]
	 Singles Energy            =      -0.0000000000000000 [Eh]
	 Same-Spin Energy          =      -0.4960080479691927 [Eh]
	 Opposite-Spin Energy      =      -1.6656577277672215 [Eh]
	 Correlation Energy        =      -2.1616657757364144 [Eh]
	 Total Energy              =    -465.1700186300942050 [Eh]

	 ================> DF-SCS-MP2 Energies <==================
	-----------------------------------------------------------
	 SCS Same-Spin Scale       =       0.3333333333333333 [-]
	 SCS Opposite-Spin Scale   =       1.2000000000000000 [-]
	 SCS Same-Spin Energy      =      -0.1653360159897309 [Eh]
	 SCS Opposite-Spin Energy  =      -1.9987892733206658 [Eh]
	 SCS Correlation Energy    =      -2.1641252893103968 [Eh]
	 SCS Total Energy          =    -465.1724781436681724 [Eh]
	-----------------------------------------------------------

  Dipole Moment: [D]
     X:    -0.0031      Y:    -0.6332      Z:    -0.2149     Total:     0.6687

*** Psi4 exiting successfully. Buy a developer a beer!
