                               Psi4 1.3.2 release

  ==> Input File <==

--------------------------------------------------------------------------
#psi4
#
memory 32 gb

molecule  {
0 1
  O        0.0723890     1.0222580     0.5077940
  C       -0.7418240    -1.0387750     0.1269710
  C        0.6889094    -1.0814144     0.0649641
  C       -1.0714850     0.2632460     0.3951280
  C        1.1400710     0.1773790     0.3033030
  C       -2.3562760     1.0018630     0.5198060
  C        2.4849120     0.8120840     0.3409220
  C       -1.6931121    -2.1739539    -0.0864722
  C        1.5125100    -2.3214750    -0.1762480
  C       -2.8486430     1.5569180    -0.8246800
  C        2.8130920     1.5744450    -0.9510270
  H        3.2336060     0.0303330     0.5193890
  H        2.5305840     1.4962520     1.1974230
  H       -2.2159340     1.8224920     1.2344330
  H       -3.1130010     0.3316860     0.9491040
  H       -1.4229750    -3.0387300     0.5441040
  H       -2.7119990    -1.8902510     0.1457090
  H       -1.6650160    -2.5262940    -1.1310850
  H        2.5139960    -2.0634500    -0.5387900
  H        1.6307130    -2.9166200     0.7385330
  H        1.0429930    -2.9642660    -0.9286680
  H        2.8128660     0.8932150    -1.8063400
  H        3.7971100     2.0487280    -0.8855010
  H        2.0638530     2.3513280    -1.1313670
  H       -2.0994070     2.2298930    -1.2537260
  H       -3.7828960     2.1123340    -0.7007770
  H       -3.0218850     0.7415120    -1.5334270
units angstrom
no_reorient  #important for SAPT in psi4, default
symmetry c1  #important for SAPT in psi4, default
}

set PROPERTIES_ORIGIN ["COM"]
properties('MP2/aug-cc-pvtz', properties = ['dipole'])
--------------------------------------------------------------------------

    Molecular point group: c1
  Charge       = 0
  Multiplicity = 1
  Basis Set: AUG-CC-PVTZ
    Blend: AUG-CC-PVTZ
  Basis Set: (AUG-CC-PVTZ AUX)
    Blend: AUG-CC-PVTZ-JKFIT

    Orbital Energies [Eh]
    ---------------------

    Doubly Occupied:

       1A    -20.597669     2A    -11.269507     3A    -11.267846
       4A    -11.230126     5A    -11.230002     6A    -11.223521
       7A    -11.223242     8A    -11.215678     9A    -11.215581
      10A    -11.214697    11A    -11.214680    12A     -1.429638
      13A     -1.098747    14A     -1.079234    15A     -1.036178
      16A     -0.989681    17A     -0.932522    18A     -0.927614
      19A     -0.870249    20A     -0.816295    21A     -0.749746
      22A     -0.721712    23A     -0.658059    24A     -0.627348
      25A     -0.610910    26A     -0.609657    27A     -0.586834
      28A     -0.583692    29A     -0.566255    30A     -0.554396
      31A     -0.550548    32A     -0.533836    33A     -0.527599
      34A     -0.522365    35A     -0.521230    36A     -0.505394
      37A     -0.495503    38A     -0.492900    39A     -0.483824
      40A     -0.468192    41A     -0.361362    42A     -0.280346

  @DF-RHF Final Energy:  -463.01242396408708

   => Energetics <=

    Nuclear Repulsion Energy =            629.7402775390279430
    One-Electron Energy =               -1877.3165766223651190
    Two-Electron Energy =                 784.5638751192502696
    Total Energy =                       -463.0124239640870201
  Basis Set: (AUG-CC-PVTZ AUX)
    Blend: AUG-CC-PVTZ-RI
    Molecular point group: c1

    Geometry (in Angstrom), charge = 0, multiplicity = 1:

       Center              X                  Y                   Z               Mass
    ------------   -----------------  -----------------  -----------------  -----------------
         O            0.073144142612     1.020664575597     0.507417375836    15.994914619570
         C           -0.741068857388    -1.040368424403     0.126594375836    12.000000000000
         C            0.689664542612    -1.083007824403     0.064587475836    12.000000000000
         C           -1.070729857388     0.261652575597     0.394751375836    12.000000000000
         C            1.140826142612     0.175785575597     0.302926375836    12.000000000000
         C           -2.355520857388     1.000269575597     0.519429375836    12.000000000000
         C            2.485667142612     0.810490575597     0.340545375836    12.000000000000
         C           -1.692356957388    -2.175547324403    -0.086848824164    12.000000000000
         C            1.513265142612    -2.323068424403    -0.176624624164    12.000000000000
         C           -2.847887857388     1.555324575597    -0.825056624164    12.000000000000
         C            2.813847142612     1.572851575597    -0.951403624164    12.000000000000
         H            3.234361142612     0.028739575597     0.519012375836     1.007825032230
         H            2.531339142612     1.494658575597     1.197046375836     1.007825032230
         H           -2.215178857388     1.820898575597     1.234056375836     1.007825032230
         H           -3.112245857388     0.330092575597     0.948727375836     1.007825032230
         H           -1.422219857388    -3.040323424403     0.543727375836     1.007825032230
         H           -2.711243857388    -1.891844424403     0.145332375836     1.007825032230
         H           -1.664260857388    -2.527887424403    -1.131461624164     1.007825032230
         H            2.514751142612    -2.065043424403    -0.539166624164     1.007825032230
         H            1.631468142612    -2.918213424403     0.738156375836     1.007825032230
         H            1.043748142612    -2.965859424403    -0.929044624164     1.007825032230
         H            2.813621142612     0.891621575597    -1.806716624164     1.007825032230
         H            3.797865142612     2.047134575597    -0.885877624164     1.007825032230
         H            2.064608142612     2.349734575597    -1.131743624164     1.007825032230
         H           -2.098651857388     2.228299575597    -1.254102624164     1.007825032230
         H           -3.782140857388     2.110740575597    -0.701153624164     1.007825032230
         H           -3.021129857388     0.739918575597    -1.533803624164     1.007825032230

  Basis Set: AUG-CC-PVTZ
    Blend: AUG-CC-PVTZ
  Basis Set: (AUG-CC-PVTZ AUX)
    Blend: AUG-CC-PVTZ-JKFIT
	 Reference Energy          =    -463.0124239640870769 [Eh]
	 Singles Energy            =      -0.0000000000000000 [Eh]
	 Same-Spin Energy          =      -0.4967827657796245 [Eh]
	 Opposite-Spin Energy      =      -1.6666723912966122 [Eh]
	 Correlation Energy        =      -2.1634551570762368 [Eh]
	 Total Energy              =    -465.1758791211632911 [Eh]

	 ================> DF-SCS-MP2 Energies <==================
	-----------------------------------------------------------
	 SCS Same-Spin Scale       =       0.3333333333333333 [-]
	 SCS Opposite-Spin Scale   =       1.2000000000000000 [-]
	 SCS Same-Spin Energy      =      -0.1655942552598748 [Eh]
	 SCS Opposite-Spin Energy  =      -2.0000068695559343 [Eh]
	 SCS Correlation Energy    =      -2.1656011248158094 [Eh]
	 SCS Total Energy          =    -465.1780250889028707 [Eh]
	-----------------------------------------------------------

  Dipole Moment: [D]
     X:    -0.0387      Y:    -0.6480      Z:    -0.2169     Total:     0.6844

*** Psi4 exiting successfully. Buy a developer a beer!
