                               Psi4 1.3.2 release

  ==> Input File <==

--------------------------------------------------------------------------
#psi4
#
memory 32 gb

molecule  {
0 1
  O        0.0856057     1.0024359     0.5045814
  C       -0.7418240    -1.0387750     0.1269710
  C        0.6883760    -1.0936210     0.0623120
  C       -1.0714850     0.2632460     0.3951280
  C        1.1400710     0.1773790     0.3033030
  C       -2.3691523     0.9795891     0.5163699
  C        2.4849120     0.8120840     0.3409220
  C       -1.6830070    -2.1819480    -0.0885940
  C        1.5125100    -2.3214750    -0.1762480
  C       -2.8486430     1.5569180    -0.8246800
  C        2.8130920     1.5744450    -0.9510270
  H        3.2336060     0.0303330     0.5193890
  H        2.5305840     1.4962520     1.1974230
  H       -2.2159340     1.8224920     1.2344330
  H       -3.1130010     0.3316860     0.9491040
  H       -1.4229750    -3.0387300     0.5441040
  H       -2.7119990    -1.8902510     0.1457090
  H       -1.6650160    -2.5262940    -1.1310850
  H        2.5139960    -2.0634500    -0.5387900
  H        1.6307130    -2.9166200     0.7385330
  H        1.0429930    -2.9642660    -0.9286680
  H        2.8128660     0.8932150    -1.8063400
  H        3.7971100     2.0487280    -0.8855010
  H        2.0638530     2.3513280    -1.1313670
  H       -2.0994070     2.2298930    -1.2537260
  H       -3.7828960     2.1123340    -0.7007770
  H       -3.0218850     0.7415120    -1.5334270
units angstrom
no_reorient  #important for SAPT in psi4, default
symmetry c1  #important for SAPT in psi4, default
}

set PROPERTIES_ORIGIN ["COM"]
properties('MP2/aug-cc-pvtz', properties = ['dipole'])
--------------------------------------------------------------------------

    Molecular point group: c1
  Charge       = 0
  Multiplicity = 1
  Basis Set: AUG-CC-PVTZ
    Blend: AUG-CC-PVTZ
  Basis Set: (AUG-CC-PVTZ AUX)
    Blend: AUG-CC-PVTZ-JKFIT

    Orbital Energies [Eh]
    ---------------------

    Doubly Occupied:

       1A    -20.599436     2A    -11.268813     3A    -11.268360
       4A    -11.231119     5A    -11.229986     6A    -11.222929
       7A    -11.221422     8A    -11.215809     9A    -11.215089
      10A    -11.214958    11A    -11.212971    12A     -1.437732
      13A     -1.097651    14A     -1.079779    15A     -1.036595
      16A     -0.989532    17A     -0.931587    18A     -0.929213
      19A     -0.870698    20A     -0.817105    21A     -0.752746
      22A     -0.720637    23A     -0.660625    24A     -0.630018
      25A     -0.612440    26A     -0.608545    27A     -0.589553
      28A     -0.582631    29A     -0.567644    30A     -0.555231
      31A     -0.549248    32A     -0.533583    33A     -0.528310
      34A     -0.522843    35A     -0.520863    36A     -0.507288
      37A     -0.496033    38A     -0.491892    39A     -0.484855
      40A     -0.464808    41A     -0.358895    42A     -0.278829

  @DF-RHF Final Energy:  -463.01207585136939

   => Energetics <=

    Nuclear Repulsion Energy =            630.1414072721686352
    One-Electron Energy =               -1878.0903629581671339
    Two-Electron Energy =                 784.9368798346290532
    Total Energy =                       -463.0120758513694454
  Basis Set: (AUG-CC-PVTZ AUX)
    Blend: AUG-CC-PVTZ-RI
    Molecular point group: c1

    Geometry (in Angstrom), charge = 0, multiplicity = 1:

       Center              X                  Y                   Z               Mass
    ------------   -----------------  -----------------  -----------------  -----------------
         O            0.085231834868     1.006277312380     0.505190215944    15.994914619570
         C           -0.742197865132    -1.034933587620     0.127579815944    12.000000000000
         C            0.688002134868    -1.089779587620     0.062920815944    12.000000000000
         C           -1.071858865132     0.267087412380     0.395736815944    12.000000000000
         C            1.139697134868     0.181220412380     0.303911815944    12.000000000000
         C           -2.369526165132     0.983430512380     0.516978715944    12.000000000000
         C            2.484538134868     0.815925412380     0.341530815944    12.000000000000
         C           -1.683380865132    -2.178106587620    -0.087985184056    12.000000000000
         C            1.512136134868    -2.317633587620    -0.175639184056    12.000000000000
         C           -2.849016865132     1.560759412380    -0.824071184056    12.000000000000
         C            2.812718134868     1.578286412380    -0.950418184056    12.000000000000
         H            3.233232134868     0.034174412380     0.519997815944     1.007825032230
         H            2.530210134868     1.500093412380     1.198031815944     1.007825032230
         H           -2.216307865132     1.826333412380     1.235041815944     1.007825032230
         H           -3.113374865132     0.335527412380     0.949712815944     1.007825032230
         H           -1.423348865132    -3.034888587620     0.544712815944     1.007825032230
         H           -2.712372865132    -1.886409587620     0.146317815944     1.007825032230
         H           -1.665389865132    -2.522452587620    -1.130476184056     1.007825032230
         H            2.513622134868    -2.059608587620    -0.538181184056     1.007825032230
         H            1.630339134868    -2.912778587620     0.739141815944     1.007825032230
         H            1.042619134868    -2.960424587620    -0.928059184056     1.007825032230
         H            2.812492134868     0.897056412380    -1.805731184056     1.007825032230
         H            3.796736134868     2.052569412380    -0.884892184056     1.007825032230
         H            2.063479134868     2.355169412380    -1.130758184056     1.007825032230
         H           -2.099780865132     2.233734412380    -1.253117184056     1.007825032230
         H           -3.783269865132     2.116175412380    -0.700168184056     1.007825032230
         H           -3.022258865132     0.745353412380    -1.532818184056     1.007825032230

  Basis Set: AUG-CC-PVTZ
    Blend: AUG-CC-PVTZ
  Basis Set: (AUG-CC-PVTZ AUX)
    Blend: AUG-CC-PVTZ-JKFIT
	 Reference Energy          =    -463.0120758513693886 [Eh]
	 Singles Energy            =      -0.0000000000000000 [Eh]
	 Same-Spin Energy          =      -0.4970401107315749 [Eh]
	 Opposite-Spin Energy      =      -1.6664017770345070 [Eh]
	 Correlation Energy        =      -2.1634418877660817 [Eh]
	 Total Energy              =    -465.1755177391354437 [Eh]

	 ================> DF-SCS-MP2 Energies <==================
	-----------------------------------------------------------
	 SCS Same-Spin Scale       =       0.3333333333333333 [-]
	 SCS Opposite-Spin Scale   =       1.2000000000000000 [-]
	 SCS Same-Spin Energy      =      -0.1656800369105250 [Eh]
	 SCS Opposite-Spin Energy  =      -1.9996821324414082 [Eh]
	 SCS Correlation Energy    =      -2.1653621693519334 [Eh]
	 SCS Total Energy          =    -465.1774380207212971 [Eh]
	-----------------------------------------------------------

  Dipole Moment: [D]
     X:    -0.0789      Y:    -0.5816      Z:    -0.2038     Total:     0.6213

*** Psi4 exiting successfully. Buy a developer a beer!
