                               Psi4 1.3.2 release

  ==> Input File <==

--------------------------------------------------------------------------
#psi4
#
memory 32 gb

molecule  {
0 1
  O        0.0723890     1.0222580     0.5077940
  C       -0.7418240    -1.0387750     0.1269710
  C        0.6883760    -1.0936210     0.0623120
  C       -1.0714850     0.2632460     0.3951280
  C        1.1419950     0.1727259     0.3152681
  C       -2.3562760     1.0018630     0.5198060
  C        2.4849120     0.8120840     0.3409220
  C       -1.6830070    -2.1819480    -0.0885940
  C        1.5125100    -2.3214750    -0.1762480
  C       -2.8486430     1.5569180    -0.8246800
  C        2.8250085     1.5778429    -0.9459255
  H        3.2336060     0.0303330     0.5193890
  H        2.5305840     1.4962520     1.1974230
  H       -2.2159340     1.8224920     1.2344330
  H       -3.1130010     0.3316860     0.9491040
  H       -1.4229750    -3.0387300     0.5441040
  H       -2.7119990    -1.8902510     0.1457090
  H       -1.6650160    -2.5262940    -1.1310850
  H        2.5139960    -2.0634500    -0.5387900
  H        1.6307130    -2.9166200     0.7385330
  H        1.0429930    -2.9642660    -0.9286680
  H        2.8128660     0.8932150    -1.8063400
  H        3.7971100     2.0487280    -0.8855010
  H        2.0638530     2.3513280    -1.1313670
  H       -2.0994070     2.2298930    -1.2537260
  H       -3.7828960     2.1123340    -0.7007770
  H       -3.0218850     0.7415120    -1.5334270
units angstrom
no_reorient  #important for SAPT in psi4, default
symmetry c1  #important for SAPT in psi4, default
}

set PROPERTIES_ORIGIN ["COM"]
properties('MP2/aug-cc-pvtz', properties = ['dipole'])
--------------------------------------------------------------------------

    Molecular point group: c1
  Charge       = 0
  Multiplicity = 1
  Basis Set: AUG-CC-PVTZ
    Blend: AUG-CC-PVTZ
  Basis Set: (AUG-CC-PVTZ AUX)
    Blend: AUG-CC-PVTZ-JKFIT

    Orbital Energies [Eh]
    ---------------------

    Doubly Occupied:

       1A    -20.598249     2A    -11.269923     3A    -11.269408
       4A    -11.230195     5A    -11.229889     6A    -11.223245
       7A    -11.222962     8A    -11.216466     9A    -11.215560
      10A    -11.215225    11A    -11.214764    12A     -1.428691
      13A     -1.098962    14A     -1.078715    15A     -1.036076
      16A     -0.990265    17A     -0.932457    18A     -0.927678
      19A     -0.870415    20A     -0.815586    21A     -0.749010
      22A     -0.721752    23A     -0.657736    24A     -0.627006
      25A     -0.610281    26A     -0.609798    27A     -0.587168
      28A     -0.583312    29A     -0.567742    30A     -0.555910
      31A     -0.549571    32A     -0.535609    33A     -0.527894
      34A     -0.523686    35A     -0.521218    36A     -0.504519
      37A     -0.494462    38A     -0.493146    39A     -0.482776
      40A     -0.467638    41A     -0.360934    42A     -0.279377

  @DF-RHF Final Energy:  -463.01169095157229

   => Energetics <=

    Nuclear Repulsion Energy =            629.4160092005342904
    One-Electron Energy =               -1876.6648416905798058
    Two-Electron Energy =                 784.2371415384732245
    Total Energy =                       -463.0116909515722909
  Basis Set: (AUG-CC-PVTZ AUX)
    Blend: AUG-CC-PVTZ-RI
    Molecular point group: c1

    Geometry (in Angstrom), charge = 0, multiplicity = 1:

       Center              X                  Y                   Z               Mass
    ------------   -----------------  -----------------  -----------------  -----------------
         O            0.071297270489     1.022357124934     0.506447665815    15.994914619570
         C           -0.742915729511    -1.038675875066     0.125624665815    12.000000000000
         C            0.687284270489    -1.093521875066     0.060965665815    12.000000000000
         C           -1.072576729511     0.263345124934     0.393781665815    12.000000000000
         C            1.140903270489     0.172825024934     0.313921765815    12.000000000000
         C           -2.357367729511     1.001962124934     0.518459665815    12.000000000000
         C            2.483820270489     0.812183124934     0.339575665815    12.000000000000
         C           -1.684098729511    -2.181848875066    -0.089940334185    12.000000000000
         C            1.511418270489    -2.321375875066    -0.177594334185    12.000000000000
         C           -2.849734729511     1.557017124934    -0.826026334185    12.000000000000
         C            2.823916770489     1.577942024934    -0.947271834185    12.000000000000
         H            3.232514270489     0.030432124934     0.518042665815     1.007825032230
         H            2.529492270489     1.496351124934     1.196076665815     1.007825032230
         H           -2.217025729511     1.822591124934     1.233086665815     1.007825032230
         H           -3.114092729511     0.331785124934     0.947757665815     1.007825032230
         H           -1.424066729511    -3.038630875066     0.542757665815     1.007825032230
         H           -2.713090729511    -1.890151875066     0.144362665815     1.007825032230
         H           -1.666107729511    -2.526194875066    -1.132431334185     1.007825032230
         H            2.512904270489    -2.063350875066    -0.540136334185     1.007825032230
         H            1.629621270489    -2.916520875066     0.737186665815     1.007825032230
         H            1.041901270489    -2.964166875066    -0.930014334185     1.007825032230
         H            2.811774270489     0.893314124934    -1.807686334185     1.007825032230
         H            3.796018270489     2.048827124934    -0.886847334185     1.007825032230
         H            2.062761270489     2.351427124934    -1.132713334185     1.007825032230
         H           -2.100498729511     2.229992124934    -1.255072334185     1.007825032230
         H           -3.783987729511     2.112433124934    -0.702123334185     1.007825032230
         H           -3.022976729511     0.741611124934    -1.534773334185     1.007825032230

  Basis Set: AUG-CC-PVTZ
    Blend: AUG-CC-PVTZ
  Basis Set: (AUG-CC-PVTZ AUX)
    Blend: AUG-CC-PVTZ-JKFIT
	 Reference Energy          =    -463.0116909515722909 [Eh]
	 Singles Energy            =      -0.0000000000000000 [Eh]
	 Same-Spin Energy          =      -0.4970809491774196 [Eh]
	 Opposite-Spin Energy      =      -1.6671372567756104 [Eh]
	 Correlation Energy        =      -2.1642182059530302 [Eh]
	 Total Energy              =    -465.1759091575253251 [Eh]

	 ================> DF-SCS-MP2 Energies <==================
	-----------------------------------------------------------
	 SCS Same-Spin Scale       =       0.3333333333333333 [-]
	 SCS Opposite-Spin Scale   =       1.2000000000000000 [-]
	 SCS Same-Spin Energy      =      -0.1656936497258065 [Eh]
	 SCS Opposite-Spin Energy  =      -2.0005647081307325 [Eh]
	 SCS Correlation Energy    =      -2.1662583578565391 [Eh]
	 SCS Total Energy          =    -465.1779493094288114 [Eh]
	-----------------------------------------------------------

  Dipole Moment: [D]
     X:    -0.0317      Y:    -0.6570      Z:    -0.2225     Total:     0.6943

*** Psi4 exiting successfully. Buy a developer a beer!
