                               Psi4 1.3.2 release

  ==> Input File <==

--------------------------------------------------------------------------
#psi4
#
memory 32 gb

molecule  {
0 1
  O        0.0723890     1.0222580     0.5077940
  C       -0.7418240    -1.0387750     0.1269710
  C        0.6883760    -1.0936210     0.0623120
  C       -1.0723751     0.2786828     0.3188176
  C        1.1400710     0.1773790     0.3033030
  C       -2.3562760     1.0018630     0.5198060
  C        2.4849120     0.8120840     0.3409220
  C       -1.6830070    -2.1819480    -0.0885940
  C        1.5125100    -2.3214750    -0.1762480
  C       -2.7834910     1.5249938    -0.8593152
  C        2.8130920     1.5744450    -0.9510270
  H        3.2336060     0.0303330     0.5193890
  H        2.5305840     1.4962520     1.1974230
  H       -2.2159340     1.8224920     1.2344330
  H       -3.1130010     0.3316860     0.9491040
  H       -1.4229750    -3.0387300     0.5441040
  H       -2.7119990    -1.8902510     0.1457090
  H       -1.6650160    -2.5262940    -1.1310850
  H        2.5139960    -2.0634500    -0.5387900
  H        1.6307130    -2.9166200     0.7385330
  H        1.0429930    -2.9642660    -0.9286680
  H        2.8128660     0.8932150    -1.8063400
  H        3.7971100     2.0487280    -0.8855010
  H        2.0638530     2.3513280    -1.1313670
  H       -2.0994070     2.2298930    -1.2537260
  H       -3.7828960     2.1123340    -0.7007770
  H       -3.0218850     0.7415120    -1.5334270
units angstrom
no_reorient  #important for SAPT in psi4, default
symmetry c1  #important for SAPT in psi4, default
}

set PROPERTIES_ORIGIN ["COM"]
properties('MP2/aug-cc-pvtz', properties = ['dipole'])
--------------------------------------------------------------------------

    Molecular point group: c1
  Charge       = 0
  Multiplicity = 1
  Basis Set: AUG-CC-PVTZ
    Blend: AUG-CC-PVTZ
  Basis Set: (AUG-CC-PVTZ AUX)
    Blend: AUG-CC-PVTZ-JKFIT

    Orbital Energies [Eh]
    ---------------------

    Doubly Occupied:

       1A    -20.598649     2A    -11.269573     3A    -11.268734
       4A    -11.231094     5A    -11.229784     6A    -11.223228
       7A    -11.222743     8A    -11.216159     9A    -11.215982
      10A    -11.214642    11A    -11.214566    12A     -1.429542
      13A     -1.098524    14A     -1.080160    15A     -1.037374
      16A     -0.989851    17A     -0.932082    18A     -0.926304
      19A     -0.869156    20A     -0.816248    21A     -0.749158
      22A     -0.722240    23A     -0.658348    24A     -0.628389
      25A     -0.616011    26A     -0.610644    27A     -0.588241
      28A     -0.582865    29A     -0.567564    30A     -0.555831
      31A     -0.551044    32A     -0.530289    33A     -0.524452
      34A     -0.523439    35A     -0.521343    36A     -0.508822
      37A     -0.502671    38A     -0.487485    39A     -0.481599
      40A     -0.463039    41A     -0.360303    42A     -0.277528

  @DF-RHF Final Energy:  -463.00232157954792

   => Energetics <=

    Nuclear Repulsion Energy =            630.4290024485110280
    One-Electron Energy =               -1878.6712487729371333
    Two-Electron Energy =                 785.2399247448781807
    Total Energy =                       -463.0023215795479246
  Basis Set: (AUG-CC-PVTZ AUX)
    Blend: AUG-CC-PVTZ-RI
    Molecular point group: c1

    Geometry (in Angstrom), charge = 0, multiplicity = 1:

       Center              X                  Y                   Z               Mass
    ------------   -----------------  -----------------  -----------------  -----------------
         O            0.067319776787     1.023558717504     0.516545912182    15.994914619570
         C           -0.746893223213    -1.037474282496     0.135722912182    12.000000000000
         C            0.683306776787    -1.092320282496     0.071063912182    12.000000000000
         C           -1.077444323213     0.279983517504     0.327569512182    12.000000000000
         C            1.135001776787     0.178679717504     0.312054912182    12.000000000000
         C           -2.361345223213     1.003163717504     0.528557912182    12.000000000000
         C            2.479842776787     0.813384717504     0.349673912182    12.000000000000
         C           -1.688076223213    -2.180647282496    -0.079842087818    12.000000000000
         C            1.507440776787    -2.320174282496    -0.167496087818    12.000000000000
         C           -2.788560223213     1.526294517504    -0.850563287818    12.000000000000
         C            2.808022776787     1.575745717504    -0.942275087818    12.000000000000
         H            3.228536776787     0.031633717504     0.528140912182     1.007825032230
         H            2.525514776787     1.497552717504     1.206174912182     1.007825032230
         H           -2.221003223213     1.823792717504     1.243184912182     1.007825032230
         H           -3.118070223213     0.332986717504     0.957855912182     1.007825032230
         H           -1.428044223213    -3.037429282496     0.552855912182     1.007825032230
         H           -2.717068223213    -1.888950282496     0.154460912182     1.007825032230
         H           -1.670085223213    -2.524993282496    -1.122333087818     1.007825032230
         H            2.508926776787    -2.062149282496    -0.530038087818     1.007825032230
         H            1.625643776787    -2.915319282496     0.747284912182     1.007825032230
         H            1.037923776787    -2.962965282496    -0.919916087818     1.007825032230
         H            2.807796776787     0.894515717504    -1.797588087818     1.007825032230
         H            3.792040776787     2.050028717504    -0.876749087818     1.007825032230
         H            2.058783776787     2.352628717504    -1.122615087818     1.007825032230
         H           -2.104476223213     2.231193717504    -1.244974087818     1.007825032230
         H           -3.787965223213     2.113634717504    -0.692025087818     1.007825032230
         H           -3.026954223213     0.742812717504    -1.524675087818     1.007825032230

  Basis Set: AUG-CC-PVTZ
    Blend: AUG-CC-PVTZ
  Basis Set: (AUG-CC-PVTZ AUX)
    Blend: AUG-CC-PVTZ-JKFIT
	 Reference Energy          =    -463.0023215795479246 [Eh]
	 Singles Energy            =      -0.0000000000000000 [Eh]
	 Same-Spin Energy          =      -0.4974871142914921 [Eh]
	 Opposite-Spin Energy      =      -1.6680244973938294 [Eh]
	 Correlation Energy        =      -2.1655116116853215 [Eh]
	 Total Energy              =    -465.1678331912332283 [Eh]

	 ================> DF-SCS-MP2 Energies <==================
	-----------------------------------------------------------
	 SCS Same-Spin Scale       =       0.3333333333333333 [-]
	 SCS Opposite-Spin Scale   =       1.2000000000000000 [-]
	 SCS Same-Spin Energy      =      -0.1658290380971640 [Eh]
	 SCS Opposite-Spin Energy  =      -2.0016293968725951 [Eh]
	 SCS Correlation Energy    =      -2.1674584349697592 [Eh]
	 SCS Total Energy          =    -465.1697800145176984 [Eh]
	-----------------------------------------------------------

  Dipole Moment: [D]
     X:    -0.0074      Y:    -0.6768      Z:    -0.1768     Total:     0.6995

*** Psi4 exiting successfully. Buy a developer a beer!
