                               Psi4 1.3.2 release

  ==> Input File <==

--------------------------------------------------------------------------
#psi4
#
memory 32 gb

molecule  {
0 1
  O        0.0723890     1.0222580     0.5077940
  C       -0.7302396    -1.0359694     0.1278562
  C        0.6883760    -1.0936210     0.0623120
  C       -1.0714850     0.2632460     0.3951280
  C        1.1400710     0.1773790     0.3033030
  C       -2.3496980     1.0127724     0.5222863
  C        2.4849120     0.8120840     0.3409220
  C       -1.6830070    -2.1819480    -0.0885940
  C        1.5125100    -2.3214750    -0.1762480
  C       -2.8486430     1.5569180    -0.8246800
  C        2.8130920     1.5744450    -0.9510270
  H        3.2336060     0.0303330     0.5193890
  H        2.5305840     1.4962520     1.1974230
  H       -2.2159340     1.8224920     1.2344330
  H       -3.1130010     0.3316860     0.9491040
  H       -1.4229750    -3.0387300     0.5441040
  H       -2.7119990    -1.8902510     0.1457090
  H       -1.6650160    -2.5262940    -1.1310850
  H        2.5139960    -2.0634500    -0.5387900
  H        1.6307130    -2.9166200     0.7385330
  H        1.0429930    -2.9642660    -0.9286680
  H        2.8128660     0.8932150    -1.8063400
  H        3.7971100     2.0487280    -0.8855010
  H        2.0638530     2.3513280    -1.1313670
  H       -2.0994070     2.2298930    -1.2537260
  H       -3.7828960     2.1123340    -0.7007770
  H       -3.0218850     0.7415120    -1.5334270
units angstrom
no_reorient  #important for SAPT in psi4, default
symmetry c1  #important for SAPT in psi4, default
}

set PROPERTIES_ORIGIN ["COM"]
properties('MP2/aug-cc-pvtz', properties = ['dipole'])
--------------------------------------------------------------------------

    Molecular point group: c1
  Charge       = 0
  Multiplicity = 1
  Basis Set: AUG-CC-PVTZ
    Blend: AUG-CC-PVTZ
  Basis Set: (AUG-CC-PVTZ AUX)
    Blend: AUG-CC-PVTZ-JKFIT

    Orbital Energies [Eh]
    ---------------------

    Doubly Occupied:

       1A    -20.598508     2A    -11.269372     3A    -11.269205
       4A    -11.230400     5A    -11.229901     6A    -11.223403
       7A    -11.223062     8A    -11.215692     9A    -11.215579
      10A    -11.214656    11A    -11.214640    12A     -1.429922
      13A     -1.099696    14A     -1.078710    15A     -1.036346
      16A     -0.989125    17A     -0.932586    18A     -0.927321
      19A     -0.870387    20A     -0.815668    21A     -0.748791
      22A     -0.723691    23A     -0.658004    24A     -0.627443
      25A     -0.610938    26A     -0.609717    27A     -0.586187
      28A     -0.583875    29A     -0.567482    30A     -0.555334
      31A     -0.548983    32A     -0.533777    33A     -0.527215
      34A     -0.523380    35A     -0.520809    36A     -0.505143
      37A     -0.495327    38A     -0.492818    39A     -0.482933
      40A     -0.469641    41A     -0.362293    42A     -0.278230

  @DF-RHF Final Energy:  -463.01139907848784

   => Energetics <=

    Nuclear Repulsion Energy =            629.7035730472284740
    One-Electron Energy =               -1877.2375583836658279
    Two-Electron Energy =                 784.5225862579495697
    Total Energy =                       -463.0113990784877842
  Basis Set: (AUG-CC-PVTZ AUX)
    Blend: AUG-CC-PVTZ-RI
    Molecular point group: c1

    Geometry (in Angstrom), charge = 0, multiplicity = 1:

       Center              X                  Y                   Z               Mass
    ------------   -----------------  -----------------  -----------------  -----------------
         O            0.070956337274     1.021176200243     0.507528477513    15.994914619570
         C           -0.731672262726    -1.037051199757     0.127590677513    12.000000000000
         C            0.686943337274    -1.094702799757     0.062046477513    12.000000000000
         C           -1.072917662726     0.262164200243     0.394862477513    12.000000000000
         C            1.138638337274     0.176297200243     0.303037477513    12.000000000000
         C           -2.351130662726     1.011690600243     0.522020777513    12.000000000000
         C            2.483479337274     0.811002200243     0.340656477513    12.000000000000
         C           -1.684439662726    -2.183029799757    -0.088859522487    12.000000000000
         C            1.511077337274    -2.322556799757    -0.176513522487    12.000000000000
         C           -2.850075662726     1.555836200243    -0.824945522487    12.000000000000
         C            2.811659337274     1.573363200243    -0.951292522487    12.000000000000
         H            3.232173337274     0.029251200243     0.519123477513     1.007825032230
         H            2.529151337274     1.495170200243     1.197157477513     1.007825032230
         H           -2.217366662726     1.821410200243     1.234167477513     1.007825032230
         H           -3.114433662726     0.330604200243     0.948838477513     1.007825032230
         H           -1.424407662726    -3.039811799757     0.543838477513     1.007825032230
         H           -2.713431662726    -1.891332799757     0.145443477513     1.007825032230
         H           -1.666448662726    -2.527375799757    -1.131350522487     1.007825032230
         H            2.512563337274    -2.064531799757    -0.539055522487     1.007825032230
         H            1.629280337274    -2.917701799757     0.738267477513     1.007825032230
         H            1.041560337274    -2.965347799757    -0.928933522487     1.007825032230
         H            2.811433337274     0.892133200243    -1.806605522487     1.007825032230
         H            3.795677337274     2.047646200243    -0.885766522487     1.007825032230
         H            2.062420337274     2.350246200243    -1.131632522487     1.007825032230
         H           -2.100839662726     2.228811200243    -1.253991522487     1.007825032230
         H           -3.784328662726     2.111252200243    -0.701042522487     1.007825032230
         H           -3.023317662726     0.740430200243    -1.533692522487     1.007825032230

  Basis Set: AUG-CC-PVTZ
    Blend: AUG-CC-PVTZ
  Basis Set: (AUG-CC-PVTZ AUX)
    Blend: AUG-CC-PVTZ-JKFIT
	 Reference Energy          =    -463.0113990784878411 [Eh]
	 Singles Energy            =      -0.0000000000000000 [Eh]
	 Same-Spin Energy          =      -0.4972319049963356 [Eh]
	 Opposite-Spin Energy      =      -1.6672586170696797 [Eh]
	 Correlation Energy        =      -2.1644905220660151 [Eh]
	 Total Energy              =    -465.1758896005538304 [Eh]

	 ================> DF-SCS-MP2 Energies <==================
	-----------------------------------------------------------
	 SCS Same-Spin Scale       =       0.3333333333333333 [-]
	 SCS Opposite-Spin Scale   =       1.2000000000000000 [-]
	 SCS Same-Spin Energy      =      -0.1657439683321119 [Eh]
	 SCS Opposite-Spin Energy  =      -2.0007103404836157 [Eh]
	 SCS Correlation Energy    =      -2.1664543088157275 [Eh]
	 SCS Total Energy          =    -465.1778533873035713 [Eh]
	-----------------------------------------------------------

  Dipole Moment: [D]
     X:    -0.0257      Y:    -0.6419      Z:    -0.2142     Total:     0.6771

*** Psi4 exiting successfully. Buy a developer a beer!
