                               Psi4 1.3.2 release

  ==> Input File <==

--------------------------------------------------------------------------
#psi4
#
memory 32 gb

molecule  {
0 1
  O        0.0723890     1.0222580     0.5077940
  C       -0.7411887    -1.0265332     0.1294312
  C        0.6883760    -1.0936210     0.0623120
  C       -1.0714850     0.2632460     0.3951280
  C        1.1287733     0.1811139     0.3044837
  C       -2.3562760     1.0018630     0.5198060
  C        2.4849120     0.8120840     0.3409220
  C       -1.6830070    -2.1819480    -0.0885940
  C        1.5125100    -2.3214750    -0.1762480
  C       -2.8486430     1.5569180    -0.8246800
  C        2.8130920     1.5744450    -0.9510270
  H        3.2336060     0.0303330     0.5193890
  H        2.5305840     1.4962520     1.1974230
  H       -2.2159340     1.8224920     1.2344330
  H       -3.1130010     0.3316860     0.9491040
  H       -1.4229750    -3.0387300     0.5441040
  H       -2.7119990    -1.8902510     0.1457090
  H       -1.6650160    -2.5262940    -1.1310850
  H        2.5139960    -2.0634500    -0.5387900
  H        1.6307130    -2.9166200     0.7385330
  H        1.0429930    -2.9642660    -0.9286680
  H        2.8128660     0.8932150    -1.8063400
  H        3.7971100     2.0487280    -0.8855010
  H        2.0638530     2.3513280    -1.1313670
  H       -2.0994070     2.2298930    -1.2537260
  H       -3.7828960     2.1123340    -0.7007770
  H       -3.0218850     0.7415120    -1.5334270
units angstrom
no_reorient  #important for SAPT in psi4, default
symmetry c1  #important for SAPT in psi4, default
}

set PROPERTIES_ORIGIN ["COM"]
properties('MP2/aug-cc-pvtz', properties = ['dipole'])
--------------------------------------------------------------------------

    Molecular point group: c1
  Charge       = 0
  Multiplicity = 1
  Basis Set: AUG-CC-PVTZ
    Blend: AUG-CC-PVTZ
  Basis Set: (AUG-CC-PVTZ AUX)
    Blend: AUG-CC-PVTZ-JKFIT

    Orbital Energies [Eh]
    ---------------------

    Doubly Occupied:

       1A    -20.599467     2A    -11.269766     3A    -11.267384
       4A    -11.230101     5A    -11.230027     6A    -11.223566
       7A    -11.223182     8A    -11.215381     9A    -11.215200
      10A    -11.214605    11A    -11.214218    12A     -1.434494
      13A     -1.099129    14A     -1.078480    15A     -1.035538
      16A     -0.989199    17A     -0.933144    18A     -0.928158
      19A     -0.869442    20A     -0.816039    21A     -0.751933
      22A     -0.721254    23A     -0.658994    24A     -0.629185
      25A     -0.610582    26A     -0.609085    27A     -0.586900
      28A     -0.583322    29A     -0.567682    30A     -0.555471
      31A     -0.548888    32A     -0.533385    33A     -0.528422
      34A     -0.524096    35A     -0.521201    36A     -0.505471
      37A     -0.495114    38A     -0.491913    39A     -0.484102
      40A     -0.466225    41A     -0.361763    42A     -0.280317

  @DF-RHF Final Energy:  -463.01294972911131

   => Energetics <=

    Nuclear Repulsion Energy =            629.8751600395547712
    One-Electron Energy =               -1877.5725616116937999
    Two-Electron Energy =                 784.6844518430276594
    Total Energy =                       -463.0129497291112557
  Basis Set: (AUG-CC-PVTZ AUX)
    Blend: AUG-CC-PVTZ-RI
    Molecular point group: c1

    Geometry (in Angstrom), charge = 0, multiplicity = 1:

       Center              X                  Y                   Z               Mass
    ------------   -----------------  -----------------  -----------------  -----------------
         O            0.073230182516     1.020997785968     0.507506752576    15.994914619570
         C           -0.740347517484    -1.027793414032     0.129143952576    12.000000000000
         C            0.689217182516    -1.094881214032     0.062024752576    12.000000000000
         C           -1.070643817484     0.261985785968     0.394840752576    12.000000000000
         C            1.129614482516     0.179853685968     0.304196452576    12.000000000000
         C           -2.355434817484     1.000602785968     0.519518752576    12.000000000000
         C            2.485753182516     0.810823785968     0.340634752576    12.000000000000
         C           -1.682165817484    -2.183208214032    -0.088881247424    12.000000000000
         C            1.513351182516    -2.322735214032    -0.176535247424    12.000000000000
         C           -2.847801817484     1.555657785968    -0.824967247424    12.000000000000
         C            2.813933182516     1.573184785968    -0.951314247424    12.000000000000
         H            3.234447182516     0.029072785968     0.519101752576     1.007825032230
         H            2.531425182516     1.494991785968     1.197135752576     1.007825032230
         H           -2.215092817484     1.821231785968     1.234145752576     1.007825032230
         H           -3.112159817484     0.330425785968     0.948816752576     1.007825032230
         H           -1.422133817484    -3.039990214032     0.543816752576     1.007825032230
         H           -2.711157817484    -1.891511214032     0.145421752576     1.007825032230
         H           -1.664174817484    -2.527554214032    -1.131372247424     1.007825032230
         H            2.514837182516    -2.064710214032    -0.539077247424     1.007825032230
         H            1.631554182516    -2.917880214032     0.738245752576     1.007825032230
         H            1.043834182516    -2.965526214032    -0.928955247424     1.007825032230
         H            2.813707182516     0.891954785968    -1.806627247424     1.007825032230
         H            3.797951182516     2.047467785968    -0.885788247424     1.007825032230
         H            2.064694182516     2.350067785968    -1.131654247424     1.007825032230
         H           -2.098565817484     2.228632785968    -1.254013247424     1.007825032230
         H           -3.782054817484     2.111073785968    -0.701064247424     1.007825032230
         H           -3.021043817484     0.740251785968    -1.533714247424     1.007825032230

  Basis Set: AUG-CC-PVTZ
    Blend: AUG-CC-PVTZ
  Basis Set: (AUG-CC-PVTZ AUX)
    Blend: AUG-CC-PVTZ-JKFIT
	 Reference Energy          =    -463.0129497291113125 [Eh]
	 Singles Energy            =      -0.0000000000000000 [Eh]
	 Same-Spin Energy          =      -0.4966719092148457 [Eh]
	 Opposite-Spin Energy      =      -1.6663727666907944 [Eh]
	 Correlation Energy        =      -2.1630446759056401 [Eh]
	 Total Energy              =    -465.1759944050169793 [Eh]

	 ================> DF-SCS-MP2 Energies <==================
	-----------------------------------------------------------
	 SCS Same-Spin Scale       =       0.3333333333333333 [-]
	 SCS Opposite-Spin Scale   =       1.2000000000000000 [-]
	 SCS Same-Spin Energy      =      -0.1655573030716152 [Eh]
	 SCS Opposite-Spin Energy  =      -1.9996473200289531 [Eh]
	 SCS Correlation Energy    =      -2.1652046231005682 [Eh]
	 SCS Total Energy          =    -465.1781543522118909 [Eh]
	-----------------------------------------------------------

  Dipole Moment: [D]
     X:    -0.0433      Y:    -0.6477      Z:    -0.2127     Total:     0.6832

*** Psi4 exiting successfully. Buy a developer a beer!
