                               Psi4 1.3.2 release

  ==> Input File <==

--------------------------------------------------------------------------
#psi4
#
memory 32 gb

molecule  {
0 1
  O        0.0648535     1.0130395     0.5061840
  C       -0.7418240    -1.0387750     0.1269710
  C        0.6771105    -1.0897769     0.0634499
  C       -1.0714850     0.2632460     0.3951280
  C        1.1400710     0.1773790     0.3033030
  C       -2.3562760     1.0018630     0.5198060
  C        2.4849120     0.8120840     0.3409220
  C       -1.6830070    -2.1819480    -0.0885940
  C        1.5125100    -2.3214750    -0.1762480
  C       -2.8486430     1.5569180    -0.8246800
  C        2.8130920     1.5744450    -0.9510270
  H        3.2336060     0.0303330     0.5193890
  H        2.5305840     1.4962520     1.1974230
  H       -2.2159340     1.8224920     1.2344330
  H       -3.1130010     0.3316860     0.9491040
  H       -1.4229750    -3.0387300     0.5441040
  H       -2.7119990    -1.8902510     0.1457090
  H       -1.6650160    -2.5262940    -1.1310850
  H        2.5139960    -2.0634500    -0.5387900
  H        1.6307130    -2.9166200     0.7385330
  H        1.0429930    -2.9642660    -0.9286680
  H        2.8128660     0.8932150    -1.8063400
  H        3.7971100     2.0487280    -0.8855010
  H        2.0638530     2.3513280    -1.1313670
  H       -2.0994070     2.2298930    -1.2537260
  H       -3.7828960     2.1123340    -0.7007770
  H       -3.0218850     0.7415120    -1.5334270
units angstrom
no_reorient  #important for SAPT in psi4, default
symmetry c1  #important for SAPT in psi4, default
}

set PROPERTIES_ORIGIN ["COM"]
properties('MP2/aug-cc-pvtz', properties = ['dipole'])
--------------------------------------------------------------------------

    Molecular point group: c1
  Charge       = 0
  Multiplicity = 1
  Basis Set: AUG-CC-PVTZ
    Blend: AUG-CC-PVTZ
  Basis Set: (AUG-CC-PVTZ AUX)
    Blend: AUG-CC-PVTZ-JKFIT

    Orbital Energies [Eh]
    ---------------------

    Doubly Occupied:

       1A    -20.598914     2A    -11.268985     3A    -11.268583
       4A    -11.230701     5A    -11.230043     6A    -11.222931
       7A    -11.222645     8A    -11.215595     9A    -11.215499
      10A    -11.214869    11A    -11.213167    12A     -1.433861
      13A     -1.099044    14A     -1.079266    15A     -1.036589
      16A     -0.988881    17A     -0.931973    18A     -0.928341
      19A     -0.870614    20A     -0.816263    21A     -0.750486
      22A     -0.723119    23A     -0.659135    24A     -0.628654
      25A     -0.610973    26A     -0.609753    27A     -0.587755
      28A     -0.583248    29A     -0.567409    30A     -0.555026
      31A     -0.548744    32A     -0.533958    33A     -0.527328
      34A     -0.522790    35A     -0.520651    36A     -0.505565
      37A     -0.495588    38A     -0.492639    39A     -0.484127
      40A     -0.468554    41A     -0.361382    42A     -0.278200

  @DF-RHF Final Energy:  -463.01217870091307

   => Energetics <=

    Nuclear Repulsion Energy =            629.9922069990947193
    One-Electron Energy =               -1877.8050766156095506
    Two-Electron Energy =                 784.8006909156018764
    Total Energy =                       -463.0121787009130685
  Basis Set: (AUG-CC-PVTZ AUX)
    Blend: AUG-CC-PVTZ-RI
    Molecular point group: c1

    Geometry (in Angstrom), charge = 0, multiplicity = 1:

       Center              X                  Y                   Z               Mass
    ------------   -----------------  -----------------  -----------------  -----------------
         O            0.066534590367     1.013705660532     0.506263487853    15.994914619570
         C           -0.740142909633    -1.038108839468     0.127050487853    12.000000000000
         C            0.678791590367    -1.089110739468     0.063529387853    12.000000000000
         C           -1.069803909633     0.263912160532     0.395207487853    12.000000000000
         C            1.141752090367     0.178045160532     0.303382487853    12.000000000000
         C           -2.354594909633     1.002529160532     0.519885487853    12.000000000000
         C            2.486593090367     0.812750160532     0.341001487853    12.000000000000
         C           -1.681325909633    -2.181281839468    -0.088514512147    12.000000000000
         C            1.514191090367    -2.320808839468    -0.176168512147    12.000000000000
         C           -2.846961909633     1.557584160532    -0.824600512147    12.000000000000
         C            2.814773090367     1.575111160532    -0.950947512147    12.000000000000
         H            3.235287090367     0.030999160532     0.519468487853     1.007825032230
         H            2.532265090367     1.496918160532     1.197502487853     1.007825032230
         H           -2.214252909633     1.823158160532     1.234512487853     1.007825032230
         H           -3.111319909633     0.332352160532     0.949183487853     1.007825032230
         H           -1.421293909633    -3.038063839468     0.544183487853     1.007825032230
         H           -2.710317909633    -1.889584839468     0.145788487853     1.007825032230
         H           -1.663334909633    -2.525627839468    -1.131005512147     1.007825032230
         H            2.515677090367    -2.062783839468    -0.538710512147     1.007825032230
         H            1.632394090367    -2.915953839468     0.738612487853     1.007825032230
         H            1.044674090367    -2.963599839468    -0.928588512147     1.007825032230
         H            2.814547090367     0.893881160532    -1.806260512147     1.007825032230
         H            3.798791090367     2.049394160532    -0.885421512147     1.007825032230
         H            2.065534090367     2.351994160532    -1.131287512147     1.007825032230
         H           -2.097725909633     2.230559160532    -1.253646512147     1.007825032230
         H           -3.781214909633     2.113000160532    -0.700697512147     1.007825032230
         H           -3.020203909633     0.742178160532    -1.533347512147     1.007825032230

  Basis Set: AUG-CC-PVTZ
    Blend: AUG-CC-PVTZ
  Basis Set: (AUG-CC-PVTZ AUX)
    Blend: AUG-CC-PVTZ-JKFIT
	 Reference Energy          =    -463.0121787009130685 [Eh]
	 Singles Energy            =      -0.0000000000000000 [Eh]
	 Same-Spin Energy          =      -0.4971890293176896 [Eh]
	 Opposite-Spin Energy      =      -1.6668572373016439 [Eh]
	 Correlation Energy        =      -2.1640462666193336 [Eh]
	 Total Energy              =    -465.1762249675323915 [Eh]

	 ================> DF-SCS-MP2 Energies <==================
	-----------------------------------------------------------
	 SCS Same-Spin Scale       =       0.3333333333333333 [-]
	 SCS Opposite-Spin Scale   =       1.2000000000000000 [-]
	 SCS Same-Spin Energy      =      -0.1657296764392299 [Eh]
	 SCS Opposite-Spin Energy  =      -2.0002286847619728 [Eh]
	 SCS Correlation Energy    =      -2.1659583612012026 [Eh]
	 SCS Total Energy          =    -465.1781370621142742 [Eh]
	-----------------------------------------------------------

  Dipole Moment: [D]
     X:    -0.0076      Y:    -0.6070      Z:    -0.2086     Total:     0.6419

*** Psi4 exiting successfully. Buy a developer a beer!
