                               Psi4 1.3.2 release

  ==> Input File <==

--------------------------------------------------------------------------
#psi4
#
memory 32 gb

molecule  {
0 1
  O        0.0723890     1.0222580     0.5077940
  C       -0.7418240    -1.0387750     0.1269710
  C        0.6883760    -1.0936210     0.0623120
  C       -1.0830715     0.2603398     0.3947285
  C        1.1400710     0.1773790     0.3033030
  C       -2.3562760     1.0018630     0.5198060
  C        2.4849120     0.8120840     0.3409220
  C       -1.6931208    -2.1738844    -0.0868029
  C        1.5125100    -2.3214750    -0.1762480
  C       -2.8486430     1.5569180    -0.8246800
  C        2.8130920     1.5744450    -0.9510270
  H        3.2336060     0.0303330     0.5193890
  H        2.5305840     1.4962520     1.1974230
  H       -2.2159340     1.8224920     1.2344330
  H       -3.1130010     0.3316860     0.9491040
  H       -1.4229750    -3.0387300     0.5441040
  H       -2.7119990    -1.8902510     0.1457090
  H       -1.6650160    -2.5262940    -1.1310850
  H        2.5139960    -2.0634500    -0.5387900
  H        1.6307130    -2.9166200     0.7385330
  H        1.0429930    -2.9642660    -0.9286680
  H        2.8128660     0.8932150    -1.8063400
  H        3.7971100     2.0487280    -0.8855010
  H        2.0638530     2.3513280    -1.1313670
  H       -2.0994070     2.2298930    -1.2537260
  H       -3.7828960     2.1123340    -0.7007770
  H       -3.0218850     0.7415120    -1.5334270
units angstrom
no_reorient  #important for SAPT in psi4, default
symmetry c1  #important for SAPT in psi4, default
}

set PROPERTIES_ORIGIN ["COM"]
properties('MP2/aug-cc-pvtz', properties = ['dipole'])
--------------------------------------------------------------------------

    Molecular point group: c1
  Charge       = 0
  Multiplicity = 1
  Basis Set: AUG-CC-PVTZ
    Blend: AUG-CC-PVTZ
  Basis Set: (AUG-CC-PVTZ AUX)
    Blend: AUG-CC-PVTZ-JKFIT

    Orbital Energies [Eh]
    ---------------------

    Doubly Occupied:

       1A    -20.596846     2A    -11.270096     3A    -11.269247
       4A    -11.230102     5A    -11.230008     6A    -11.223223
       7A    -11.222863     8A    -11.216704     9A    -11.215630
      10A    -11.215592    11A    -11.214767    12A     -1.424999
      13A     -1.098540    14A     -1.079575    15A     -1.036836
      16A     -0.990531    17A     -0.931727    18A     -0.927094
      19A     -0.870906    20A     -0.815820    21A     -0.747365
      22A     -0.722084    23A     -0.657185    24A     -0.625692
      25A     -0.611488    26A     -0.610127    27A     -0.586707
      28A     -0.584071    29A     -0.566394    30A     -0.554838
      31A     -0.551010    32A     -0.533761    33A     -0.527843
      34A     -0.522091    35A     -0.520977    36A     -0.505222
      37A     -0.495657    38A     -0.493478    39A     -0.483601
      40A     -0.469014    41A     -0.360357    42A     -0.278956

  @DF-RHF Final Energy:  -463.01115421247954

   => Energetics <=

    Nuclear Repulsion Energy =            629.4513231736181069
    One-Electron Energy =               -1876.7469106379053301
    Two-Electron Energy =                 784.2844332518075134
    Total Energy =                       -463.0111542124795960
  Basis Set: (AUG-CC-PVTZ AUX)
    Blend: AUG-CC-PVTZ-RI
    Molecular point group: c1

    Geometry (in Angstrom), charge = 0, multiplicity = 1:

       Center              X                  Y                   Z               Mass
    ------------   -----------------  -----------------  -----------------  -----------------
         O            0.074100907599     1.021851266784     0.507684188676    15.994914619570
         C           -0.740112092401    -1.039181733216     0.126861188676    12.000000000000
         C            0.690087907599    -1.094027733216     0.062202188676    12.000000000000
         C           -1.081359592401     0.259933066784     0.394618688676    12.000000000000
         C            1.141782907599     0.176972266784     0.303193188676    12.000000000000
         C           -2.354564092401     1.001456266784     0.519696188676    12.000000000000
         C            2.486623907599     0.811677266784     0.340812188676    12.000000000000
         C           -1.691408892401    -2.174291133216    -0.086912711324    12.000000000000
         C            1.514221907599    -2.321881733216    -0.176357811324    12.000000000000
         C           -2.846931092401     1.556511266784    -0.824789811324    12.000000000000
         C            2.814803907599     1.574038266784    -0.951136811324    12.000000000000
         H            3.235317907599     0.029926266784     0.519279188676     1.007825032230
         H            2.532295907599     1.495845266784     1.197313188676     1.007825032230
         H           -2.214222092401     1.822085266784     1.234323188676     1.007825032230
         H           -3.111289092401     0.331279266784     0.948994188676     1.007825032230
         H           -1.421263092401    -3.039136733216     0.543994188676     1.007825032230
         H           -2.710287092401    -1.890657733216     0.145599188676     1.007825032230
         H           -1.663304092401    -2.526700733216    -1.131194811324     1.007825032230
         H            2.515707907599    -2.063856733216    -0.538899811324     1.007825032230
         H            1.632424907599    -2.917026733216     0.738423188676     1.007825032230
         H            1.044704907599    -2.964672733216    -0.928777811324     1.007825032230
         H            2.814577907599     0.892808266784    -1.806449811324     1.007825032230
         H            3.798821907599     2.048321266784    -0.885610811324     1.007825032230
         H            2.065564907599     2.350921266784    -1.131476811324     1.007825032230
         H           -2.097695092401     2.229486266784    -1.253835811324     1.007825032230
         H           -3.781184092401     2.111927266784    -0.700886811324     1.007825032230
         H           -3.020173092401     0.741105266784    -1.533536811324     1.007825032230

  Basis Set: AUG-CC-PVTZ
    Blend: AUG-CC-PVTZ
  Basis Set: (AUG-CC-PVTZ AUX)
    Blend: AUG-CC-PVTZ-JKFIT
	 Reference Energy          =    -463.0111542124795392 [Eh]
	 Singles Energy            =      -0.0000000000000000 [Eh]
	 Same-Spin Energy          =      -0.4972209505547928 [Eh]
	 Opposite-Spin Energy      =      -1.6674426445533843 [Eh]
	 Correlation Energy        =      -2.1646635951081770 [Eh]
	 Total Energy              =    -465.1758178075876913 [Eh]

	 ================> DF-SCS-MP2 Energies <==================
	-----------------------------------------------------------
	 SCS Same-Spin Scale       =       0.3333333333333333 [-]
	 SCS Opposite-Spin Scale   =       1.2000000000000000 [-]
	 SCS Same-Spin Energy      =      -0.1657403168515976 [Eh]
	 SCS Opposite-Spin Energy  =      -2.0009311734640609 [Eh]
	 SCS Correlation Energy    =      -2.1666714903156583 [Eh]
	 SCS Total Energy          =    -465.1778257027951895 [Eh]
	-----------------------------------------------------------

  Dipole Moment: [D]
     X:    -0.0526      Y:    -0.6521      Z:    -0.2184     Total:     0.6897

*** Psi4 exiting successfully. Buy a developer a beer!
