                               Psi4 1.4a3.dev225

  ==> Input File <==

--------------------------------------------------------------------------
#psi4
#
memory 32 gb

molecule  {
0 1
  O        0.0000040    -0.9323440    -0.5200900
  C       -0.7186120     1.1388030    -0.0293360
  C        0.7186000     1.1388090    -0.0293300
  C       -1.1092540    -0.1401520    -0.3350070
  C        1.0689362    -0.1689377    -0.3417237
  C       -2.4197690    -0.8327410    -0.4659430
  C        2.4197760    -0.8327180    -0.4659420
  C       -1.5881550     2.3237520     0.2504950
  C        1.5881310     2.3237650     0.2505070
  C       -2.6404590    -1.8837440     0.6266770
  C        2.6404800    -1.8837320     0.6266650
  H        3.2127060    -0.0780420    -0.4310990
  H        2.4812700    -1.3082390    -1.4528680
  H       -2.4812630    -1.3082740    -1.4528630
  H       -3.2127060    -0.0780720    -0.4311050
  H       -1.4004860     3.1330380    -0.4637010
  H       -2.6480190     2.0627510     0.1871390
  H       -1.4034730     2.7248980     1.2531230
  H        2.6479980     2.0627640     0.1871950
  H        1.4004870     3.1330370    -0.4637120
  H        1.4034130     2.7249310     1.2531200
  H        2.6185650    -1.4170920     1.6153140
  H        3.6057420    -2.3837880     0.5012060
  H        1.8526560    -2.6398250     0.5898280
  H       -1.8526300    -2.6398320     0.5898440
  H       -3.6057190    -2.3838080     0.5012310
  H       -2.6185400    -1.4170920     1.6153210
units angstrom
no_reorient  #important for SAPT in psi4, default
symmetry c1  #important for SAPT in psi4, default
}

set PROPERTIES_ORIGIN ["COM"]
properties('MP2/aug-cc-pvtz', properties = ['dipole'])
--------------------------------------------------------------------------

    Molecular point group: c1
  Charge       = 0
  Multiplicity = 1
  Basis Set: AUG-CC-PVTZ
    Blend: AUG-CC-PVTZ
  Basis Set: (AUG-CC-PVTZ AUX)
    Blend: AUG-CC-PVTZ-JKFIT

    Orbital Energies [Eh]
    ---------------------

    Doubly Occupied:

       1A    -20.605261     2A    -11.273256     3A    -11.268507
       4A    -11.230379     5A    -11.229752     6A    -11.222674
       7A    -11.222001     8A    -11.218443     9A    -11.214261
      10A    -11.213359    11A    -11.213260    12A     -1.452565
      13A     -1.097713    14A     -1.077944    15A     -1.035471
      16A     -0.989307    17A     -0.934120    18A     -0.928684
      19A     -0.868137    20A     -0.816357    21A     -0.758426
      22A     -0.719205    23A     -0.664597    24A     -0.636176
      25A     -0.610380    26A     -0.609917    27A     -0.586440
      28A     -0.582920    29A     -0.570531    30A     -0.555736
      31A     -0.551681    32A     -0.533731    33A     -0.531924
      34A     -0.530092    35A     -0.516714    36A     -0.506774
      37A     -0.491614    38A     -0.489457    39A     -0.486298
      40A     -0.460867    41A     -0.359399    42A     -0.277115

  @DF-RHF Final Energy:  -463.01247075308174

   => Energetics <=

    Nuclear Repulsion Energy =            630.4912579561411121
    One-Electron Energy =               -1878.7245735134924871
    Two-Electron Energy =                 785.2208448042697455
    Total Energy =                       -463.0124707530817432
  Basis Set: (AUG-CC-PVTZ AUX)
    Blend: AUG-CC-PVTZ-RI
    Molecular point group: c1

    Geometry (in Angstrom), charge = 0, multiplicity = 1:

       Center              X                  Y                   Z               Mass
    ------------   -----------------  -----------------  -----------------  -----------------
         O            0.003184674772    -0.928881670139    -0.496109474567    15.994914619570
         C           -0.715431325228     1.142265329861    -0.005355474567    12.000000000000
         C            0.721780674772     1.142271329861    -0.005349474567    12.000000000000
         C           -1.106073325228    -0.136689670139    -0.311026474567    12.000000000000
         C            1.072116874772    -0.165475370139    -0.317743174567    12.000000000000
         C           -2.416588325228    -0.829278670139    -0.441962474567    12.000000000000
         C            2.422956674772    -0.829255670139    -0.441961474567    12.000000000000
         C           -1.584974325228     2.327214329861     0.274475525433    12.000000000000
         C            1.591311674772     2.327227329861     0.274487525433    12.000000000000
         C           -2.637278325228    -1.880281670139     0.650657525433    12.000000000000
         C            2.643660674772    -1.880269670139     0.650645525433    12.000000000000
         H            3.215886674772    -0.074579670139    -0.407118474567     1.007825032230
         H            2.484450674772    -1.304776670139    -1.428887474567     1.007825032230
         H           -2.478082325228    -1.304811670139    -1.428882474567     1.007825032230
         H           -3.209525325228    -0.074609670139    -0.407124474567     1.007825032230
         H           -1.397305325228     3.136500329861    -0.439720474567     1.007825032230
         H           -2.644838325228     2.066213329861     0.211119525433     1.007825032230
         H           -1.400292325228     2.728360329861     1.277103525433     1.007825032230
         H            2.651178674772     2.066226329861     0.211175525433     1.007825032230
         H            1.403667674772     3.136499329861    -0.439731474567     1.007825032230
         H            1.406593674772     2.728393329861     1.277100525433     1.007825032230
         H            2.621745674772    -1.413629670139     1.639294525433     1.007825032230
         H            3.608922674772    -2.380325670139     0.525186525433     1.007825032230
         H            1.855836674772    -2.636362670139     0.613808525433     1.007825032230
         H           -1.849449325228    -2.636369670139     0.613824525433     1.007825032230
         H           -3.602538325228    -2.380345670139     0.525211525433     1.007825032230
         H           -2.615359325228    -1.413629670139     1.639301525433     1.007825032230

  Basis Set: AUG-CC-PVTZ
    Blend: AUG-CC-PVTZ
  Basis Set: (AUG-CC-PVTZ AUX)
    Blend: AUG-CC-PVTZ-JKFIT
	 Reference Energy          =    -463.0124707530817432 [Eh]
	 Singles Energy            =      -0.0000000000000000 [Eh]
	 Same-Spin Energy          =      -0.4968923717008556 [Eh]
	 Opposite-Spin Energy      =      -1.6659895147382975 [Eh]
	 Correlation Energy        =      -2.1628818864391532 [Eh]
	 Total Energy              =    -465.1753526395208951 [Eh]

	 ================> DF-SCS-MP2 Energies <==================
	-----------------------------------------------------------
	 SCS Same-Spin Scale       =       0.3333333333333333 [-]
	 SCS Opposite-Spin Scale   =       1.2000000000000000 [-]
	 SCS Same-Spin Energy      =      -0.1656307905669518 [Eh]
	 SCS Opposite-Spin Energy  =      -1.9991874176859570 [Eh]
	 SCS Correlation Energy    =      -2.1648182082529090 [Eh]
	 SCS Total Energy          =    -465.1772889613346251 [Eh]
	-----------------------------------------------------------

  Dipole Moment: [D]
     X:    -0.0730      Y:     0.5938      Z:     0.2044     Total:     0.6322

*** Psi4 exiting successfully. Buy a developer a beer!
