                               Psi4 1.3.2 release

  ==> Input File <==

--------------------------------------------------------------------------
#psi4
#
memory 32 gb

molecule  {
0 1
  O        0.0723890     1.0222580     0.5077940
  C       -0.7418240    -1.0387750     0.1269710
  C        0.6883760    -1.0936210     0.0623120
  C       -1.0846788     0.2828639     0.3994845
  C        1.1550584     0.1958899     0.3064868
  C       -2.3562760     1.0018630     0.5198060
  C        2.4849120     0.8120840     0.3409220
  C       -1.6830070    -2.1819480    -0.0885940
  C        1.5125100    -2.3214750    -0.1762480
  C       -2.8486430     1.5569180    -0.8246800
  C        2.8130920     1.5744450    -0.9510270
  H        3.2336060     0.0303330     0.5193890
  H        2.5305840     1.4962520     1.1974230
  H       -2.2159340     1.8224920     1.2344330
  H       -3.1130010     0.3316860     0.9491040
  H       -1.4229750    -3.0387300     0.5441040
  H       -2.7119990    -1.8902510     0.1457090
  H       -1.6650160    -2.5262940    -1.1310850
  H        2.5139960    -2.0634500    -0.5387900
  H        1.6307130    -2.9166200     0.7385330
  H        1.0429930    -2.9642660    -0.9286680
  H        2.8128660     0.8932150    -1.8063400
  H        3.7971100     2.0487280    -0.8855010
  H        2.0638530     2.3513280    -1.1313670
  H       -2.0994070     2.2298930    -1.2537260
  H       -3.7828960     2.1123340    -0.7007770
  H       -3.0218850     0.7415120    -1.5334270
units angstrom
no_reorient  #important for SAPT in psi4, default
symmetry c1  #important for SAPT in psi4, default
}

set PROPERTIES_ORIGIN ["COM"]
properties('MP2/aug-cc-pvtz', properties = ['dipole'])
--------------------------------------------------------------------------

    Molecular point group: c1
  Charge       = 0
  Multiplicity = 1
  Basis Set: AUG-CC-PVTZ
    Blend: AUG-CC-PVTZ
  Basis Set: (AUG-CC-PVTZ AUX)
    Blend: AUG-CC-PVTZ-JKFIT

    Orbital Energies [Eh]
    ---------------------

    Doubly Occupied:

       1A    -20.599467     2A    -11.271558     3A    -11.271402
       4A    -11.229618     5A    -11.229499     6A    -11.222594
       7A    -11.222287     8A    -11.218613     9A    -11.217536
      10A    -11.215916    11A    -11.215083    12A     -1.428326
      13A     -1.094031    14A     -1.082789    15A     -1.039568
      16A     -0.988600    17A     -0.928806    18A     -0.928193
      19A     -0.873719    20A     -0.815282    21A     -0.747404
      22A     -0.721054    23A     -0.659203    24A     -0.625783
      25A     -0.613040    26A     -0.611688    27A     -0.589824
      28A     -0.583206    29A     -0.567541    30A     -0.555300
      31A     -0.549137    32A     -0.533626    33A     -0.529094
      34A     -0.521608    35A     -0.521131    36A     -0.505802
      37A     -0.496734    38A     -0.495111    39A     -0.484376
      40A     -0.466169    41A     -0.356184    42A     -0.273397

  @DF-RHF Final Energy:  -463.00739836885117

   => Energetics <=

    Nuclear Repulsion Energy =            629.1471028118756976
    One-Electron Energy =               -1876.1104024118960751
    Two-Electron Energy =                 783.9559012311692641
    Total Energy =                       -463.0073983688512271
  Basis Set: (AUG-CC-PVTZ AUX)
    Blend: AUG-CC-PVTZ-RI
    Molecular point group: c1

    Geometry (in Angstrom), charge = 0, multiplicity = 1:

       Center              X                  Y                   Z               Mass
    ------------   -----------------  -----------------  -----------------  -----------------
         O            0.072247590569     1.019250316873     0.507199148286    15.994914619570
         C           -0.741965409431    -1.041782683127     0.126376148286    12.000000000000
         C            0.688234590569    -1.096628683127     0.061717148286    12.000000000000
         C           -1.084820209431     0.279856216873     0.398889648286    12.000000000000
         C            1.154916990569     0.192882216873     0.305891948286    12.000000000000
         C           -2.356417409431     0.998855316873     0.519211148286    12.000000000000
         C            2.484770590569     0.809076316873     0.340327148286    12.000000000000
         C           -1.683148409431    -2.184955683127    -0.089188851714    12.000000000000
         C            1.512368590569    -2.324482683127    -0.176842851714    12.000000000000
         C           -2.848784409431     1.553910316873    -0.825274851714    12.000000000000
         C            2.812950590569     1.571437316873    -0.951621851714    12.000000000000
         H            3.233464590569     0.027325316873     0.518794148286     1.007825032230
         H            2.530442590569     1.493244316873     1.196828148286     1.007825032230
         H           -2.216075409431     1.819484316873     1.233838148286     1.007825032230
         H           -3.113142409431     0.328678316873     0.948509148286     1.007825032230
         H           -1.423116409431    -3.041737683127     0.543509148286     1.007825032230
         H           -2.712140409431    -1.893258683127     0.145114148286     1.007825032230
         H           -1.665157409431    -2.529301683127    -1.131679851714     1.007825032230
         H            2.513854590569    -2.066457683127    -0.539384851714     1.007825032230
         H            1.630571590569    -2.919627683127     0.737938148286     1.007825032230
         H            1.042851590569    -2.967273683127    -0.929262851714     1.007825032230
         H            2.812724590569     0.890207316873    -1.806934851714     1.007825032230
         H            3.796968590569     2.045720316873    -0.886095851714     1.007825032230
         H            2.063711590569     2.348320316873    -1.131961851714     1.007825032230
         H           -2.099548409431     2.226885316873    -1.254320851714     1.007825032230
         H           -3.783037409431     2.109326316873    -0.701371851714     1.007825032230
         H           -3.022026409431     0.738504316873    -1.534021851714     1.007825032230

  Basis Set: AUG-CC-PVTZ
    Blend: AUG-CC-PVTZ
  Basis Set: (AUG-CC-PVTZ AUX)
    Blend: AUG-CC-PVTZ-JKFIT
	 Reference Energy          =    -463.0073983688511703 [Eh]
	 Singles Energy            =      -0.0000000000000000 [Eh]
	 Same-Spin Energy          =      -0.4984691562852294 [Eh]
	 Opposite-Spin Energy      =      -1.6688031785853989 [Eh]
	 Correlation Energy        =      -2.1672723348706282 [Eh]
	 Total Energy              =    -465.1746707037218016 [Eh]

	 ================> DF-SCS-MP2 Energies <==================
	-----------------------------------------------------------
	 SCS Same-Spin Scale       =       0.3333333333333333 [-]
	 SCS Opposite-Spin Scale   =       1.2000000000000000 [-]
	 SCS Same-Spin Energy      =      -0.1661563854284098 [Eh]
	 SCS Opposite-Spin Energy  =      -2.0025638143024787 [Eh]
	 SCS Correlation Energy    =      -2.1687201997308883 [Eh]
	 SCS Total Energy          =    -465.1761185685820692 [Eh]
	-----------------------------------------------------------

  Dipole Moment: [D]
     X:    -0.0258      Y:    -0.5882      Z:    -0.2050     Total:     0.6234

*** Psi4 exiting successfully. Buy a developer a beer!
