                               Psi4 1.3.2 release

  ==> Input File <==

--------------------------------------------------------------------------
#psi4
#
memory 32 gb

molecule  {
0 1
  O        0.0723890     1.0222580     0.5077940
  C       -0.7418240    -1.0387750     0.1269710
  C        0.6883760    -1.0936210     0.0623120
  C       -1.0714850     0.2632460     0.3951280
  C        1.1400710     0.1773790     0.3033030
  C       -2.3562760     1.0018630     0.5198060
  C        2.4849120     0.8120840     0.3409220
  C       -1.6201095    -2.1055518    -0.0741882
  C        1.5125100    -2.3214750    -0.1762480
  C       -2.8486430     1.5569180    -0.8246800
  C        2.8130920     1.5744450    -0.9510270
  H        3.2336060     0.0303330     0.5193890
  H        2.5305840     1.4962520     1.1974230
  H       -2.2159340     1.8224920     1.2344330
  H       -3.1130010     0.3316860     0.9491040
  H       -1.4229750    -3.0387300     0.5441040
  H       -2.7119990    -1.8902510     0.1457090
  H       -1.6650160    -2.5262940    -1.1310850
  H        2.5139960    -2.0634500    -0.5387900
  H        1.6307130    -2.9166200     0.7385330
  H        1.0429930    -2.9642660    -0.9286680
  H        2.8128660     0.8932150    -1.8063400
  H        3.7971100     2.0487280    -0.8855010
  H        2.0638530     2.3513280    -1.1313670
  H       -2.0994070     2.2298930    -1.2537260
  H       -3.7828960     2.1123340    -0.7007770
  H       -3.0218850     0.7415120    -1.5334270
units angstrom
no_reorient  #important for SAPT in psi4, default
symmetry c1  #important for SAPT in psi4, default
}

set PROPERTIES_ORIGIN ["COM"]
properties('MP2/aug-cc-pvtz', properties = ['dipole'])
--------------------------------------------------------------------------

    Molecular point group: c1
  Charge       = 0
  Multiplicity = 1
  Basis Set: AUG-CC-PVTZ
    Blend: AUG-CC-PVTZ
  Basis Set: (AUG-CC-PVTZ AUX)
    Blend: AUG-CC-PVTZ-JKFIT

    Orbital Energies [Eh]
    ---------------------

    Doubly Occupied:

       1A    -20.599462     2A    -11.271069     3A    -11.270347
       4A    -11.230607     5A    -11.230481     6A    -11.227205
       7A    -11.223004     8A    -11.216366     9A    -11.215870
      10A    -11.215094    11A    -11.210322    12A     -1.430687
      13A     -1.108300    14A     -1.080372    15A     -1.037208
      16A     -0.995860    17A     -0.931042    18A     -0.926850
      19A     -0.870615    20A     -0.815580    21A     -0.750462
      22A     -0.725713    23A     -0.661555    24A     -0.629459
      25A     -0.614948    26A     -0.610097    27A     -0.588707
      28A     -0.583742    29A     -0.564836    30A     -0.557029
      31A     -0.545457    32A     -0.536779    33A     -0.528236
      34A     -0.522305    35A     -0.520518    36A     -0.505787
      37A     -0.494537    38A     -0.493597    39A     -0.484484
      40A     -0.461793    41A     -0.357465    42A     -0.278871

  @DF-RHF Final Energy:  -462.99925963299745

   => Energetics <=

    Nuclear Repulsion Energy =            631.5687766760837576
    One-Electron Energy =               -1880.8906389581900385
    Two-Electron Energy =                 786.3226026491089442
    Total Energy =                       -462.9992596329974504
  Basis Set: (AUG-CC-PVTZ AUX)
    Blend: AUG-CC-PVTZ-RI
    Molecular point group: c1

    Geometry (in Angstrom), charge = 0, multiplicity = 1:

       Center              X                  Y                   Z               Mass
    ------------   -----------------  -----------------  -----------------  -----------------
         O            0.067427407523     1.016231591837     0.506657563106    15.994914619570
         C           -0.746785592477    -1.044801408163     0.125834563106    12.000000000000
         C            0.683414407523    -1.099647408163     0.061175563106    12.000000000000
         C           -1.076446592477     0.257219591837     0.393991563106    12.000000000000
         C            1.135109407523     0.171352591837     0.302166563106    12.000000000000
         C           -2.361237592477     0.995836591837     0.518669563106    12.000000000000
         C            2.479950407523     0.806057591837     0.339785563106    12.000000000000
         C           -1.625071092477    -2.111578208163    -0.075324636894    12.000000000000
         C            1.507548407523    -2.327501408163    -0.177384436894    12.000000000000
         C           -2.853604592477     1.550891591837    -0.825816436894    12.000000000000
         C            2.808130407523     1.568418591837    -0.952163436894    12.000000000000
         H            3.228644407523     0.024306591837     0.518252563106     1.007825032230
         H            2.525622407523     1.490225591837     1.196286563106     1.007825032230
         H           -2.220895592477     1.816465591837     1.233296563106     1.007825032230
         H           -3.117962592477     0.325659591837     0.947967563106     1.007825032230
         H           -1.427936592477    -3.044756408163     0.542967563106     1.007825032230
         H           -2.716960592477    -1.896277408163     0.144572563106     1.007825032230
         H           -1.669977592477    -2.532320408163    -1.132221436894     1.007825032230
         H            2.509034407523    -2.069476408163    -0.539926436894     1.007825032230
         H            1.625751407523    -2.922646408163     0.737396563106     1.007825032230
         H            1.038031407523    -2.970292408163    -0.929804436894     1.007825032230
         H            2.807904407523     0.887188591837    -1.807476436894     1.007825032230
         H            3.792148407523     2.042701591837    -0.886637436894     1.007825032230
         H            2.058891407523     2.345301591837    -1.132503436894     1.007825032230
         H           -2.104368592477     2.223866591837    -1.254862436894     1.007825032230
         H           -3.787857592477     2.106307591837    -0.701913436894     1.007825032230
         H           -3.026846592477     0.735485591837    -1.534563436894     1.007825032230

  Basis Set: AUG-CC-PVTZ
    Blend: AUG-CC-PVTZ
  Basis Set: (AUG-CC-PVTZ AUX)
    Blend: AUG-CC-PVTZ-JKFIT
	 Reference Energy          =    -462.9992596329974504 [Eh]
	 Singles Energy            =      -0.0000000000000000 [Eh]
	 Same-Spin Energy          =      -0.4984566218275666 [Eh]
	 Opposite-Spin Energy      =      -1.6686199874529448 [Eh]
	 Correlation Energy        =      -2.1670766092805116 [Eh]
	 Total Energy              =    -465.1663362422779642 [Eh]

	 ================> DF-SCS-MP2 Energies <==================
	-----------------------------------------------------------
	 SCS Same-Spin Scale       =       0.3333333333333333 [-]
	 SCS Opposite-Spin Scale   =       1.2000000000000000 [-]
	 SCS Same-Spin Energy      =      -0.1661522072758555 [Eh]
	 SCS Opposite-Spin Energy  =      -2.0023439849435336 [Eh]
	 SCS Correlation Energy    =      -2.1684961922193891 [Eh]
	 SCS Total Energy          =    -465.1677558252168296 [Eh]
	-----------------------------------------------------------

  Dipole Moment: [D]
     X:     0.0015      Y:    -0.5992      Z:    -0.2084     Total:     0.6345

*** Psi4 exiting successfully. Buy a developer a beer!
