                               Psi4 1.3.2 release

  ==> Input File <==

--------------------------------------------------------------------------
#psi4
#
memory 32 gb

molecule  {
0 1
  O        0.0723890     1.0222580     0.5077940
  C       -0.7418240    -1.0387750     0.1269710
  C        0.7565017    -1.1140178     0.0528737
  C       -1.0714850     0.2632460     0.3951280
  C        1.1400710     0.1773790     0.3033030
  C       -2.3562760     1.0018630     0.5198060
  C        2.5158688     0.7427361     0.3236636
  C       -1.6830070    -2.1819480    -0.0885940
  C        1.5125100    -2.3214750    -0.1762480
  C       -2.8486430     1.5569180    -0.8246800
  C        2.8130920     1.5744450    -0.9510270
  H        3.2336060     0.0303330     0.5193890
  H        2.5305840     1.4962520     1.1974230
  H       -2.2159340     1.8224920     1.2344330
  H       -3.1130010     0.3316860     0.9491040
  H       -1.4229750    -3.0387300     0.5441040
  H       -2.7119990    -1.8902510     0.1457090
  H       -1.6650160    -2.5262940    -1.1310850
  H        2.5139960    -2.0634500    -0.5387900
  H        1.6307130    -2.9166200     0.7385330
  H        1.0429930    -2.9642660    -0.9286680
  H        2.8128660     0.8932150    -1.8063400
  H        3.7971100     2.0487280    -0.8855010
  H        2.0638530     2.3513280    -1.1313670
  H       -2.0994070     2.2298930    -1.2537260
  H       -3.7828960     2.1123340    -0.7007770
  H       -3.0218850     0.7415120    -1.5334270
units angstrom
no_reorient  #important for SAPT in psi4, default
symmetry c1  #important for SAPT in psi4, default
}

set PROPERTIES_ORIGIN ["COM"]
properties('MP2/aug-cc-pvtz', properties = ['dipole'])
--------------------------------------------------------------------------

    Molecular point group: c1
  Charge       = 0
  Multiplicity = 1
  Basis Set: AUG-CC-PVTZ
    Blend: AUG-CC-PVTZ
  Basis Set: (AUG-CC-PVTZ AUX)
    Blend: AUG-CC-PVTZ-JKFIT

    Orbital Energies [Eh]
    ---------------------

    Doubly Occupied:

       1A    -20.599814     2A    -11.272806     3A    -11.270229
       4A    -11.230676     5A    -11.228911     6A    -11.222298
       7A    -11.221713     8A    -11.219593     9A    -11.217478
      10A    -11.215653    11A    -11.215270    12A     -1.429001
      13A     -1.095754    14A     -1.079285    15A     -1.034551
      16A     -0.995479    17A     -0.932804    18A     -0.926859
      19A     -0.869480    20A     -0.817068    21A     -0.753283
      22A     -0.711300    23A     -0.659851    24A     -0.627823
      25A     -0.615746    26A     -0.606649    27A     -0.590318
      28A     -0.582701    29A     -0.570250    30A     -0.558896
      31A     -0.554754    32A     -0.538703    33A     -0.530942
      34A     -0.523533    35A     -0.521348    36A     -0.512250
      37A     -0.494483    38A     -0.489977    39A     -0.481600
      40A     -0.449661    41A     -0.351996    42A     -0.282376

  @DF-RHF Final Energy:  -462.99999663143859

   => Energetics <=

    Nuclear Repulsion Energy =            628.7861271167581663
    One-Electron Energy =               -1875.3659204403898002
    Two-Electron Energy =                 783.5797966921932129
    Total Energy =                       -462.9999966314385347
  Basis Set: (AUG-CC-PVTZ AUX)
    Blend: AUG-CC-PVTZ-RI
    Molecular point group: c1

    Geometry (in Angstrom), charge = 0, multiplicity = 1:

       Center              X                  Y                   Z               Mass
    ------------   -----------------  -----------------  -----------------  -----------------
         O            0.064572952676     1.029337621886     0.509899935093    15.994914619570
         C           -0.749640047324    -1.031695378114     0.129076935093    12.000000000000
         C            0.748685652676    -1.106938178114     0.054979635093    12.000000000000
         C           -1.079301047324     0.270325621886     0.397233935093    12.000000000000
         C            1.132254952676     0.184458621886     0.305408935093    12.000000000000
         C           -2.364092047324     1.008942621886     0.521911935093    12.000000000000
         C            2.508052752676     0.749815721886     0.325769535093    12.000000000000
         C           -1.690823047324    -2.174868378114    -0.086488064907    12.000000000000
         C            1.504693952676    -2.314395378114    -0.174142064907    12.000000000000
         C           -2.856459047324     1.563997621886    -0.822574064907    12.000000000000
         C            2.805275952676     1.581524621886    -0.948921064907    12.000000000000
         H            3.225789952676     0.037412621886     0.521494935093     1.007825032230
         H            2.522767952676     1.503331621886     1.199528935093     1.007825032230
         H           -2.223750047324     1.829571621886     1.236538935093     1.007825032230
         H           -3.120817047324     0.338765621886     0.951209935093     1.007825032230
         H           -1.430791047324    -3.031650378114     0.546209935093     1.007825032230
         H           -2.719815047324    -1.883171378114     0.147814935093     1.007825032230
         H           -1.672832047324    -2.519214378114    -1.128979064907     1.007825032230
         H            2.506179952676    -2.056370378114    -0.536684064907     1.007825032230
         H            1.622896952676    -2.909540378114     0.740638935093     1.007825032230
         H            1.035176952676    -2.957186378114    -0.926562064907     1.007825032230
         H            2.805049952676     0.900294621886    -1.804234064907     1.007825032230
         H            3.789293952676     2.055807621886    -0.883395064907     1.007825032230
         H            2.056036952676     2.358407621886    -1.129261064907     1.007825032230
         H           -2.107223047324     2.236972621886    -1.251620064907     1.007825032230
         H           -3.790712047324     2.119413621886    -0.698671064907     1.007825032230
         H           -3.029701047324     0.748591621886    -1.531321064907     1.007825032230

  Basis Set: AUG-CC-PVTZ
    Blend: AUG-CC-PVTZ
  Basis Set: (AUG-CC-PVTZ AUX)
    Blend: AUG-CC-PVTZ-JKFIT
	 Reference Energy          =    -462.9999966314385915 [Eh]
	 Singles Energy            =      -0.0000000000000000 [Eh]
	 Same-Spin Energy          =      -0.4966459832198255 [Eh]
	 Opposite-Spin Energy      =      -1.6671131940918977 [Eh]
	 Correlation Energy        =      -2.1637591773117233 [Eh]
	 Total Energy              =    -465.1637558087502953 [Eh]

	 ================> DF-SCS-MP2 Energies <==================
	-----------------------------------------------------------
	 SCS Same-Spin Scale       =       0.3333333333333333 [-]
	 SCS Opposite-Spin Scale   =       1.2000000000000000 [-]
	 SCS Same-Spin Energy      =      -0.1655486610732751 [Eh]
	 SCS Opposite-Spin Energy  =      -2.0005358329102774 [Eh]
	 SCS Correlation Energy    =      -2.1660844939835524 [Eh]
	 SCS Total Energy          =    -465.1660811254221244 [Eh]
	-----------------------------------------------------------

  Dipole Moment: [D]
     X:    -0.0154      Y:    -0.7231      Z:    -0.2369     Total:     0.7610

*** Psi4 exiting successfully. Buy a developer a beer!
