                               Psi4 1.3.2 release

  ==> Input File <==

--------------------------------------------------------------------------
#psi4
#
memory 32 gb

molecule  {
0 1
  O        0.0723890     1.0222580     0.5077940
  C       -0.7386297    -0.9898421     0.1367804
  C        0.6883760    -1.0936210     0.0623120
  C       -1.0714850     0.2632460     0.3951280
  C        1.0946823     0.1917352     0.3079148
  C       -2.3562760     1.0018630     0.5198060
  C        2.4849120     0.8120840     0.3409220
  C       -1.6830070    -2.1819480    -0.0885940
  C        1.5125100    -2.3214750    -0.1762480
  C       -2.8486430     1.5569180    -0.8246800
  C        2.8130920     1.5744450    -0.9510270
  H        3.2336060     0.0303330     0.5193890
  H        2.5305840     1.4962520     1.1974230
  H       -2.2159340     1.8224920     1.2344330
  H       -3.1130010     0.3316860     0.9491040
  H       -1.4229750    -3.0387300     0.5441040
  H       -2.7119990    -1.8902510     0.1457090
  H       -1.6650160    -2.5262940    -1.1310850
  H        2.5139960    -2.0634500    -0.5387900
  H        1.6307130    -2.9166200     0.7385330
  H        1.0429930    -2.9642660    -0.9286680
  H        2.8128660     0.8932150    -1.8063400
  H        3.7971100     2.0487280    -0.8855010
  H        2.0638530     2.3513280    -1.1313670
  H       -2.0994070     2.2298930    -1.2537260
  H       -3.7828960     2.1123340    -0.7007770
  H       -3.0218850     0.7415120    -1.5334270
units angstrom
no_reorient  #important for SAPT in psi4, default
symmetry c1  #important for SAPT in psi4, default
}

set PROPERTIES_ORIGIN ["COM"]
properties('MP2/aug-cc-pvtz', properties = ['dipole'])
--------------------------------------------------------------------------

    Molecular point group: c1
  Charge       = 0
  Multiplicity = 1
  Basis Set: AUG-CC-PVTZ
    Blend: AUG-CC-PVTZ
  Basis Set: (AUG-CC-PVTZ AUX)
    Blend: AUG-CC-PVTZ-JKFIT

    Orbital Energies [Eh]
    ---------------------

    Doubly Occupied:

       1A    -20.601930     2A    -11.270799     3A    -11.260726
       4A    -11.230313     5A    -11.229869     6A    -11.224602
       7A    -11.224080     8A    -11.215172     9A    -11.214340
      10A    -11.212584    11A    -11.211004    12A     -1.449745
      13A     -1.101291    14A     -1.077283    15A     -1.033501
      16A     -0.987203    17A     -0.935172    18A     -0.929767
      19A     -0.867318    20A     -0.817435    21A     -0.760180
      22A     -0.719260    23A     -0.662450    24A     -0.635564
      25A     -0.609834    26A     -0.606825    27A     -0.588009
      28A     -0.581522    29A     -0.567551    30A     -0.554423
      31A     -0.547545    32A     -0.533966    33A     -0.531797
      34A     -0.521637    35A     -0.520638    36A     -0.505596
      37A     -0.494599    38A     -0.491307    39A     -0.484388
      40A     -0.460108    41A     -0.365569    42A     -0.284031

  @DF-RHF Final Energy:  -463.01069260112718

   => Energetics <=

    Nuclear Repulsion Energy =            630.8077011067358626
    One-Electron Energy =               -1879.3949207645280239
    Two-Electron Energy =                 785.5765270566648724
    Total Energy =                       -463.0106926011271753
  Basis Set: (AUG-CC-PVTZ AUX)
    Blend: AUG-CC-PVTZ-RI
    Molecular point group: c1

    Geometry (in Angstrom), charge = 0, multiplicity = 1:

       Center              X                  Y                   Z               Mass
    ------------   -----------------  -----------------  -----------------  -----------------
         O            0.075717585314     1.017265545827     0.506656348276    15.994914619570
         C           -0.735301114686    -0.994834554173     0.135642748276    12.000000000000
         C            0.691704585314    -1.098613454173     0.061174348276    12.000000000000
         C           -1.068156414686     0.258253545827     0.393990348276    12.000000000000
         C            1.098010885314     0.186742745827     0.306777148276    12.000000000000
         C           -2.352947414686     0.996870545827     0.518668348276    12.000000000000
         C            2.488240585314     0.807091545827     0.339784348276    12.000000000000
         C           -1.679678414686    -2.186940454173    -0.089731651724    12.000000000000
         C            1.515838585314    -2.326467454173    -0.177385651724    12.000000000000
         C           -2.845314414686     1.551925545827    -0.825817651724    12.000000000000
         C            2.816420585314     1.569452545827    -0.952164651724    12.000000000000
         H            3.236934585314     0.025340545827     0.518251348276     1.007825032230
         H            2.533912585314     1.491259545827     1.196285348276     1.007825032230
         H           -2.212605414686     1.817499545827     1.233295348276     1.007825032230
         H           -3.109672414686     0.326693545827     0.947966348276     1.007825032230
         H           -1.419646414686    -3.043722454173     0.542966348276     1.007825032230
         H           -2.708670414686    -1.895243454173     0.144571348276     1.007825032230
         H           -1.661687414686    -2.531286454173    -1.132222651724     1.007825032230
         H            2.517324585314    -2.068442454173    -0.539927651724     1.007825032230
         H            1.634041585314    -2.921612454173     0.737395348276     1.007825032230
         H            1.046321585314    -2.969258454173    -0.929805651724     1.007825032230
         H            2.816194585314     0.888222545827    -1.807477651724     1.007825032230
         H            3.800438585314     2.043735545827    -0.886638651724     1.007825032230
         H            2.067181585314     2.346335545827    -1.132504651724     1.007825032230
         H           -2.096078414686     2.224900545827    -1.254863651724     1.007825032230
         H           -3.779567414686     2.107341545827    -0.701914651724     1.007825032230
         H           -3.018556414686     0.736519545827    -1.534564651724     1.007825032230

  Basis Set: AUG-CC-PVTZ
    Blend: AUG-CC-PVTZ
  Basis Set: (AUG-CC-PVTZ AUX)
    Blend: AUG-CC-PVTZ-JKFIT
	 Reference Energy          =    -463.0106926011271753 [Eh]
	 Singles Energy            =      -0.0000000000000000 [Eh]
	 Same-Spin Energy          =      -0.4955557440492590 [Eh]
	 Opposite-Spin Energy      =      -1.6643766962334081 [Eh]
	 Correlation Energy        =      -2.1599324402826672 [Eh]
	 Total Energy              =    -465.1706250414098349 [Eh]

	 ================> DF-SCS-MP2 Energies <==================
	-----------------------------------------------------------
	 SCS Same-Spin Scale       =       0.3333333333333333 [-]
	 SCS Opposite-Spin Scale   =       1.2000000000000000 [-]
	 SCS Same-Spin Energy      =      -0.1651852480164197 [Eh]
	 SCS Opposite-Spin Energy  =      -1.9972520354800896 [Eh]
	 SCS Correlation Energy    =      -2.1624372834965091 [Eh]
	 SCS Total Energy          =    -465.1731298846236768 [Eh]
	-----------------------------------------------------------

  Dipole Moment: [D]
     X:    -0.0820      Y:    -0.6315      Z:    -0.2017     Total:     0.6680

*** Psi4 exiting successfully. Buy a developer a beer!
