                               Psi4 1.4a3.dev225

  ==> Input File <==

--------------------------------------------------------------------------
#psi4
#
memory 32 gb

molecule  {
0 1
  O        0.0000040    -0.9323440    -0.5200900
  C       -0.7186120     1.1388030    -0.0293360
  C        0.7686000     1.1388092    -0.0293298
  C       -1.1092540    -0.1401520    -0.3350070
  C        1.1092550    -0.1401430    -0.3349960
  C       -2.4197690    -0.8327410    -0.4659430
  C        2.4197760    -0.8327180    -0.4659420
  C       -1.5881550     2.3237520     0.2504950
  C        1.5881310     2.3237650     0.2505070
  C       -2.6404590    -1.8837440     0.6266770
  C        2.6404800    -1.8837320     0.6266650
  H        3.2127060    -0.0780420    -0.4310990
  H        2.4812700    -1.3082390    -1.4528680
  H       -2.4812630    -1.3082740    -1.4528630
  H       -3.2127060    -0.0780720    -0.4311050
  H       -1.4004860     3.1330380    -0.4637010
  H       -2.6480190     2.0627510     0.1871390
  H       -1.4034730     2.7248980     1.2531230
  H        2.6479980     2.0627640     0.1871950
  H        1.4004870     3.1330370    -0.4637120
  H        1.4034130     2.7249310     1.2531200
  H        2.6185650    -1.4170920     1.6153140
  H        3.6057420    -2.3837880     0.5012060
  H        1.8526560    -2.6398250     0.5898280
  H       -1.8526300    -2.6398320     0.5898440
  H       -3.6057190    -2.3838080     0.5012310
  H       -2.6185400    -1.4170920     1.6153210
units angstrom
no_reorient  #important for SAPT in psi4, default
symmetry c1  #important for SAPT in psi4, default
}

set PROPERTIES_ORIGIN ["COM"]
properties('MP2/aug-cc-pvtz', properties = ['dipole'])
--------------------------------------------------------------------------

    Molecular point group: c1
  Charge       = 0
  Multiplicity = 1
  Basis Set: AUG-CC-PVTZ
    Blend: AUG-CC-PVTZ
  Basis Set: (AUG-CC-PVTZ AUX)
    Blend: AUG-CC-PVTZ-JKFIT

    Orbital Energies [Eh]
    ---------------------

    Doubly Occupied:

       1A    -20.596275     2A    -11.271326     3A    -11.271227
       4A    -11.230196     5A    -11.228762     6A    -11.222250
       7A    -11.222041     8A    -11.219941     9A    -11.217966
      10A    -11.213613    11A    -11.213103    12A     -1.429811
      13A     -1.094874    14A     -1.080101    15A     -1.036105
      16A     -0.994314    17A     -0.933487    18A     -0.927111
      19A     -0.868750    20A     -0.816634    21A     -0.754146
      22A     -0.711855    23A     -0.659728    24A     -0.628236
      25A     -0.612146    26A     -0.610904    27A     -0.586131
      28A     -0.582145    29A     -0.569681    30A     -0.557968
      31A     -0.553806    32A     -0.536916    33A     -0.531114
      34A     -0.525045    35A     -0.518477    36A     -0.505862
      37A     -0.493659    38A     -0.490380    39A     -0.484803
      40A     -0.457995    41A     -0.355417    42A     -0.284949

  @DF-RHF Final Energy:  -463.01280059454126

   => Energetics <=

    Nuclear Repulsion Energy =            629.6213359594232770
    One-Electron Energy =               -1877.0697745793409013
    Two-Electron Energy =                 784.4356380253763064
    Total Energy =                       -463.0128005945413179
  Basis Set: (AUG-CC-PVTZ AUX)
    Blend: AUG-CC-PVTZ-RI
    Molecular point group: c1

    Geometry (in Angstrom), charge = 0, multiplicity = 1:

       Center              X                  Y                   Z               Mass
    ------------   -----------------  -----------------  -----------------  -----------------
         O           -0.003940126567    -0.931153156718    -0.496640205168    15.994914619570
         C           -0.722556126567     1.139993843282    -0.005886205168    12.000000000000
         C            0.764655873433     1.140000043282    -0.005880005168    12.000000000000
         C           -1.113198126567    -0.138961156718    -0.311557205168    12.000000000000
         C            1.105310873433    -0.138952156718    -0.311546205168    12.000000000000
         C           -2.423713126567    -0.831550156718    -0.442493205168    12.000000000000
         C            2.415831873433    -0.831527156718    -0.442492205168    12.000000000000
         C           -1.592099126567     2.324942843282     0.273944794832    12.000000000000
         C            1.584186873433     2.324955843282     0.273956794832    12.000000000000
         C           -2.644403126567    -1.882553156718     0.650126794832    12.000000000000
         C            2.636535873433    -1.882541156718     0.650114794832    12.000000000000
         H            3.208761873433    -0.076851156718    -0.407649205168     1.007825032230
         H            2.477325873433    -1.307048156718    -1.429418205168     1.007825032230
         H           -2.485207126567    -1.307083156718    -1.429413205168     1.007825032230
         H           -3.216650126567    -0.076881156718    -0.407655205168     1.007825032230
         H           -1.404430126567     3.134228843282    -0.440251205168     1.007825032230
         H           -2.651963126567     2.063941843282     0.210588794832     1.007825032230
         H           -1.407417126567     2.726088843282     1.276572794832     1.007825032230
         H            2.644053873433     2.063954843282     0.210644794832     1.007825032230
         H            1.396542873433     3.134227843282    -0.440262205168     1.007825032230
         H            1.399468873433     2.726121843282     1.276569794832     1.007825032230
         H            2.614620873433    -1.415901156718     1.638763794832     1.007825032230
         H            3.601797873433    -2.382597156718     0.524655794832     1.007825032230
         H            1.848711873433    -2.638634156718     0.613277794832     1.007825032230
         H           -1.856574126567    -2.638641156718     0.613293794832     1.007825032230
         H           -3.609663126567    -2.382617156718     0.524680794832     1.007825032230
         H           -2.622484126567    -1.415901156718     1.638770794832     1.007825032230

  Basis Set: AUG-CC-PVTZ
    Blend: AUG-CC-PVTZ
  Basis Set: (AUG-CC-PVTZ AUX)
    Blend: AUG-CC-PVTZ-JKFIT
	 Reference Energy          =    -463.0128005945412610 [Eh]
	 Singles Energy            =      -0.0000000000000000 [Eh]
	 Same-Spin Energy          =      -0.4961460902857521 [Eh]
	 Opposite-Spin Energy      =      -1.6660428768464115 [Eh]
	 Correlation Energy        =      -2.1621889671321637 [Eh]
	 Total Energy              =    -465.1749895616734420 [Eh]

	 ================> DF-SCS-MP2 Energies <==================
	-----------------------------------------------------------
	 SCS Same-Spin Scale       =       0.3333333333333333 [-]
	 SCS Opposite-Spin Scale   =       1.2000000000000000 [-]
	 SCS Same-Spin Energy      =      -0.1653820300952507 [Eh]
	 SCS Opposite-Spin Energy  =      -1.9992514522156937 [Eh]
	 SCS Correlation Energy    =      -2.1646334823109443 [Eh]
	 SCS Total Energy          =    -465.1774340768521938 [Eh]
	-----------------------------------------------------------

  Dipole Moment: [D]
     X:    -0.0017      Y:     0.6731      Z:     0.2329     Total:     0.7123

*** Psi4 exiting successfully. Buy a developer a beer!
