                               Psi4 1.4a3.dev225

  ==> Input File <==

--------------------------------------------------------------------------
#psi4
#
memory 32 gb

molecule  {
0 1
  O        0.0000040    -0.9323440    -0.5200900
  C       -0.7186120     1.1388030    -0.0293360
  C        0.7186000     1.1388090    -0.0293300
  C       -1.1495730    -0.1113576    -0.3282796
  C        1.1092550    -0.1401430    -0.3349960
  C       -2.4197690    -0.8327410    -0.4659430
  C        2.4197760    -0.8327180    -0.4659420
  C       -1.5881550     2.3237520     0.2504950
  C        1.5881310     2.3237650     0.2505070
  C       -2.6404590    -1.8837440     0.6266770
  C        2.6404800    -1.8837320     0.6266650
  H        3.2127060    -0.0780420    -0.4310990
  H        2.4812700    -1.3082390    -1.4528680
  H       -2.4812630    -1.3082740    -1.4528630
  H       -3.2127060    -0.0780720    -0.4311050
  H       -1.4004860     3.1330380    -0.4637010
  H       -2.6480190     2.0627510     0.1871390
  H       -1.4034730     2.7248980     1.2531230
  H        2.6479980     2.0627640     0.1871950
  H        1.4004870     3.1330370    -0.4637120
  H        1.4034130     2.7249310     1.2531200
  H        2.6185650    -1.4170920     1.6153140
  H        3.6057420    -2.3837880     0.5012060
  H        1.8526560    -2.6398250     0.5898280
  H       -1.8526300    -2.6398320     0.5898440
  H       -3.6057190    -2.3838080     0.5012310
  H       -2.6185400    -1.4170920     1.6153210
units angstrom
no_reorient  #important for SAPT in psi4, default
symmetry c1  #important for SAPT in psi4, default
}

set PROPERTIES_ORIGIN ["COM"]
properties('MP2/aug-cc-pvtz', properties = ['dipole'])
--------------------------------------------------------------------------

    Molecular point group: c1
  Charge       = 0
  Multiplicity = 1
  Basis Set: AUG-CC-PVTZ
    Blend: AUG-CC-PVTZ
  Basis Set: (AUG-CC-PVTZ AUX)
    Blend: AUG-CC-PVTZ-JKFIT

    Orbital Energies [Eh]
    ---------------------

    Doubly Occupied:

       1A    -20.589463     2A    -11.273106     3A    -11.269608
       4A    -11.230123     5A    -11.229961     6A    -11.222969
       7A    -11.222275     8A    -11.219705     9A    -11.215596
      10A    -11.213783    11A    -11.213614    12A     -1.411459
      13A     -1.099107    14A     -1.080286    15A     -1.038140
      16A     -0.992608    17A     -0.932621    18A     -0.924174
      19A     -0.872128    20A     -0.817264    21A     -0.744087
      22A     -0.719676    23A     -0.655859    24A     -0.622330
      25A     -0.613951    26A     -0.610533    27A     -0.586606
      28A     -0.579679    29A     -0.566762    30A     -0.556089
      31A     -0.552255    32A     -0.532827    33A     -0.530262
      34A     -0.518901    35A     -0.518318    36A     -0.504368
      37A     -0.496398    38A     -0.490742    39A     -0.482559
      40A     -0.471135    41A     -0.361959    42A     -0.282509

  @DF-RHF Final Energy:  -463.01047300104574

   => Energetics <=

    Nuclear Repulsion Energy =            629.4954833715096356
    One-Electron Energy =               -1876.8803252509705999
    Two-Electron Energy =                 784.3743688784152255
    Total Energy =                       -463.0104730010457388
  Basis Set: (AUG-CC-PVTZ AUX)
    Blend: AUG-CC-PVTZ-RI
    Molecular point group: c1

    Geometry (in Angstrom), charge = 0, multiplicity = 1:

       Center              X                  Y                   Z               Mass
    ------------   -----------------  -----------------  -----------------  -----------------
         O            0.003184690549    -0.933424588078    -0.497170880548    15.994914619570
         C           -0.715431309451     1.137722411922    -0.006416880548    12.000000000000
         C            0.721780690549     1.137728411922    -0.006410880548    12.000000000000
         C           -1.146392309451    -0.112438188078    -0.305360480548    12.000000000000
         C            1.112435690549    -0.141223588078    -0.312076880548    12.000000000000
         C           -2.416588309451    -0.833821588078    -0.443023880548    12.000000000000
         C            2.422956690549    -0.833798588078    -0.443022880548    12.000000000000
         C           -1.584974309451     2.322671411922     0.273414119452    12.000000000000
         C            1.591311690549     2.322684411922     0.273426119452    12.000000000000
         C           -2.637278309451    -1.884824588078     0.649596119452    12.000000000000
         C            2.643660690549    -1.884812588078     0.649584119452    12.000000000000
         H            3.215886690549    -0.079122588078    -0.408179880548     1.007825032230
         H            2.484450690549    -1.309319588078    -1.429948880548     1.007825032230
         H           -2.478082309451    -1.309354588078    -1.429943880548     1.007825032230
         H           -3.209525309451    -0.079152588078    -0.408185880548     1.007825032230
         H           -1.397305309451     3.131957411922    -0.440781880548     1.007825032230
         H           -2.644838309451     2.061670411922     0.210058119452     1.007825032230
         H           -1.400292309451     2.723817411922     1.276042119452     1.007825032230
         H            2.651178690549     2.061683411922     0.210114119452     1.007825032230
         H            1.403667690549     3.131956411922    -0.440792880548     1.007825032230
         H            1.406593690549     2.723850411922     1.276039119452     1.007825032230
         H            2.621745690549    -1.418172588078     1.638233119452     1.007825032230
         H            3.608922690549    -2.384868588078     0.524125119452     1.007825032230
         H            1.855836690549    -2.640905588078     0.612747119452     1.007825032230
         H           -1.849449309451    -2.640912588078     0.612763119452     1.007825032230
         H           -3.602538309451    -2.384888588078     0.524150119452     1.007825032230
         H           -2.615359309451    -1.418172588078     1.638240119452     1.007825032230

  Basis Set: AUG-CC-PVTZ
    Blend: AUG-CC-PVTZ
  Basis Set: (AUG-CC-PVTZ AUX)
    Blend: AUG-CC-PVTZ-JKFIT
	 Reference Energy          =    -463.0104730010457388 [Eh]
	 Singles Energy            =      -0.0000000000000000 [Eh]
	 Same-Spin Energy          =      -0.4970026658959188 [Eh]
	 Opposite-Spin Energy      =      -1.6675764832657791 [Eh]
	 Correlation Energy        =      -2.1645791491616979 [Eh]
	 Total Energy              =    -465.1750521502074207 [Eh]

	 ================> DF-SCS-MP2 Energies <==================
	-----------------------------------------------------------
	 SCS Same-Spin Scale       =       0.3333333333333333 [-]
	 SCS Opposite-Spin Scale   =       1.2000000000000000 [-]
	 SCS Same-Spin Energy      =      -0.1656675552986396 [Eh]
	 SCS Opposite-Spin Energy  =      -2.0010917799189349 [Eh]
	 SCS Correlation Energy    =      -2.1667593352175745 [Eh]
	 SCS Total Energy          =    -465.1772323362633301 [Eh]
	-----------------------------------------------------------

  Dipole Moment: [D]
     X:    -0.0796      Y:     0.6818      Z:     0.2455     Total:     0.7290

*** Psi4 exiting successfully. Buy a developer a beer!
