                               Psi4 1.3.2 release

  ==> Input File <==

--------------------------------------------------------------------------
#psi4
#
memory 32 gb

molecule  {
0 1
  O        0.0723890     1.0222580     0.5077940
  C       -0.7418240    -1.0387750     0.1269710
  C        0.6883760    -1.0936210     0.0623120
  C       -1.0714850     0.2632460     0.3951280
  C        1.1400710     0.1773790     0.3033030
  C       -2.3562760     1.0018630     0.5198060
  C        2.4849120     0.8120840     0.3409220
  C       -1.6830070    -2.1819480    -0.0885940
  C        1.5125100    -2.3214750    -0.1762480
  C       -2.8483591     1.5693151    -0.8195992
  C        2.8130920     1.5744450    -0.9510270
  H        3.2336060     0.0303330     0.5193890
  H        2.5305840     1.4962520     1.1974230
  H       -2.2187608     1.8287391     1.2277503
  H       -3.1130010     0.3316860     0.9491040
  H       -1.4229750    -3.0387300     0.5441040
  H       -2.7119990    -1.8902510     0.1457090
  H       -1.6650160    -2.5262940    -1.1310850
  H        2.5139960    -2.0634500    -0.5387900
  H        1.6307130    -2.9166200     0.7385330
  H        1.0429930    -2.9642660    -0.9286680
  H        2.8128660     0.8932150    -1.8063400
  H        3.7971100     2.0487280    -0.8855010
  H        2.0638530     2.3513280    -1.1313670
  H       -2.0994070     2.2298930    -1.2537260
  H       -3.7828960     2.1123340    -0.7007770
  H       -3.0218850     0.7415120    -1.5334270
units angstrom
no_reorient  #important for SAPT in psi4, default
symmetry c1  #important for SAPT in psi4, default
}

set PROPERTIES_ORIGIN ["COM"]
properties('MP2/aug-cc-pvtz', properties = ['dipole'])
--------------------------------------------------------------------------

    Molecular point group: c1
  Charge       = 0
  Multiplicity = 1
  Basis Set: AUG-CC-PVTZ
    Blend: AUG-CC-PVTZ
  Basis Set: (AUG-CC-PVTZ AUX)
    Blend: AUG-CC-PVTZ-JKFIT

    Orbital Energies [Eh]
    ---------------------

    Doubly Occupied:

       1A    -20.598683     2A    -11.269764     3A    -11.269561
       4A    -11.230095     5A    -11.230038     6A    -11.223220
       7A    -11.222921     8A    -11.216316     9A    -11.215370
      10A    -11.215276    11A    -11.214718    12A     -1.429757
      13A     -1.098824    14A     -1.078856    15A     -1.036232
      16A     -0.990162    17A     -0.932390    18A     -0.927650
      19A     -0.870086    20A     -0.815467    21A     -0.749474
      22A     -0.721790    23A     -0.658175    24A     -0.627357
      25A     -0.611325    26A     -0.609249    27A     -0.587642
      28A     -0.583392    29A     -0.567730    30A     -0.555888
      31A     -0.549619    32A     -0.534307    33A     -0.528181
      34A     -0.523964    35A     -0.520606    36A     -0.505403
      37A     -0.495274    38A     -0.491991    39A     -0.483593
      40A     -0.467216    41A     -0.360786    42A     -0.279057

  @DF-RHF Final Energy:  -463.01181047703125

   => Energetics <=

    Nuclear Repulsion Energy =            629.5218486798489721
    One-Electron Energy =               -1876.8725054745443686
    Two-Electron Energy =                 784.3388463176640926
    Total Energy =                       -463.0118104770313039
  Basis Set: (AUG-CC-PVTZ AUX)
    Blend: AUG-CC-PVTZ-RI
    Molecular point group: c1

    Geometry (in Angstrom), charge = 0, multiplicity = 1:

       Center              X                  Y                   Z               Mass
    ------------   -----------------  -----------------  -----------------  -----------------
         O            0.072385411395     1.021238774586     0.507437440193    15.994914619570
         C           -0.741827588605    -1.039794225414     0.126614440193    12.000000000000
         C            0.688372411395    -1.094640225414     0.061955440193    12.000000000000
         C           -1.071488588605     0.262226774586     0.394771440193    12.000000000000
         C            1.140067411395     0.176359774586     0.302946440193    12.000000000000
         C           -2.356279588605     1.000843774586     0.519449440193    12.000000000000
         C            2.484908411395     0.811064774586     0.340565440193    12.000000000000
         C           -1.683010588605    -2.182967225414    -0.088950559807    12.000000000000
         C            1.512506411395    -2.322494225414    -0.176604559807    12.000000000000
         C           -2.848362688605     1.568295874586    -0.819955759807    12.000000000000
         C            2.813088411395     1.573425774586    -0.951383559807    12.000000000000
         H            3.233602411395     0.029313774586     0.519032440193     1.007825032230
         H            2.530580411395     1.495232774586     1.197066440193     1.007825032230
         H           -2.218764388605     1.827719874586     1.227393740193     1.007825032230
         H           -3.113004588605     0.330666774586     0.948747440193     1.007825032230
         H           -1.422978588605    -3.039749225414     0.543747440193     1.007825032230
         H           -2.712002588605    -1.891270225414     0.145352440193     1.007825032230
         H           -1.665019588605    -2.527313225414    -1.131441559807     1.007825032230
         H            2.513992411395    -2.064469225414    -0.539146559807     1.007825032230
         H            1.630709411395    -2.917639225414     0.738176440193     1.007825032230
         H            1.042989411395    -2.965285225414    -0.929024559807     1.007825032230
         H            2.812862411395     0.892195774586    -1.806696559807     1.007825032230
         H            3.797106411395     2.047708774586    -0.885857559807     1.007825032230
         H            2.063849411395     2.350308774586    -1.131723559807     1.007825032230
         H           -2.099410588605     2.228873774586    -1.254082559807     1.007825032230
         H           -3.782899588605     2.111314774586    -0.701133559807     1.007825032230
         H           -3.021888588605     0.740492774586    -1.533783559807     1.007825032230

  Basis Set: AUG-CC-PVTZ
    Blend: AUG-CC-PVTZ
  Basis Set: (AUG-CC-PVTZ AUX)
    Blend: AUG-CC-PVTZ-JKFIT
	 Reference Energy          =    -463.0118104770312470 [Eh]
	 Singles Energy            =      -0.0000000000000000 [Eh]
	 Same-Spin Energy          =      -0.4970947909391854 [Eh]
	 Opposite-Spin Energy      =      -1.6671240092746098 [Eh]
	 Correlation Energy        =      -2.1642188002137952 [Eh]
	 Total Energy              =    -465.1760292772450498 [Eh]

	 ================> DF-SCS-MP2 Energies <==================
	-----------------------------------------------------------
	 SCS Same-Spin Scale       =       0.3333333333333333 [-]
	 SCS Opposite-Spin Scale   =       1.2000000000000000 [-]
	 SCS Same-Spin Energy      =      -0.1656982636463951 [Eh]
	 SCS Opposite-Spin Energy  =      -2.0005488111295318 [Eh]
	 SCS Correlation Energy    =      -2.1662470747759270 [Eh]
	 SCS Total Energy          =    -465.1780575518071714 [Eh]
	-----------------------------------------------------------

  Dipole Moment: [D]
     X:    -0.0266      Y:    -0.6491      Z:    -0.2154     Total:     0.6844

*** Psi4 exiting successfully. Buy a developer a beer!
