                               Psi4 1.3.2 release

  ==> Input File <==

--------------------------------------------------------------------------
#psi4
#
memory 32 gb

molecule  {
0 1
  O        0.0723890     1.0222580     0.5077940
  C       -0.7404758    -1.0141439     0.1310636
  C        0.6883760    -1.0936210     0.0623120
  C       -1.0714850     0.2632460     0.3951280
  C        1.1400710     0.1773790     0.3033030
  C       -2.3562760     1.0018630     0.5198060
  C        2.4849120     0.8120840     0.3409220
  C       -1.6830070    -2.1819480    -0.0885940
  C        1.5341914    -2.3069556    -0.1746450
  C       -2.8486430     1.5569180    -0.8246800
  C        2.8130920     1.5744450    -0.9510270
  H        3.2336060     0.0303330     0.5193890
  H        2.5305840     1.4962520     1.1974230
  H       -2.2159340     1.8224920     1.2344330
  H       -3.1130010     0.3316860     0.9491040
  H       -1.4229750    -3.0387300     0.5441040
  H       -2.7119990    -1.8902510     0.1457090
  H       -1.6650160    -2.5262940    -1.1310850
  H        2.5139960    -2.0634500    -0.5387900
  H        1.6307130    -2.9166200     0.7385330
  H        1.0429930    -2.9642660    -0.9286680
  H        2.8128660     0.8932150    -1.8063400
  H        3.7971100     2.0487280    -0.8855010
  H        2.0638530     2.3513280    -1.1313670
  H       -2.0994070     2.2298930    -1.2537260
  H       -3.7828960     2.1123340    -0.7007770
  H       -3.0218850     0.7415120    -1.5334270
units angstrom
no_reorient  #important for SAPT in psi4, default
symmetry c1  #important for SAPT in psi4, default
}

set PROPERTIES_ORIGIN ["COM"]
properties('MP2/aug-cc-pvtz', properties = ['dipole'])
--------------------------------------------------------------------------

    Molecular point group: c1
  Charge       = 0
  Multiplicity = 1
  Basis Set: AUG-CC-PVTZ
    Blend: AUG-CC-PVTZ
  Basis Set: (AUG-CC-PVTZ AUX)
    Blend: AUG-CC-PVTZ-JKFIT

    Orbital Energies [Eh]
    ---------------------

    Doubly Occupied:

       1A    -20.596741     2A    -11.269310     3A    -11.266336
       4A    -11.230144     5A    -11.229989     6A    -11.223855
       7A    -11.223550     8A    -11.215551     9A    -11.215504
      10A    -11.214852    11A    -11.213774    12A     -1.429622
      13A     -1.098804    14A     -1.079570    15A     -1.036154
      16A     -0.989299    17A     -0.932637    18A     -0.927659
      19A     -0.870327    20A     -0.817084    21A     -0.750302
      22A     -0.721297    23A     -0.658141    24A     -0.627194
      25A     -0.611036    26A     -0.609553    27A     -0.586871
      28A     -0.584033    29A     -0.565223    30A     -0.554983
      31A     -0.550423    32A     -0.534162    33A     -0.525814
      34A     -0.521856    35A     -0.520097    36A     -0.505320
      37A     -0.495738    38A     -0.492928    39A     -0.483886
      40A     -0.468492    41A     -0.362323    42A     -0.281806

  @DF-RHF Final Energy:  -463.01198922506649

   => Energetics <=

    Nuclear Repulsion Energy =            629.9032929592897290
    One-Electron Energy =               -1877.6460859344501841
    Two-Electron Energy =                 784.7308037500939690
    Total Energy =                       -463.0119892250664861
  Basis Set: (AUG-CC-PVTZ AUX)
    Blend: AUG-CC-PVTZ-RI
    Molecular point group: c1

    Geometry (in Angstrom), charge = 0, multiplicity = 1:

       Center              X                  Y                   Z               Mass
    ------------   -----------------  -----------------  -----------------  -----------------
         O            0.070572388051     1.019169720037     0.507344667503    15.994914619570
         C           -0.742292411949    -1.017232179963     0.130614267503    12.000000000000
         C            0.686559388051    -1.096709279963     0.061862667503    12.000000000000
         C           -1.073301611949     0.260157720037     0.394678667503    12.000000000000
         C            1.138254388051     0.174290720037     0.302853667503    12.000000000000
         C           -2.358092611949     0.998774720037     0.519356667503    12.000000000000
         C            2.483095388051     0.808995720037     0.340472667503    12.000000000000
         C           -1.684823611949    -2.185036279963    -0.089043332497    12.000000000000
         C            1.532374788051    -2.310043879963    -0.175094332497    12.000000000000
         C           -2.850459611949     1.553829720037    -0.825129332497    12.000000000000
         C            2.811275388051     1.571356720037    -0.951476332497    12.000000000000
         H            3.231789388051     0.027244720037     0.518939667503     1.007825032230
         H            2.528767388051     1.493163720037     1.196973667503     1.007825032230
         H           -2.217750611949     1.819403720037     1.233983667503     1.007825032230
         H           -3.114817611949     0.328597720037     0.948654667503     1.007825032230
         H           -1.424791611949    -3.041818279963     0.543654667503     1.007825032230
         H           -2.713815611949    -1.893339279963     0.145259667503     1.007825032230
         H           -1.666832611949    -2.529382279963    -1.131534332497     1.007825032230
         H            2.512179388051    -2.066538279963    -0.539239332497     1.007825032230
         H            1.628896388051    -2.919708279963     0.738083667503     1.007825032230
         H            1.041176388051    -2.967354279963    -0.929117332497     1.007825032230
         H            2.811049388051     0.890126720037    -1.806789332497     1.007825032230
         H            3.795293388051     2.045639720037    -0.885950332497     1.007825032230
         H            2.062036388051     2.348239720037    -1.131816332497     1.007825032230
         H           -2.101223611949     2.226804720037    -1.254175332497     1.007825032230
         H           -3.784712611949     2.109245720037    -0.701226332497     1.007825032230
         H           -3.023701611949     0.738423720037    -1.533876332497     1.007825032230

  Basis Set: AUG-CC-PVTZ
    Blend: AUG-CC-PVTZ
  Basis Set: (AUG-CC-PVTZ AUX)
    Blend: AUG-CC-PVTZ-JKFIT
	 Reference Energy          =    -463.0119892250664861 [Eh]
	 Singles Energy            =      -0.0000000000000000 [Eh]
	 Same-Spin Energy          =      -0.4965022831318285 [Eh]
	 Opposite-Spin Energy      =      -1.6662911895672838 [Eh]
	 Correlation Energy        =      -2.1627934726991125 [Eh]
	 Total Energy              =    -465.1747826977655791 [Eh]

	 ================> DF-SCS-MP2 Energies <==================
	-----------------------------------------------------------
	 SCS Same-Spin Scale       =       0.3333333333333333 [-]
	 SCS Opposite-Spin Scale   =       1.2000000000000000 [-]
	 SCS Same-Spin Energy      =      -0.1655007610439428 [Eh]
	 SCS Opposite-Spin Energy  =      -1.9995494274807406 [Eh]
	 SCS Correlation Energy    =      -2.1650501885246833 [Eh]
	 SCS Total Energy          =    -465.1770394135911602 [Eh]
	-----------------------------------------------------------

  Dipole Moment: [D]
     X:    -0.0160      Y:    -0.6439      Z:    -0.2161     Total:     0.6794

*** Psi4 exiting successfully. Buy a developer a beer!
