                               Psi4 1.3.2 release

  ==> Input File <==

--------------------------------------------------------------------------
#psi4
#
memory 32 gb

molecule  {
0 1
  O        0.0723890     1.0222580     0.5077940
  C       -0.7418240    -1.0387750     0.1269710
  C        0.6883760    -1.0936210     0.0623120
  C       -1.1176716     0.2510286     0.3934077
  C        1.1400710     0.1773790     0.3033030
  C       -2.3562760     1.0018630     0.5198060
  C        2.4849120     0.8120840     0.3409220
  C       -1.7230245    -2.1491774    -0.0813324
  C        1.5125100    -2.3214750    -0.1762480
  C       -2.8486430     1.5569180    -0.8246800
  C        2.8130920     1.5744450    -0.9510270
  H        3.2336060     0.0303330     0.5193890
  H        2.5305840     1.4962520     1.1974230
  H       -2.2159340     1.8224920     1.2344330
  H       -3.1130010     0.3316860     0.9491040
  H       -1.4229750    -3.0387300     0.5441040
  H       -2.7119990    -1.8902510     0.1457090
  H       -1.6650160    -2.5262940    -1.1310850
  H        2.5139960    -2.0634500    -0.5387900
  H        1.6307130    -2.9166200     0.7385330
  H        1.0429930    -2.9642660    -0.9286680
  H        2.8128660     0.8932150    -1.8063400
  H        3.7971100     2.0487280    -0.8855010
  H        2.0638530     2.3513280    -1.1313670
  H       -2.0994070     2.2298930    -1.2537260
  H       -3.7828960     2.1123340    -0.7007770
  H       -3.0218850     0.7415120    -1.5334270
units angstrom
no_reorient  #important for SAPT in psi4, default
symmetry c1  #important for SAPT in psi4, default
}

set PROPERTIES_ORIGIN ["COM"]
properties('MP2/aug-cc-pvtz', properties = ['dipole'])
--------------------------------------------------------------------------

    Molecular point group: c1
  Charge       = 0
  Multiplicity = 1
  Basis Set: AUG-CC-PVTZ
    Blend: AUG-CC-PVTZ
  Basis Set: (AUG-CC-PVTZ AUX)
    Blend: AUG-CC-PVTZ-JKFIT

    Orbital Energies [Eh]
    ---------------------

    Doubly Occupied:

       1A    -20.591359     2A    -11.271965     3A    -11.268390
       4A    -11.230432     5A    -11.229678     6A    -11.223699
       7A    -11.222832     8A    -11.219536     9A    -11.216061
      10A    -11.215799    11A    -11.215062    12A     -1.411595
      13A     -1.098446    14A     -1.081627    15A     -1.038616
      16A     -0.992059    17A     -0.930176    18A     -0.925758
      19A     -0.873171    20A     -0.816674    21A     -0.741401
      22A     -0.723456    23A     -0.655261    24A     -0.621675
      25A     -0.613804    26A     -0.610318    27A     -0.588501
      28A     -0.583443    29A     -0.564784    30A     -0.558799
      31A     -0.546459    32A     -0.534678    33A     -0.527810
      34A     -0.521841    35A     -0.513870    36A     -0.504466
      37A     -0.497173    38A     -0.495969    39A     -0.482771
      40A     -0.472640    41A     -0.359263    42A     -0.278933

  @DF-RHF Final Energy:  -463.00429056517078

   => Energetics <=

    Nuclear Repulsion Energy =            629.0985926800996140
    One-Electron Energy =               -1876.0652635464214200
    Two-Electron Energy =                 783.9623803011509153
    Total Energy =                       -463.0042905651707770
  Basis Set: (AUG-CC-PVTZ AUX)
    Blend: AUG-CC-PVTZ-RI
    Molecular point group: c1

    Geometry (in Angstrom), charge = 0, multiplicity = 1:

       Center              X                  Y                   Z               Mass
    ------------   -----------------  -----------------  -----------------  -----------------
         O            0.079189291863     1.020636768624     0.507356839463    15.994914619570
         C           -0.735023708137    -1.040396231376     0.126533839463    12.000000000000
         C            0.695176291863    -1.095242231376     0.061874839463    12.000000000000
         C           -1.110871308137     0.249407368624     0.392970539463    12.000000000000
         C            1.146871291863     0.175757768624     0.302865839463    12.000000000000
         C           -2.349475708137     1.000241768624     0.519368839463    12.000000000000
         C            2.491712291863     0.810462768624     0.340484839463    12.000000000000
         C           -1.716224208137    -2.150798631376    -0.081769560537    12.000000000000
         C            1.519310291863    -2.323096231376    -0.176685160537    12.000000000000
         C           -2.841842708137     1.555296768624    -0.825117160537    12.000000000000
         C            2.819892291863     1.572823768624    -0.951464160537    12.000000000000
         H            3.240406291863     0.028711768624     0.518951839463     1.007825032230
         H            2.537384291863     1.494630768624     1.196985839463     1.007825032230
         H           -2.209133708137     1.820870768624     1.233995839463     1.007825032230
         H           -3.106200708137     0.330064768624     0.948666839463     1.007825032230
         H           -1.416174708137    -3.040351231376     0.543666839463     1.007825032230
         H           -2.705198708137    -1.891872231376     0.145271839463     1.007825032230
         H           -1.658215708137    -2.527915231376    -1.131522160537     1.007825032230
         H            2.520796291863    -2.065071231376    -0.539227160537     1.007825032230
         H            1.637513291863    -2.918241231376     0.738095839463     1.007825032230
         H            1.049793291863    -2.965887231376    -0.929105160537     1.007825032230
         H            2.819666291863     0.891593768624    -1.806777160537     1.007825032230
         H            3.803910291863     2.047106768624    -0.885938160537     1.007825032230
         H            2.070653291863     2.349706768624    -1.131804160537     1.007825032230
         H           -2.092606708137     2.228271768624    -1.254163160537     1.007825032230
         H           -3.776095708137     2.110712768624    -0.701214160537     1.007825032230
         H           -3.015084708137     0.739890768624    -1.533864160537     1.007825032230

  Basis Set: AUG-CC-PVTZ
    Blend: AUG-CC-PVTZ
  Basis Set: (AUG-CC-PVTZ AUX)
    Blend: AUG-CC-PVTZ-JKFIT
	 Reference Energy          =    -463.0042905651707770 [Eh]
	 Singles Energy            =      -0.0000000000000000 [Eh]
	 Same-Spin Energy          =      -0.4976903521428426 [Eh]
	 Opposite-Spin Energy      =      -1.6685952881322121 [Eh]
	 Correlation Energy        =      -2.1662856402750545 [Eh]
	 Total Energy              =    -465.1705762054458546 [Eh]

	 ================> DF-SCS-MP2 Energies <==================
	-----------------------------------------------------------
	 SCS Same-Spin Scale       =       0.3333333333333333 [-]
	 SCS Opposite-Spin Scale   =       1.2000000000000000 [-]
	 SCS Same-Spin Energy      =      -0.1658967840476142 [Eh]
	 SCS Opposite-Spin Energy  =      -2.0023143457586543 [Eh]
	 SCS Correlation Energy    =      -2.1682111298062683 [Eh]
	 SCS Total Energy          =    -465.1725016949770293 [Eh]
	-----------------------------------------------------------

  Dipole Moment: [D]
     X:    -0.1164      Y:    -0.6464      Z:    -0.2249     Total:     0.6942

*** Psi4 exiting successfully. Buy a developer a beer!
