                               Psi4 1.3.2 release

  ==> Input File <==

--------------------------------------------------------------------------
#psi4
#
memory 32 gb

molecule  {
0 1
  O        0.0723890     1.0222580     0.5077940
  C       -0.7363803    -0.9654194     0.1416518
  C        0.6883760    -1.0936210     0.0623120
  C       -1.0714850     0.2632460     0.3951280
  C        1.0717989     0.1983270     0.3101089
  C       -2.3562760     1.0018630     0.5198060
  C        2.4849120     0.8120840     0.3409220
  C       -1.6830070    -2.1819480    -0.0885940
  C        1.5125100    -2.3214750    -0.1762480
  C       -2.8486430     1.5569180    -0.8246800
  C        2.8130920     1.5744450    -0.9510270
  H        3.2336060     0.0303330     0.5193890
  H        2.5305840     1.4962520     1.1974230
  H       -2.2159340     1.8224920     1.2344330
  H       -3.1130010     0.3316860     0.9491040
  H       -1.4229750    -3.0387300     0.5441040
  H       -2.7119990    -1.8902510     0.1457090
  H       -1.6650160    -2.5262940    -1.1310850
  H        2.5139960    -2.0634500    -0.5387900
  H        1.6307130    -2.9166200     0.7385330
  H        1.0429930    -2.9642660    -0.9286680
  H        2.8128660     0.8932150    -1.8063400
  H        3.7971100     2.0487280    -0.8855010
  H        2.0638530     2.3513280    -1.1313670
  H       -2.0994070     2.2298930    -1.2537260
  H       -3.7828960     2.1123340    -0.7007770
  H       -3.0218850     0.7415120    -1.5334270
units angstrom
no_reorient  #important for SAPT in psi4, default
symmetry c1  #important for SAPT in psi4, default
}

set PROPERTIES_ORIGIN ["COM"]
properties('MP2/aug-cc-pvtz', properties = ['dipole'])
--------------------------------------------------------------------------

    Molecular point group: c1
  Charge       = 0
  Multiplicity = 1
  Basis Set: AUG-CC-PVTZ
    Blend: AUG-CC-PVTZ
  Basis Set: (AUG-CC-PVTZ AUX)
    Blend: AUG-CC-PVTZ-JKFIT

    Orbital Energies [Eh]
    ---------------------

    Doubly Occupied:

       1A    -20.603586     2A    -11.271617     3A    -11.256386
       4A    -11.230325     5A    -11.229889     6A    -11.225231
       7A    -11.224676     8A    -11.215139     9A    -11.214096
      10A    -11.210960    11A    -11.208821    12A     -1.460698
      13A     -1.103671    14A     -1.076499    15A     -1.032145
      16A     -0.986465    17A     -0.936048    18A     -0.930819
      19A     -0.865928    20A     -0.818349    21A     -0.766129
      22A     -0.717641    23A     -0.665248    24A     -0.640379
      25A     -0.609431    26A     -0.605531    27A     -0.589041
      28A     -0.580145    29A     -0.567460    30A     -0.553796
      31A     -0.547507    32A     -0.534787    33A     -0.533887
      34A     -0.521255    35A     -0.518317    36A     -0.505444
      37A     -0.494050    38A     -0.491511    39A     -0.484175
      40A     -0.454002    41A     -0.368737    42A     -0.286165

  @DF-RHF Final Energy:  -463.00468412895634

   => Energetics <=

    Nuclear Repulsion Energy =            631.4666267835413009
    One-Electron Energy =               -1880.6706503768718903
    Two-Electron Energy =                 786.1993394643741340
    Total Energy =                       -463.0046841289563417
  Basis Set: (AUG-CC-PVTZ AUX)
    Blend: AUG-CC-PVTZ-RI
    Molecular point group: c1

    Geometry (in Angstrom), charge = 0, multiplicity = 1:

       Center              X                  Y                   Z               Mass
    ------------   -----------------  -----------------  -----------------  -----------------
         O            0.077345299043     1.014818966033     0.506098986089    15.994914619570
         C           -0.731424000957    -0.972858433967     0.139956786089    12.000000000000
         C            0.693332299043    -1.101060033967     0.060616986089    12.000000000000
         C           -1.066528700957     0.255806966033     0.393432986089    12.000000000000
         C            1.076755199043     0.190887966033     0.308413886089    12.000000000000
         C           -2.351319700957     0.994423966033     0.518110986089    12.000000000000
         C            2.489868299043     0.804644966033     0.339226986089    12.000000000000
         C           -1.678050700957    -2.189387033967    -0.090289013911    12.000000000000
         C            1.517466299043    -2.328914033967    -0.177943013911    12.000000000000
         C           -2.843686700957     1.549478966033    -0.826375013911    12.000000000000
         C            2.818048299043     1.567005966033    -0.952722013911    12.000000000000
         H            3.238562299043     0.022893966033     0.517693986089     1.007825032230
         H            2.535540299043     1.488812966033     1.195727986089     1.007825032230
         H           -2.210977700957     1.815052966033     1.232737986089     1.007825032230
         H           -3.108044700957     0.324246966033     0.947408986089     1.007825032230
         H           -1.418018700957    -3.046169033967     0.542408986089     1.007825032230
         H           -2.707042700957    -1.897690033967     0.144013986089     1.007825032230
         H           -1.660059700957    -2.533733033967    -1.132780013911     1.007825032230
         H            2.518952299043    -2.070889033967    -0.540485013911     1.007825032230
         H            1.635669299043    -2.924059033967     0.736837986089     1.007825032230
         H            1.047949299043    -2.971705033967    -0.930363013911     1.007825032230
         H            2.817822299043     0.885775966033    -1.808035013911     1.007825032230
         H            3.802066299043     2.041288966033    -0.887196013911     1.007825032230
         H            2.068809299043     2.343888966033    -1.133062013911     1.007825032230
         H           -2.094450700957     2.222453966033    -1.255421013911     1.007825032230
         H           -3.777939700957     2.104894966033    -0.702472013911     1.007825032230
         H           -3.016928700957     0.734072966033    -1.535122013911     1.007825032230

  Basis Set: AUG-CC-PVTZ
    Blend: AUG-CC-PVTZ
  Basis Set: (AUG-CC-PVTZ AUX)
    Blend: AUG-CC-PVTZ-JKFIT
	 Reference Energy          =    -463.0046841289563417 [Eh]
	 Singles Energy            =      -0.0000000000000000 [Eh]
	 Same-Spin Energy          =      -0.4949571677689795 [Eh]
	 Opposite-Spin Energy      =      -1.6632780829149059 [Eh]
	 Correlation Energy        =      -2.1582352506838856 [Eh]
	 Total Energy              =    -465.1629193796402433 [Eh]

	 ================> DF-SCS-MP2 Energies <==================
	-----------------------------------------------------------
	 SCS Same-Spin Scale       =       0.3333333333333333 [-]
	 SCS Opposite-Spin Scale   =       1.2000000000000000 [-]
	 SCS Same-Spin Energy      =      -0.1649857225896598 [Eh]
	 SCS Opposite-Spin Energy  =      -1.9959336994978869 [Eh]
	 SCS Correlation Energy    =      -2.1609194220875469 [Eh]
	 SCS Total Energy          =    -465.1656035510438869 [Eh]
	-----------------------------------------------------------

  Dipole Moment: [D]
     X:    -0.1102      Y:    -0.6194      Z:    -0.1937     Total:     0.6583

*** Psi4 exiting successfully. Buy a developer a beer!
