                               Psi4 1.3.2 release

  ==> Input File <==

--------------------------------------------------------------------------
#psi4
#
memory 32 gb

molecule  {
0 1
  O        0.0588452     1.0416537     0.5120707
  C       -0.7650619    -1.0443679     0.1266247
  C        0.6883760    -1.0936210     0.0623120
  C       -1.0714850     0.2632460     0.3951280
  C        1.1400710     0.1773790     0.3033030
  C       -2.3562760     1.0018630     0.5198060
  C        2.4849120     0.8120840     0.3409220
  C       -1.6830070    -2.1819480    -0.0885940
  C        1.5125100    -2.3214750    -0.1762480
  C       -2.8486430     1.5569180    -0.8246800
  C        2.8130920     1.5744450    -0.9510270
  H        3.2336060     0.0303330     0.5193890
  H        2.5305840     1.4962520     1.1974230
  H       -2.2159340     1.8224920     1.2344330
  H       -3.1130010     0.3316860     0.9491040
  H       -1.4229750    -3.0387300     0.5441040
  H       -2.7119990    -1.8902510     0.1457090
  H       -1.6650160    -2.5262940    -1.1310850
  H        2.5139960    -2.0634500    -0.5387900
  H        1.6307130    -2.9166200     0.7385330
  H        1.0429930    -2.9642660    -0.9286680
  H        2.8128660     0.8932150    -1.8063400
  H        3.7971100     2.0487280    -0.8855010
  H        2.0638530     2.3513280    -1.1313670
  H       -2.0994070     2.2298930    -1.2537260
  H       -3.7828960     2.1123340    -0.7007770
  H       -3.0218850     0.7415120    -1.5334270
units angstrom
no_reorient  #important for SAPT in psi4, default
symmetry c1  #important for SAPT in psi4, default
}

set PROPERTIES_ORIGIN ["COM"]
properties('MP2/aug-cc-pvtz', properties = ['dipole'])
--------------------------------------------------------------------------

    Molecular point group: c1
  Charge       = 0
  Multiplicity = 1
  Basis Set: AUG-CC-PVTZ
    Blend: AUG-CC-PVTZ
  Basis Set: (AUG-CC-PVTZ AUX)
    Blend: AUG-CC-PVTZ-JKFIT

    Orbital Energies [Eh]
    ---------------------

    Doubly Occupied:

       1A    -20.598148     2A    -11.271348     3A    -11.270871
       4A    -11.230240     5A    -11.228642     6A    -11.224005
       7A    -11.223017     8A    -11.220187     9A    -11.216433
      10A    -11.215115    11A    -11.214500    12A     -1.421835
      13A     -1.098446    14A     -1.078225    15A     -1.035506
      16A     -0.992571    17A     -0.933044    18A     -0.926137
      19A     -0.869237    20A     -0.814409    21A     -0.747050
      22A     -0.719193    23A     -0.655954    24A     -0.624899
      25A     -0.611266    26A     -0.609625    27A     -0.586197
      28A     -0.583518    29A     -0.568303    30A     -0.557298
      31A     -0.551619    32A     -0.533260    33A     -0.530866
      34A     -0.524824    35A     -0.521623    36A     -0.504832
      37A     -0.494617    38A     -0.492455    39A     -0.482867
      40A     -0.463916    41A     -0.359590    42A     -0.280452

  @DF-RHF Final Energy:  -463.00991853480730

   => Energetics <=

    Nuclear Repulsion Energy =            628.7756830703251580
    One-Electron Energy =               -1875.3989195091482998
    Two-Electron Energy =                 783.6133179040158439
    Total Energy =                       -463.0099185348072979
  Basis Set: (AUG-CC-PVTZ AUX)
    Blend: AUG-CC-PVTZ-RI
    Molecular point group: c1

    Geometry (in Angstrom), charge = 0, multiplicity = 1:

       Center              X                  Y                   Z               Mass
    ------------   -----------------  -----------------  -----------------  -----------------
         O            0.062102485898     1.040055612404     0.511648302459    15.994914619570
         C           -0.761804614102    -1.045965987596     0.126202302459    12.000000000000
         C            0.691633285898    -1.095219087596     0.061889602459    12.000000000000
         C           -1.068227714102     0.261647912404     0.394705602459    12.000000000000
         C            1.143328285898     0.175780912404     0.302880602459    12.000000000000
         C           -2.353018714102     1.000264912404     0.519383602459    12.000000000000
         C            2.488169285898     0.810485912404     0.340499602459    12.000000000000
         C           -1.679749714102    -2.183546087596    -0.089016397541    12.000000000000
         C            1.515767285898    -2.323073087596    -0.176670397541    12.000000000000
         C           -2.845385714102     1.555319912404    -0.825102397541    12.000000000000
         C            2.816349285898     1.572846912404    -0.951449397541    12.000000000000
         H            3.236863285898     0.028734912404     0.518966602459     1.007825032230
         H            2.533841285898     1.494653912404     1.197000602459     1.007825032230
         H           -2.212676714102     1.820893912404     1.234010602459     1.007825032230
         H           -3.109743714102     0.330087912404     0.948681602459     1.007825032230
         H           -1.419717714102    -3.040328087596     0.543681602459     1.007825032230
         H           -2.708741714102    -1.891849087596     0.145286602459     1.007825032230
         H           -1.661758714102    -2.527892087596    -1.131507397541     1.007825032230
         H            2.517253285898    -2.065048087596    -0.539212397541     1.007825032230
         H            1.633970285898    -2.918218087596     0.738110602459     1.007825032230
         H            1.046250285898    -2.965864087596    -0.929090397541     1.007825032230
         H            2.816123285898     0.891616912404    -1.806762397541     1.007825032230
         H            3.800367285898     2.047129912404    -0.885923397541     1.007825032230
         H            2.067110285898     2.349729912404    -1.131789397541     1.007825032230
         H           -2.096149714102     2.228294912404    -1.254148397541     1.007825032230
         H           -3.779638714102     2.110735912404    -0.701199397541     1.007825032230
         H           -3.018627714102     0.739913912404    -1.533849397541     1.007825032230

  Basis Set: AUG-CC-PVTZ
    Blend: AUG-CC-PVTZ
  Basis Set: (AUG-CC-PVTZ AUX)
    Blend: AUG-CC-PVTZ-JKFIT
	 Reference Energy          =    -463.0099185348072979 [Eh]
	 Singles Energy            =      -0.0000000000000000 [Eh]
	 Same-Spin Energy          =      -0.4969655790741782 [Eh]
	 Opposite-Spin Energy      =      -1.6677415348084139 [Eh]
	 Correlation Energy        =      -2.1647071138825922 [Eh]
	 Total Energy              =    -465.1746256486898687 [Eh]

	 ================> DF-SCS-MP2 Energies <==================
	-----------------------------------------------------------
	 SCS Same-Spin Scale       =       0.3333333333333333 [-]
	 SCS Opposite-Spin Scale   =       1.2000000000000000 [-]
	 SCS Same-Spin Energy      =      -0.1656551930247261 [Eh]
	 SCS Opposite-Spin Energy  =      -2.0012898417700966 [Eh]
	 SCS Correlation Energy    =      -2.1669450347948227 [Eh]
	 SCS Total Energy          =    -465.1768635696021192 [Eh]
	-----------------------------------------------------------

  Dipole Moment: [D]
     X:     0.0124      Y:    -0.7433      Z:    -0.2342     Total:     0.7794

*** Psi4 exiting successfully. Buy a developer a beer!
