                               Psi4 1.3.2 release

  ==> Input File <==

--------------------------------------------------------------------------
#psi4
#
memory 32 gb

molecule  {
0 1
  O        0.0723890     1.0222580     0.5077940
  C       -0.7432758    -1.0877747     0.1170829
  C        0.6883760    -1.0936210     0.0623120
  C       -1.0714850     0.2632460     0.3951280
  C        1.1849094     0.1614743     0.2983976
  C       -2.3562760     1.0018630     0.5198060
  C        2.4849120     0.8120840     0.3409220
  C       -1.6830070    -2.1819480    -0.0885940
  C        1.5125100    -2.3214750    -0.1762480
  C       -2.8486430     1.5569180    -0.8246800
  C        2.8130920     1.5744450    -0.9510270
  H        3.2336060     0.0303330     0.5193890
  H        2.5305840     1.4962520     1.1974230
  H       -2.2159340     1.8224920     1.2344330
  H       -3.1130010     0.3316860     0.9491040
  H       -1.4229750    -3.0387300     0.5441040
  H       -2.7119990    -1.8902510     0.1457090
  H       -1.6650160    -2.5262940    -1.1310850
  H        2.5139960    -2.0634500    -0.5387900
  H        1.6307130    -2.9166200     0.7385330
  H        1.0429930    -2.9642660    -0.9286680
  H        2.8128660     0.8932150    -1.8063400
  H        3.7971100     2.0487280    -0.8855010
  H        2.0638530     2.3513280    -1.1313670
  H       -2.0994070     2.2298930    -1.2537260
  H       -3.7828960     2.1123340    -0.7007770
  H       -3.0218850     0.7415120    -1.5334270
units angstrom
no_reorient  #important for SAPT in psi4, default
symmetry c1  #important for SAPT in psi4, default
}

set PROPERTIES_ORIGIN ["COM"]
properties('MP2/aug-cc-pvtz', properties = ['dipole'])
--------------------------------------------------------------------------

    Molecular point group: c1
  Charge       = 0
  Multiplicity = 1
  Basis Set: AUG-CC-PVTZ
    Blend: AUG-CC-PVTZ
  Basis Set: (AUG-CC-PVTZ AUX)
    Blend: AUG-CC-PVTZ-JKFIT

    Orbital Energies [Eh]
    ---------------------

    Doubly Occupied:

       1A    -20.595250     2A    -11.278648     3A    -11.268441
       4A    -11.230730     5A    -11.229395     6A    -11.221822
       7A    -11.221660     8A    -11.220920     9A    -11.218160
      10A    -11.216136    11A    -11.214796    12A     -1.412016
      13A     -1.098915    14A     -1.080571    15A     -1.038871
      16A     -0.994429    17A     -0.929136    18A     -0.924809
      19A     -0.872946    20A     -0.813728    21A     -0.741070
      22A     -0.722401    23A     -0.655057    24A     -0.621341
      25A     -0.614464    26A     -0.610585    27A     -0.588786
      28A     -0.583354    29A     -0.567967    30A     -0.557069
      31A     -0.554112    32A     -0.534661    33A     -0.527765
      34A     -0.523582    35A     -0.518340    36A     -0.504515
      37A     -0.497538    38A     -0.495260    39A     -0.482078
      40A     -0.465873    41A     -0.357597    42A     -0.272982

  @DF-RHF Final Energy:  -463.00051918320463

   => Energetics <=

    Nuclear Repulsion Energy =            628.4605146810018823
    One-Electron Energy =               -1874.7665160109368117
    Two-Electron Energy =                 783.3054821467303555
    Total Energy =                       -463.0005191832046876
  Basis Set: (AUG-CC-PVTZ AUX)
    Blend: AUG-CC-PVTZ-RI
    Molecular point group: c1

    Geometry (in Angstrom), charge = 0, multiplicity = 1:

       Center              X                  Y                   Z               Mass
    ------------   -----------------  -----------------  -----------------  -----------------
         O            0.068966525475     1.027378094050     0.508960950792    15.994914619570
         C           -0.746698274525    -1.082654605950     0.118249850792    12.000000000000
         C            0.684953525475    -1.088500905950     0.063478950792    12.000000000000
         C           -1.074907474525     0.268366094050     0.396294950792    12.000000000000
         C            1.181486925475     0.166594394050     0.299564550792    12.000000000000
         C           -2.359698474525     1.006983094050     0.520972950792    12.000000000000
         C            2.481489525475     0.817204094050     0.342088950792    12.000000000000
         C           -1.686429474525    -2.176827905950    -0.087427049208    12.000000000000
         C            1.509087525475    -2.316354905950    -0.175081049208    12.000000000000
         C           -2.852065474525     1.562038094050    -0.823513049208    12.000000000000
         C            2.809669525475     1.579565094050    -0.949860049208    12.000000000000
         H            3.230183525475     0.035453094050     0.520555950792     1.007825032230
         H            2.527161525475     1.501372094050     1.198589950792     1.007825032230
         H           -2.219356474525     1.827612094050     1.235599950792     1.007825032230
         H           -3.116423474525     0.336806094050     0.950270950792     1.007825032230
         H           -1.426397474525    -3.033609905950     0.545270950792     1.007825032230
         H           -2.715421474525    -1.885130905950     0.146875950792     1.007825032230
         H           -1.668438474525    -2.521173905950    -1.129918049208     1.007825032230
         H            2.510573525475    -2.058329905950    -0.537623049208     1.007825032230
         H            1.627290525475    -2.911499905950     0.739699950792     1.007825032230
         H            1.039570525475    -2.959145905950    -0.927501049208     1.007825032230
         H            2.809443525475     0.898335094050    -1.805173049208     1.007825032230
         H            3.793687525475     2.053848094050    -0.884334049208     1.007825032230
         H            2.060430525475     2.356448094050    -1.130200049208     1.007825032230
         H           -2.102829474525     2.235013094050    -1.252559049208     1.007825032230
         H           -3.786318474525     2.117454094050    -0.699610049208     1.007825032230
         H           -3.025307474525     0.746632094050    -1.532260049208     1.007825032230

  Basis Set: AUG-CC-PVTZ
    Blend: AUG-CC-PVTZ
  Basis Set: (AUG-CC-PVTZ AUX)
    Blend: AUG-CC-PVTZ-JKFIT
	 Reference Energy          =    -463.0005191832046307 [Eh]
	 Singles Energy            =      -0.0000000000000000 [Eh]
	 Same-Spin Energy          =      -0.4990542660998942 [Eh]
	 Opposite-Spin Energy      =      -1.6705089656446463 [Eh]
	 Correlation Energy        =      -2.1695632317445406 [Eh]
	 Total Energy              =    -465.1700824149491496 [Eh]

	 ================> DF-SCS-MP2 Energies <==================
	-----------------------------------------------------------
	 SCS Same-Spin Scale       =       0.3333333333333333 [-]
	 SCS Opposite-Spin Scale   =       1.2000000000000000 [-]
	 SCS Same-Spin Energy      =      -0.1663514220332981 [Eh]
	 SCS Opposite-Spin Energy  =      -2.0046107587735755 [Eh]
	 SCS Correlation Energy    =      -2.1709621808068738 [Eh]
	 SCS Total Energy          =    -465.1714813640115267 [Eh]
	-----------------------------------------------------------

  Dipole Moment: [D]
     X:     0.0203      Y:    -0.6738      Z:    -0.2297     Total:     0.7121

*** Psi4 exiting successfully. Buy a developer a beer!
