                               Psi4 1.3.2 release

  ==> Input File <==

--------------------------------------------------------------------------
#psi4
#
memory 32 gb

molecule  {
0 1
  O        0.0723890     1.0222580     0.5077940
  C       -0.7418240    -1.0387750     0.1269710
  C        0.6883760    -1.0936210     0.0623120
  C       -1.0714850     0.2632460     0.3951280
  C        1.1455401     0.1657980     0.3054213
  C       -2.3562760     1.0018630     0.5198060
  C        2.4849120     0.8120840     0.3409220
  C       -1.6830070    -2.1819480    -0.0885940
  C        1.5125100    -2.3214750    -0.1762480
  C       -2.8486430     1.5569180    -0.8246800
  C        2.8130920     1.5744450    -0.9510270
  H        3.2266359     0.0237753     0.5196476
  H        2.5305840     1.4962520     1.1974230
  H       -2.2159340     1.8224920     1.2344330
  H       -3.1130010     0.3316860     0.9491040
  H       -1.4229750    -3.0387300     0.5441040
  H       -2.7119990    -1.8902510     0.1457090
  H       -1.6650160    -2.5262940    -1.1310850
  H        2.5139960    -2.0634500    -0.5387900
  H        1.6307130    -2.9166200     0.7385330
  H        1.0429930    -2.9642660    -0.9286680
  H        2.8128660     0.8932150    -1.8063400
  H        3.7971100     2.0487280    -0.8855010
  H        2.0638530     2.3513280    -1.1313670
  H       -2.0994070     2.2298930    -1.2537260
  H       -3.7828960     2.1123340    -0.7007770
  H       -3.0218850     0.7415120    -1.5334270
units angstrom
no_reorient  #important for SAPT in psi4, default
symmetry c1  #important for SAPT in psi4, default
}

set PROPERTIES_ORIGIN ["COM"]
properties('MP2/aug-cc-pvtz', properties = ['dipole'])
--------------------------------------------------------------------------

    Molecular point group: c1
  Charge       = 0
  Multiplicity = 1
  Basis Set: AUG-CC-PVTZ
    Blend: AUG-CC-PVTZ
  Basis Set: (AUG-CC-PVTZ AUX)
    Blend: AUG-CC-PVTZ-JKFIT

    Orbital Energies [Eh]
    ---------------------

    Doubly Occupied:

       1A    -20.596745     2A    -11.270084     3A    -11.268570
       4A    -11.230124     5A    -11.230068     6A    -11.223142
       7A    -11.223136     8A    -11.216179     9A    -11.215586
      10A    -11.214889    11A    -11.214747    12A     -1.425352
      13A     -1.099472    14A     -1.078784    15A     -1.036147
      16A     -0.990589    17A     -0.932727    18A     -0.926856
      19A     -0.870361    20A     -0.815933    21A     -0.747756
      22A     -0.721872    23A     -0.656776    24A     -0.625996
      25A     -0.611238    26A     -0.609525    27A     -0.585957
      28A     -0.583877    29A     -0.567375    30A     -0.555980
      31A     -0.549752    32A     -0.533511    33A     -0.527628
      34A     -0.522826    35A     -0.521559    36A     -0.505178
      37A     -0.495309    38A     -0.492887    39A     -0.483180
      40A     -0.468383    41A     -0.361524    42A     -0.280078

  @DF-RHF Final Energy:  -463.01180682689454

   => Energetics <=

    Nuclear Repulsion Energy =            629.5276923190456273
    One-Electron Energy =               -1876.9036795490515033
    Two-Electron Energy =                 784.3641804031113907
    Total Energy =                       -463.0118068268944853
  Basis Set: (AUG-CC-PVTZ AUX)
    Blend: AUG-CC-PVTZ-RI
    Molecular point group: c1

    Geometry (in Angstrom), charge = 0, multiplicity = 1:

       Center              X                  Y                   Z               Mass
    ------------   -----------------  -----------------  -----------------  -----------------
         O            0.072003826892     1.023215122012     0.507625149649    15.994914619570
         C           -0.742209173108    -1.037817877988     0.126802149649    12.000000000000
         C            0.687990826892    -1.092663877988     0.062143149649    12.000000000000
         C           -1.071870173108     0.264203122012     0.394959149649    12.000000000000
         C            1.145154926892     0.166755122012     0.305252449649    12.000000000000
         C           -2.356661173108     1.002820122012     0.519637149649    12.000000000000
         C            2.484526826892     0.813041122012     0.340753149649    12.000000000000
         C           -1.683392173108    -2.180990877988    -0.088762850351    12.000000000000
         C            1.512124826892    -2.320517877988    -0.176416850351    12.000000000000
         C           -2.849028173108     1.557875122012    -0.824848850351    12.000000000000
         C            2.812706826892     1.575402122012    -0.951195850351    12.000000000000
         H            3.226250726892     0.024732422012     0.519478749649     1.007825032230
         H            2.530198826892     1.497209122012     1.197254149649     1.007825032230
         H           -2.216319173108     1.823449122012     1.234264149649     1.007825032230
         H           -3.113386173108     0.332643122012     0.948935149649     1.007825032230
         H           -1.423360173108    -3.037772877988     0.543935149649     1.007825032230
         H           -2.712384173108    -1.889293877988     0.145540149649     1.007825032230
         H           -1.665401173108    -2.525336877988    -1.131253850351     1.007825032230
         H            2.513610826892    -2.062492877988    -0.538958850351     1.007825032230
         H            1.630327826892    -2.915662877988     0.738364149649     1.007825032230
         H            1.042607826892    -2.963308877988    -0.928836850351     1.007825032230
         H            2.812480826892     0.894172122012    -1.806508850351     1.007825032230
         H            3.796724826892     2.049685122012    -0.885669850351     1.007825032230
         H            2.063467826892     2.352285122012    -1.131535850351     1.007825032230
         H           -2.099792173108     2.230850122012    -1.253894850351     1.007825032230
         H           -3.783281173108     2.113291122012    -0.700945850351     1.007825032230
         H           -3.022270173108     0.742469122012    -1.533595850351     1.007825032230

  Basis Set: AUG-CC-PVTZ
    Blend: AUG-CC-PVTZ
  Basis Set: (AUG-CC-PVTZ AUX)
    Blend: AUG-CC-PVTZ-JKFIT
	 Reference Energy          =    -463.0118068268945422 [Eh]
	 Singles Energy            =      -0.0000000000000000 [Eh]
	 Same-Spin Energy          =      -0.4969883674622811 [Eh]
	 Opposite-Spin Energy      =      -1.6671559728423264 [Eh]
	 Correlation Energy        =      -2.1641443403046075 [Eh]
	 Total Energy              =    -465.1759511671991731 [Eh]

	 ================> DF-SCS-MP2 Energies <==================
	-----------------------------------------------------------
	 SCS Same-Spin Scale       =       0.3333333333333333 [-]
	 SCS Opposite-Spin Scale   =       1.2000000000000000 [-]
	 SCS Same-Spin Energy      =      -0.1656627891540937 [Eh]
	 SCS Opposite-Spin Energy  =      -2.0005871674107918 [Eh]
	 SCS Correlation Energy    =      -2.1662499565648856 [Eh]
	 SCS Total Energy          =    -465.1780567834594535 [Eh]
	-----------------------------------------------------------

  Dipole Moment: [D]
     X:    -0.0195      Y:    -0.6698      Z:    -0.2259     Total:     0.7072

*** Psi4 exiting successfully. Buy a developer a beer!
