                               Psi4 1.3.2 release

  ==> Input File <==

--------------------------------------------------------------------------
#psi4
#
memory 32 gb

molecule  {
0 1
  O        0.0723890     1.0222580     0.5077940
  C       -0.7038719    -1.0826358     0.1796321
  C        0.6883760    -1.0936210     0.0623120
  C       -1.0714850     0.2632460     0.3951280
  C        1.1400710     0.1773790     0.3033030
  C       -2.3562760     1.0018630     0.5198060
  C        2.4849120     0.8120840     0.3409220
  C       -1.6830070    -2.1819480    -0.0885940
  C        1.5125100    -2.3214750    -0.1762480
  C       -2.8486430     1.5569180    -0.8246800
  C        2.8130920     1.5744450    -0.9510270
  H        3.2336060     0.0303330     0.5193890
  H        2.5305840     1.4962520     1.1974230
  H       -2.2159340     1.8224920     1.2344330
  H       -3.1130010     0.3316860     0.9491040
  H       -1.3792413    -3.0080413     0.5650841
  H       -2.7119990    -1.8902510     0.1457090
  H       -1.6650160    -2.5262940    -1.1310850
  H        2.5139960    -2.0634500    -0.5387900
  H        1.6307130    -2.9166200     0.7385330
  H        1.0429930    -2.9642660    -0.9286680
  H        2.8128660     0.8932150    -1.8063400
  H        3.7971100     2.0487280    -0.8855010
  H        2.0638530     2.3513280    -1.1313670
  H       -2.0994070     2.2298930    -1.2537260
  H       -3.7828960     2.1123340    -0.7007770
  H       -3.0218850     0.7415120    -1.5334270
units angstrom
no_reorient  #important for SAPT in psi4, default
symmetry c1  #important for SAPT in psi4, default
}

set PROPERTIES_ORIGIN ["COM"]
properties('MP2/aug-cc-pvtz', properties = ['dipole'])
--------------------------------------------------------------------------

    Molecular point group: c1
  Charge       = 0
  Multiplicity = 1
  Basis Set: AUG-CC-PVTZ
    Blend: AUG-CC-PVTZ
  Basis Set: (AUG-CC-PVTZ AUX)
    Blend: AUG-CC-PVTZ-JKFIT

    Orbital Energies [Eh]
    ---------------------

    Doubly Occupied:

       1A    -20.601815     2A    -11.273936     3A    -11.268723
       4A    -11.231351     5A    -11.229918     6A    -11.223063
       7A    -11.222467     8A    -11.217106     9A    -11.216019
      10A    -11.214351    11A    -11.214118    12A     -1.430477
      13A     -1.102277    14A     -1.077411    15A     -1.036984
      16A     -0.989191    17A     -0.932216    18A     -0.926025
      19A     -0.870940    20A     -0.813176    21A     -0.746025
      22A     -0.727853    23A     -0.657533    24A     -0.627095
      25A     -0.611248    26A     -0.610540    27A     -0.586833
      28A     -0.583978    29A     -0.569815    30A     -0.557825
      31A     -0.551083    32A     -0.535334    33A     -0.527374
      34A     -0.524571    35A     -0.515743    36A     -0.505483
      37A     -0.495867    38A     -0.489938    39A     -0.483783
      40A     -0.470053    41A     -0.363017    42A     -0.271368

  @DF-RHF Final Energy:  -463.00359231157415

   => Energetics <=

    Nuclear Repulsion Energy =            629.4368756629555719
    One-Electron Energy =               -1876.6730874070087793
    Two-Electron Energy =                 784.2326194324790549
    Total Energy =                       -463.0035923115741525
  Basis Set: (AUG-CC-PVTZ AUX)
    Blend: AUG-CC-PVTZ-RI
    Molecular point group: c1

    Geometry (in Angstrom), charge = 0, multiplicity = 1:

       Center              X                  Y                   Z               Mass
    ------------   -----------------  -----------------  -----------------  -----------------
         O            0.069105481998     1.025514750469     0.503500795379    15.994914619570
         C           -0.707155418002    -1.079379049531     0.175338895379    12.000000000000
         C            0.685092481998    -1.090364249531     0.058018795379    12.000000000000
         C           -1.074768518002     0.266502750469     0.390834795379    12.000000000000
         C            1.136787481998     0.180635750469     0.299009795379    12.000000000000
         C           -2.359559518002     1.005119750469     0.515512795379    12.000000000000
         C            2.481628481998     0.815340750469     0.336628795379    12.000000000000
         C           -1.686290518002    -2.178691249531    -0.092887204621    12.000000000000
         C            1.509226481998    -2.318218249531    -0.180541204621    12.000000000000
         C           -2.851926518002     1.560174750469    -0.828973204621    12.000000000000
         C            2.809808481998     1.577701750469    -0.955320204621    12.000000000000
         H            3.230322481998     0.033589750469     0.515095795379     1.007825032230
         H            2.527300481998     1.499508750469     1.193129795379     1.007825032230
         H           -2.219217518002     1.825748750469     1.230139795379     1.007825032230
         H           -3.116284518002     0.334942750469     0.944810795379     1.007825032230
         H           -1.382524818002    -3.004784549531     0.560790895379     1.007825032230
         H           -2.715282518002    -1.886994249531     0.141415795379     1.007825032230
         H           -1.668299518002    -2.523037249531    -1.135378204621     1.007825032230
         H            2.510712481998    -2.060193249531    -0.543083204621     1.007825032230
         H            1.627429481998    -2.913363249531     0.734239795379     1.007825032230
         H            1.039709481998    -2.961009249531    -0.932961204621     1.007825032230
         H            2.809582481998     0.896471750469    -1.810633204621     1.007825032230
         H            3.793826481998     2.051984750469    -0.889794204621     1.007825032230
         H            2.060569481998     2.354584750469    -1.135660204621     1.007825032230
         H           -2.102690518002     2.233149750469    -1.258019204621     1.007825032230
         H           -3.786179518002     2.115590750469    -0.705070204621     1.007825032230
         H           -3.025168518002     0.744768750469    -1.537720204621     1.007825032230

  Basis Set: AUG-CC-PVTZ
    Blend: AUG-CC-PVTZ
  Basis Set: (AUG-CC-PVTZ AUX)
    Blend: AUG-CC-PVTZ-JKFIT
	 Reference Energy          =    -463.0035923115741525 [Eh]
	 Singles Energy            =      -0.0000000000000000 [Eh]
	 Same-Spin Energy          =      -0.4987215533215346 [Eh]
	 Opposite-Spin Energy      =      -1.6693747590743628 [Eh]
	 Correlation Energy        =      -2.1680963123958974 [Eh]
	 Total Energy              =    -465.1716886239700557 [Eh]

	 ================> DF-SCS-MP2 Energies <==================
	-----------------------------------------------------------
	 SCS Same-Spin Scale       =       0.3333333333333333 [-]
	 SCS Opposite-Spin Scale   =       1.2000000000000000 [-]
	 SCS Same-Spin Energy      =      -0.1662405177738449 [Eh]
	 SCS Opposite-Spin Energy  =      -2.0032497108892353 [Eh]
	 SCS Correlation Energy    =      -2.1694902286630802 [Eh]
	 SCS Total Energy          =    -465.1730825402372602 [Eh]
	-----------------------------------------------------------

  Dipole Moment: [D]
     X:    -0.0350      Y:    -0.6072      Z:    -0.2460     Total:     0.6560

*** Psi4 exiting successfully. Buy a developer a beer!
