                               Psi4 1.4a3.dev225

  ==> Input File <==

--------------------------------------------------------------------------
#psi4
#
memory 32 gb

molecule  {
0 1
  O        0.0000040    -0.9323440    -0.5200900
  C       -0.7186120     1.1388030    -0.0293360
  C        0.7186000     1.1388090    -0.0293300
  C       -1.1092540    -0.1401520    -0.3350070
  C        1.1092550    -0.1401430    -0.3349960
  C       -2.4197690    -0.8327410    -0.4659430
  C        2.4197760    -0.8327180    -0.4659420
  C       -1.5765314     2.3079122     0.2467544
  C        1.5881310     2.3237650     0.2505070
  C       -2.6404590    -1.8837440     0.6266770
  C        2.6404800    -1.8837320     0.6266650
  H        3.2127060    -0.0780420    -0.4310990
  H        2.4812700    -1.3082390    -1.4528680
  H       -2.4812630    -1.3082740    -1.4528630
  H       -3.2127060    -0.0780720    -0.4311050
  H       -1.4004860     3.1330380    -0.4637010
  H       -2.6480190     2.0627510     0.1871390
  H       -1.4034730     2.7248980     1.2531230
  H        2.6479980     2.0627640     0.1871950
  H        1.4004870     3.1330370    -0.4637120
  H        1.4034130     2.7249310     1.2531200
  H        2.6185650    -1.4170920     1.6153140
  H        3.6057420    -2.3837880     0.5012060
  H        1.8526560    -2.6398250     0.5898280
  H       -1.8526300    -2.6398320     0.5898440
  H       -3.6057190    -2.3838080     0.5012310
  H       -2.6185400    -1.4170920     1.6153210
units angstrom
no_reorient  #important for SAPT in psi4, default
symmetry c1  #important for SAPT in psi4, default
}

set PROPERTIES_ORIGIN ["COM"]
properties('MP2/aug-cc-pvtz', properties = ['dipole'])
--------------------------------------------------------------------------

    Molecular point group: c1
  Charge       = 0
  Multiplicity = 1
  Basis Set: AUG-CC-PVTZ
    Blend: AUG-CC-PVTZ
  Basis Set: (AUG-CC-PVTZ AUX)
    Blend: AUG-CC-PVTZ-JKFIT

    Orbital Energies [Eh]
    ---------------------

    Doubly Occupied:

       1A    -20.597542     2A    -11.271216     3A    -11.271134
       4A    -11.230089     5A    -11.230066     6A    -11.223110
       7A    -11.222517     8A    -11.217272     9A    -11.215920
      10A    -11.213562    11A    -11.213558    12A     -1.430849
      13A     -1.099386    14A     -1.079711    15A     -1.036972
      16A     -0.991994    17A     -0.932486    18A     -0.926522
      19A     -0.870195    20A     -0.816299    21A     -0.751721
      22A     -0.719985    23A     -0.660315    24A     -0.628715
      25A     -0.612328    26A     -0.610520    27A     -0.585485
      28A     -0.582246    29A     -0.567807    30A     -0.555717
      31A     -0.550977    32A     -0.533052    33A     -0.530150
      34A     -0.526270    35A     -0.518148    36A     -0.506006
      37A     -0.493326    38A     -0.491126    39A     -0.484883
      40A     -0.466482    41A     -0.359950    42A     -0.280150

  @DF-RHF Final Energy:  -463.01327956044554

   => Energetics <=

    Nuclear Repulsion Energy =            630.3637824392562834
    One-Electron Energy =               -1878.5426060053539459
    Two-Electron Energy =                 785.1655440056521229
    Total Energy =                       -463.0132795604455396
  Basis Set: (AUG-CC-PVTZ AUX)
    Blend: AUG-CC-PVTZ-RI
    Molecular point group: c1

    Geometry (in Angstrom), charge = 0, multiplicity = 1:

       Center              X                  Y                   Z               Mass
    ------------   -----------------  -----------------  -----------------  -----------------
         O           -0.000912803063    -0.929903617827    -0.496345112044    15.994914619570
         C           -0.719528803063     1.141243382173    -0.005591112044    12.000000000000
         C            0.717683196937     1.141249382173    -0.005585112044    12.000000000000
         C           -1.110170803063    -0.137711617827    -0.311262112044    12.000000000000
         C            1.108338196937    -0.137702617827    -0.311251112044    12.000000000000
         C           -2.420685803063    -0.830300617827    -0.442198112044    12.000000000000
         C            2.418859196937    -0.830277617827    -0.442197112044    12.000000000000
         C           -1.577448203063     2.310352582173     0.270499287956    12.000000000000
         C            1.587214196937     2.326205382173     0.274251887956    12.000000000000
         C           -2.641375803063    -1.881303617827     0.650421887956    12.000000000000
         C            2.639563196937    -1.881291617827     0.650409887956    12.000000000000
         H            3.211789196937    -0.075601617827    -0.407354112044     1.007825032230
         H            2.480353196937    -1.305798617827    -1.429123112044     1.007825032230
         H           -2.482179803063    -1.305833617827    -1.429118112044     1.007825032230
         H           -3.213622803063    -0.075631617827    -0.407360112044     1.007825032230
         H           -1.401402803063     3.135478382173    -0.439956112044     1.007825032230
         H           -2.648935803063     2.065191382173     0.210883887956     1.007825032230
         H           -1.404389803063     2.727338382173     1.276867887956     1.007825032230
         H            2.647081196937     2.065204382173     0.210939887956     1.007825032230
         H            1.399570196937     3.135477382173    -0.439967112044     1.007825032230
         H            1.402496196937     2.727371382173     1.276864887956     1.007825032230
         H            2.617648196937    -1.414651617827     1.639058887956     1.007825032230
         H            3.604825196937    -2.381347617827     0.524950887956     1.007825032230
         H            1.851739196937    -2.637384617827     0.613572887956     1.007825032230
         H           -1.853546803063    -2.637391617827     0.613588887956     1.007825032230
         H           -3.606635803063    -2.381367617827     0.524975887956     1.007825032230
         H           -2.619456803063    -1.414651617827     1.639065887956     1.007825032230

  Basis Set: AUG-CC-PVTZ
    Blend: AUG-CC-PVTZ
  Basis Set: (AUG-CC-PVTZ AUX)
    Blend: AUG-CC-PVTZ-JKFIT
	 Reference Energy          =    -463.0132795604455396 [Eh]
	 Singles Energy            =      -0.0000000000000000 [Eh]
	 Same-Spin Energy          =      -0.4970867890689004 [Eh]
	 Opposite-Spin Energy      =      -1.6668888244550337 [Eh]
	 Correlation Energy        =      -2.1639756135239341 [Eh]
	 Total Energy              =    -465.1772551739694563 [Eh]

	 ================> DF-SCS-MP2 Energies <==================
	-----------------------------------------------------------
	 SCS Same-Spin Scale       =       0.3333333333333333 [-]
	 SCS Opposite-Spin Scale   =       1.2000000000000000 [-]
	 SCS Same-Spin Energy      =      -0.1656955963563001 [Eh]
	 SCS Opposite-Spin Energy  =      -2.0002665893460403 [Eh]
	 SCS Correlation Energy    =      -2.1659621857023406 [Eh]
	 SCS Total Energy          =    -465.1792417461478522 [Eh]
	-----------------------------------------------------------

  Dipole Moment: [D]
     X:     0.0041      Y:     0.6335      Z:     0.2243     Total:     0.6721

*** Psi4 exiting successfully. Buy a developer a beer!
