                               Psi4 1.3.2 release

  ==> Input File <==

--------------------------------------------------------------------------
#psi4
#
memory 32 gb

molecule  {
0 1
  O        0.0723890     1.0222580     0.5077940
  C       -0.7418240    -1.0387750     0.1269710
  C        0.6883760    -1.0936210     0.0623120
  C       -1.0714850     0.2632460     0.3951280
  C        1.1400710     0.1773790     0.3033030
  C       -2.3562760     1.0018630     0.5198060
  C        2.4849120     0.8120840     0.3409220
  C       -1.6830070    -2.1819480    -0.0885940
  C        1.5125100    -2.3214750    -0.1762480
  C       -2.8486430     1.5569180    -0.8246800
  C        2.7479037     1.6197543    -0.9383483
  H        3.2051151     0.0160659     0.5671750
  H        2.5305840     1.4962520     1.1974230
  H       -2.2159340     1.8224920     1.2344330
  H       -3.1130010     0.3316860     0.9491040
  H       -1.4229750    -3.0387300     0.5441040
  H       -2.7119990    -1.8902510     0.1457090
  H       -1.6650160    -2.5262940    -1.1310850
  H        2.5139960    -2.0634500    -0.5387900
  H        1.6307130    -2.9166200     0.7385330
  H        1.0429930    -2.9642660    -0.9286680
  H        2.8128660     0.8932150    -1.8063400
  H        3.7971100     2.0487280    -0.8855010
  H        2.0638530     2.3513280    -1.1313670
  H       -2.0994070     2.2298930    -1.2537260
  H       -3.7828960     2.1123340    -0.7007770
  H       -3.0218850     0.7415120    -1.5334270
units angstrom
no_reorient  #important for SAPT in psi4, default
symmetry c1  #important for SAPT in psi4, default
}

set PROPERTIES_ORIGIN ["COM"]
properties('MP2/aug-cc-pvtz', properties = ['dipole'])
--------------------------------------------------------------------------

    Molecular point group: c1
  Charge       = 0
  Multiplicity = 1
  Basis Set: AUG-CC-PVTZ
    Blend: AUG-CC-PVTZ
  Basis Set: (AUG-CC-PVTZ AUX)
    Blend: AUG-CC-PVTZ-JKFIT

    Orbital Energies [Eh]
    ---------------------

    Doubly Occupied:

       1A    -20.598273     2A    -11.269232     3A    -11.268804
       4A    -11.230687     5A    -11.230014     6A    -11.223056
       7A    -11.222791     8A    -11.216882     9A    -11.215813
      10A    -11.215494    11A    -11.214828    12A     -1.429515
      13A     -1.098555    14A     -1.079388    15A     -1.036577
      16A     -0.990015    17A     -0.932223    18A     -0.927291
      19A     -0.871602    20A     -0.816843    21A     -0.749479
      22A     -0.721547    23A     -0.657825    24A     -0.627173
      25A     -0.613452    26A     -0.608048    27A     -0.589439
      28A     -0.581775    29A     -0.567501    30A     -0.556547
      31A     -0.551496    32A     -0.533633    33A     -0.528046
      34A     -0.524243    35A     -0.521948    36A     -0.512093
      37A     -0.492560    38A     -0.487142    39A     -0.482253
      40A     -0.464347    41A     -0.360648    42A     -0.278439

  @DF-RHF Final Energy:  -463.00358594125032

   => Energetics <=

    Nuclear Repulsion Energy =            629.9898150680800200
    One-Electron Energy =               -1877.7917690675640188
    Two-Electron Energy =                 784.7983680582335637
    Total Energy =                       -463.0035859412503214
  Basis Set: (AUG-CC-PVTZ AUX)
    Blend: AUG-CC-PVTZ-RI
    Molecular point group: c1

    Geometry (in Angstrom), charge = 0, multiplicity = 1:

       Center              X                  Y                   Z               Mass
    ------------   -----------------  -----------------  -----------------  -----------------
         O            0.077720217523     1.018778405190     0.506477213998    15.994914619570
         C           -0.736492782477    -1.042254594810     0.125654213998    12.000000000000
         C            0.693707217523    -1.097100594810     0.060995213998    12.000000000000
         C           -1.066153782477     0.259766405190     0.393811213998    12.000000000000
         C            1.145402217523     0.173899405190     0.301986213998    12.000000000000
         C           -2.350944782477     0.998383405190     0.518489213998    12.000000000000
         C            2.490243217523     0.808604405190     0.339605213998    12.000000000000
         C           -1.677675782477    -2.185427594810    -0.089910786002    12.000000000000
         C            1.517841217523    -2.324954594810    -0.177564786002    12.000000000000
         C           -2.843311782477     1.553438405190    -0.825996786002    12.000000000000
         C            2.753234917523     1.616274705190    -0.939665086002    12.000000000000
         H            3.210446317523     0.012586305190     0.565858213998     1.007825032230
         H            2.535915217523     1.492772405190     1.196106213998     1.007825032230
         H           -2.210602782477     1.819012405190     1.233116213998     1.007825032230
         H           -3.107669782477     0.328206405190     0.947787213998     1.007825032230
         H           -1.417643782477    -3.042209594810     0.542787213998     1.007825032230
         H           -2.706667782477    -1.893730594810     0.144392213998     1.007825032230
         H           -1.659684782477    -2.529773594810    -1.132401786002     1.007825032230
         H            2.519327217523    -2.066929594810    -0.540106786002     1.007825032230
         H            1.636044217523    -2.920099594810     0.737216213998     1.007825032230
         H            1.048324217523    -2.967745594810    -0.929984786002     1.007825032230
         H            2.818197217523     0.889735405190    -1.807656786002     1.007825032230
         H            3.802441217523     2.045248405190    -0.886817786002     1.007825032230
         H            2.069184217523     2.347848405190    -1.132683786002     1.007825032230
         H           -2.094075782477     2.226413405190    -1.255042786002     1.007825032230
         H           -3.777564782477     2.108854405190    -0.702093786002     1.007825032230
         H           -3.016553782477     0.738032405190    -1.534743786002     1.007825032230

  Basis Set: AUG-CC-PVTZ
    Blend: AUG-CC-PVTZ
  Basis Set: (AUG-CC-PVTZ AUX)
    Blend: AUG-CC-PVTZ-JKFIT
	 Reference Energy          =    -463.0035859412503214 [Eh]
	 Singles Energy            =      -0.0000000000000000 [Eh]
	 Same-Spin Energy          =      -0.4972644805566663 [Eh]
	 Opposite-Spin Energy      =      -1.6675397874592375 [Eh]
	 Correlation Energy        =      -2.1648042680159039 [Eh]
	 Total Energy              =    -465.1683902092662493 [Eh]

	 ================> DF-SCS-MP2 Energies <==================
	-----------------------------------------------------------
	 SCS Same-Spin Scale       =       0.3333333333333333 [-]
	 SCS Opposite-Spin Scale   =       1.2000000000000000 [-]
	 SCS Same-Spin Energy      =      -0.1657548268522221 [Eh]
	 SCS Opposite-Spin Energy  =      -2.0010477449510851 [Eh]
	 SCS Correlation Energy    =      -2.1668025718033070 [Eh]
	 SCS Total Energy          =    -465.1703885130536378 [Eh]
	-----------------------------------------------------------

  Dipole Moment: [D]
     X:    -0.0372      Y:    -0.6374      Z:    -0.1958     Total:     0.6678

*** Psi4 exiting successfully. Buy a developer a beer!
