                               Psi4 1.4a3.dev225

  ==> Input File <==

--------------------------------------------------------------------------
#psi4
#
memory 32 gb

molecule  {
0 1
  O        0.0000040    -0.9323440    -0.5200900
  C       -0.7186120     1.1388030    -0.0293360
  C        0.7186000     1.1388090    -0.0293300
  C       -1.1092540    -0.1401520    -0.3350070
  C        1.0950159    -0.0935263    -0.3238547
  C       -2.4197690    -0.8327410    -0.4659430
  C        2.4197760    -0.8327180    -0.4659420
  C       -1.5881550     2.3237520     0.2504950
  C        1.5881310     2.3237650     0.2505070
  C       -2.6404590    -1.8837440     0.6266770
  C        2.6404800    -1.8837320     0.6266650
  H        3.2127060    -0.0780420    -0.4310990
  H        2.4812700    -1.3082390    -1.4528680
  H       -2.4812630    -1.3082740    -1.4528630
  H       -3.2127060    -0.0780720    -0.4311050
  H       -1.4004860     3.1330380    -0.4637010
  H       -2.6480190     2.0627510     0.1871390
  H       -1.4034730     2.7248980     1.2531230
  H        2.6479980     2.0627640     0.1871950
  H        1.4004870     3.1330370    -0.4637120
  H        1.4034130     2.7249310     1.2531200
  H        2.6185650    -1.4170920     1.6153140
  H        3.6057420    -2.3837880     0.5012060
  H        1.8526560    -2.6398250     0.5898280
  H       -1.8526300    -2.6398320     0.5898440
  H       -3.6057190    -2.3838080     0.5012310
  H       -2.6185400    -1.4170920     1.6153210
units angstrom
no_reorient  #important for SAPT in psi4, default
symmetry c1  #important for SAPT in psi4, default
}

set PROPERTIES_ORIGIN ["COM"]
properties('MP2/aug-cc-pvtz', properties = ['dipole'])
--------------------------------------------------------------------------

    Molecular point group: c1
  Charge       = 0
  Multiplicity = 1
  Basis Set: AUG-CC-PVTZ
    Blend: AUG-CC-PVTZ
  Basis Set: (AUG-CC-PVTZ AUX)
    Blend: AUG-CC-PVTZ-JKFIT

    Orbital Energies [Eh]
    ---------------------

    Doubly Occupied:

       1A    -20.594005     2A    -11.271476     3A    -11.266706
       4A    -11.231134     5A    -11.229800     6A    -11.224001
       7A    -11.222315     8A    -11.216435     9A    -11.213556
      10A    -11.212858    11A    -11.212774    12A     -1.425058
      13A     -1.103953    14A     -1.076270    15A     -1.033767
      16A     -0.993001    17A     -0.937320    18A     -0.924445
      19A     -0.867443    20A     -0.816759    21A     -0.750892
      22A     -0.719857    23A     -0.657398    24A     -0.627382
      25A     -0.610536    26A     -0.608991    27A     -0.586421
      28A     -0.578151    29A     -0.568369    30A     -0.556066
      31A     -0.552693    32A     -0.532632    33A     -0.530393
      34A     -0.525816    35A     -0.517502    36A     -0.505271
      37A     -0.492226    38A     -0.489897    39A     -0.481301
      40A     -0.468264    41A     -0.366261    42A     -0.286107

  @DF-RHF Final Energy:  -463.01264300854382

   => Energetics <=

    Nuclear Repulsion Energy =            630.2416300861868876
    One-Electron Energy =               -1878.3375391522934024
    Two-Electron Energy =                 785.0832660575626960
    Total Energy =                       -463.0126430085438187
  Basis Set: (AUG-CC-PVTZ AUX)
    Blend: AUG-CC-PVTZ-RI
    Molecular point group: c1

    Geometry (in Angstrom), charge = 0, multiplicity = 1:

       Center              X                  Y                   Z               Mass
    ------------   -----------------  -----------------  -----------------  -----------------
         O            0.001127376829    -0.934830500766    -0.497519071187    15.994914619570
         C           -0.717488623171     1.136316499234    -0.006765071187    12.000000000000
         C            0.719723376829     1.136322499234    -0.006759071187    12.000000000000
         C           -1.108130623171    -0.142638500766    -0.312436071187    12.000000000000
         C            1.096139276829    -0.096012800766    -0.301283771187    12.000000000000
         C           -2.418645623171    -0.835227500766    -0.443372071187    12.000000000000
         C            2.420899376829    -0.835204500766    -0.443371071187    12.000000000000
         C           -1.587031623171     2.321265499234     0.273065928813    12.000000000000
         C            1.589254376829     2.321278499234     0.273077928813    12.000000000000
         C           -2.639335623171    -1.886230500766     0.649247928813    12.000000000000
         C            2.641603376829    -1.886218500766     0.649235928813    12.000000000000
         H            3.213829376829    -0.080528500766    -0.408528071187     1.007825032230
         H            2.482393376829    -1.310725500766    -1.430297071187     1.007825032230
         H           -2.480139623171    -1.310760500766    -1.430292071187     1.007825032230
         H           -3.211582623171    -0.080558500766    -0.408534071187     1.007825032230
         H           -1.399362623171     3.130551499234    -0.441130071187     1.007825032230
         H           -2.646895623171     2.060264499234     0.209709928813     1.007825032230
         H           -1.402349623171     2.722411499234     1.275693928813     1.007825032230
         H            2.649121376829     2.060277499234     0.209765928813     1.007825032230
         H            1.401610376829     3.130550499234    -0.441141071187     1.007825032230
         H            1.404536376829     2.722444499234     1.275690928813     1.007825032230
         H            2.619688376829    -1.419578500766     1.637884928813     1.007825032230
         H            3.606865376829    -2.386274500766     0.523776928813     1.007825032230
         H            1.853779376829    -2.642311500766     0.612398928813     1.007825032230
         H           -1.851506623171    -2.642318500766     0.612414928813     1.007825032230
         H           -3.604595623171    -2.386294500766     0.523801928813     1.007825032230
         H           -2.617416623171    -1.419578500766     1.637891928813     1.007825032230

  Basis Set: AUG-CC-PVTZ
    Blend: AUG-CC-PVTZ
  Basis Set: (AUG-CC-PVTZ AUX)
    Blend: AUG-CC-PVTZ-JKFIT
	 Reference Energy          =    -463.0126430085438187 [Eh]
	 Singles Energy            =      -0.0000000000000000 [Eh]
	 Same-Spin Energy          =      -0.4957781083207247 [Eh]
	 Opposite-Spin Energy      =      -1.6656718783749864 [Eh]
	 Correlation Energy        =      -2.1614499866957111 [Eh]
	 Total Energy              =    -465.1740929952395049 [Eh]

	 ================> DF-SCS-MP2 Energies <==================
	-----------------------------------------------------------
	 SCS Same-Spin Scale       =       0.3333333333333333 [-]
	 SCS Opposite-Spin Scale   =       1.2000000000000000 [-]
	 SCS Same-Spin Energy      =      -0.1652593694402416 [Eh]
	 SCS Opposite-Spin Energy  =      -1.9988062540499836 [Eh]
	 SCS Correlation Energy    =      -2.1640656234902251 [Eh]
	 SCS Total Energy          =    -465.1767086320340354 [Eh]
	-----------------------------------------------------------

  Dipole Moment: [D]
     X:     0.0083      Y:     0.7236      Z:     0.2473     Total:     0.7647

*** Psi4 exiting successfully. Buy a developer a beer!
