                               Psi4 1.3.2 release

  ==> Input File <==

--------------------------------------------------------------------------
#psi4
#
memory 32 gb

molecule  {
0 1
  O        0.0428099     0.9847043     0.5028671
  C       -0.7418240    -1.0387750     0.1269710
  C        0.6883760    -1.0936210     0.0623120
  C       -1.0714850     0.2632460     0.3951280
  C        1.1400710     0.1773790     0.3033030
  C       -2.3562760     1.0018630     0.5198060
  C        2.5061102     0.7655911     0.3316982
  C       -1.6830070    -2.1819480    -0.0885940
  C        1.5125100    -2.3214750    -0.1762480
  C       -2.8486430     1.5569180    -0.8246800
  C        2.8130920     1.5744450    -0.9510270
  H        3.2336060     0.0303330     0.5193890
  H        2.5305840     1.4962520     1.1974230
  H       -2.2159340     1.8224920     1.2344330
  H       -3.1130010     0.3316860     0.9491040
  H       -1.4229750    -3.0387300     0.5441040
  H       -2.7119990    -1.8902510     0.1457090
  H       -1.6650160    -2.5262940    -1.1310850
  H        2.5139960    -2.0634500    -0.5387900
  H        1.6307130    -2.9166200     0.7385330
  H        1.0429930    -2.9642660    -0.9286680
  H        2.8128660     0.8932150    -1.8063400
  H        3.7971100     2.0487280    -0.8855010
  H        2.0638530     2.3513280    -1.1313670
  H       -2.0994070     2.2298930    -1.2537260
  H       -3.7828960     2.1123340    -0.7007770
  H       -3.0218850     0.7415120    -1.5334270
units angstrom
no_reorient  #important for SAPT in psi4, default
symmetry c1  #important for SAPT in psi4, default
}

set PROPERTIES_ORIGIN ["COM"]
properties('MP2/aug-cc-pvtz', properties = ['dipole'])
--------------------------------------------------------------------------

    Molecular point group: c1
  Charge       = 0
  Multiplicity = 1
  Basis Set: AUG-CC-PVTZ
    Blend: AUG-CC-PVTZ
  Basis Set: (AUG-CC-PVTZ AUX)
    Blend: AUG-CC-PVTZ-JKFIT

    Orbital Energies [Eh]
    ---------------------

    Doubly Occupied:

       1A    -20.600304     2A    -11.268088     3A    -11.267354
       4A    -11.231907     5A    -11.230140     6A    -11.222328
       7A    -11.220217     8A    -11.215992     9A    -11.215889
      10A    -11.214765    11A    -11.209693    12A     -1.446291
      13A     -1.096521    14A     -1.080526    15A     -1.036426
      16A     -0.988742    17A     -0.932806    18A     -0.928664
      19A     -0.871675    20A     -0.819760    21A     -0.755683
      22A     -0.719647    23A     -0.663296    24A     -0.633431
      25A     -0.613993    26A     -0.607612    27A     -0.592647
      28A     -0.581469    29A     -0.567522    30A     -0.554421
      31A     -0.548687    32A     -0.533831    33A     -0.527915
      34A     -0.522504    35A     -0.519886    36A     -0.509752
      37A     -0.496245    38A     -0.491635    39A     -0.485182
      40A     -0.462791    41A     -0.357057    42A     -0.278126

  @DF-RHF Final Energy:  -463.00953547478906

   => Energetics <=

    Nuclear Repulsion Energy =            630.6596032352318844
    One-Electron Energy =               -1879.0954376175429843
    Two-Electron Energy =                 785.4262989075218684
    Total Energy =                       -463.0095354747891179
  Basis Set: (AUG-CC-PVTZ AUX)
    Blend: AUG-CC-PVTZ-RI
    Molecular point group: c1

    Geometry (in Angstrom), charge = 0, multiplicity = 1:

       Center              X                  Y                   Z               Mass
    ------------   -----------------  -----------------  -----------------  -----------------
         O            0.044247900227     0.992320646599     0.504112731674    15.994914619570
         C           -0.740385999773    -1.031158653401     0.128216631674    12.000000000000
         C            0.689814000227    -1.086004653401     0.063557631674    12.000000000000
         C           -1.070046999773     0.270862346599     0.396373631674    12.000000000000
         C            1.141509000227     0.184995346599     0.304548631674    12.000000000000
         C           -2.354837999773     1.009479346599     0.521051631674    12.000000000000
         C            2.507548200227     0.773207446599     0.332943831674    12.000000000000
         C           -1.681568999773    -2.174331653401    -0.087348368326    12.000000000000
         C            1.513948000227    -2.313858653401    -0.175002368326    12.000000000000
         C           -2.847204999773     1.564534346599    -0.823434368326    12.000000000000
         C            2.814530000227     1.582061346599    -0.949781368326    12.000000000000
         H            3.235044000227     0.037949346599     0.520634631674     1.007825032230
         H            2.532022000227     1.503868346599     1.198668631674     1.007825032230
         H           -2.214495999773     1.830108346599     1.235678631674     1.007825032230
         H           -3.111562999773     0.339302346599     0.950349631674     1.007825032230
         H           -1.421536999773    -3.031113653401     0.545349631674     1.007825032230
         H           -2.710560999773    -1.882634653401     0.146954631674     1.007825032230
         H           -1.663577999773    -2.518677653401    -1.129839368326     1.007825032230
         H            2.515434000227    -2.055833653401    -0.537544368326     1.007825032230
         H            1.632151000227    -2.909003653401     0.739778631674     1.007825032230
         H            1.044431000227    -2.956649653401    -0.927422368326     1.007825032230
         H            2.814304000227     0.900831346599    -1.805094368326     1.007825032230
         H            3.798548000227     2.056344346599    -0.884255368326     1.007825032230
         H            2.065291000227     2.358944346599    -1.130121368326     1.007825032230
         H           -2.097968999773     2.237509346599    -1.252480368326     1.007825032230
         H           -3.781457999773     2.119950346599    -0.699531368326     1.007825032230
         H           -3.020446999773     0.749128346599    -1.532181368326     1.007825032230

  Basis Set: AUG-CC-PVTZ
    Blend: AUG-CC-PVTZ
  Basis Set: (AUG-CC-PVTZ AUX)
    Blend: AUG-CC-PVTZ-JKFIT
	 Reference Energy          =    -463.0095354747890610 [Eh]
	 Singles Energy            =      -0.0000000000000000 [Eh]
	 Same-Spin Energy          =      -0.4969589726957808 [Eh]
	 Opposite-Spin Energy      =      -1.6657001153948205 [Eh]
	 Correlation Energy        =      -2.1626590880906011 [Eh]
	 Total Energy              =    -465.1721945628796675 [Eh]

	 ================> DF-SCS-MP2 Energies <==================
	-----------------------------------------------------------
	 SCS Same-Spin Scale       =       0.3333333333333333 [-]
	 SCS Opposite-Spin Scale   =       1.2000000000000000 [-]
	 SCS Same-Spin Energy      =      -0.1656529908985936 [Eh]
	 SCS Opposite-Spin Energy  =      -1.9988401384737846 [Eh]
	 SCS Correlation Energy    =      -2.1644931293723784 [Eh]
	 SCS Total Energy          =    -465.1740286041614354 [Eh]
	-----------------------------------------------------------

  Dipole Moment: [D]
     X:     0.0785      Y:    -0.5106      Z:    -0.1974     Total:     0.5530

*** Psi4 exiting successfully. Buy a developer a beer!
