                               Psi4 1.4a3.dev225

  ==> Input File <==

--------------------------------------------------------------------------
#psi4
#
memory 32 gb

molecule  {
0 1
  O        0.0000040    -0.9323440    -0.5200900
  C       -0.7186120     1.1388030    -0.0293360
  C        0.7186000     1.1388090    -0.0293300
  C       -1.1092540    -0.1401520    -0.3350070
  C        1.1092550    -0.1401430    -0.3349960
  C       -2.4197690    -0.8327410    -0.4659430
  C        2.4197760    -0.8327180    -0.4659420
  C       -1.5881550     2.3237520     0.2504950
  C        1.5997545     2.3396049     0.2542477
  C       -2.6404590    -1.8837440     0.6266770
  C        2.6404800    -1.8837320     0.6266650
  H        3.2127060    -0.0780420    -0.4310990
  H        2.4812700    -1.3082390    -1.4528680
  H       -2.4812630    -1.3082740    -1.4528630
  H       -3.2127060    -0.0780720    -0.4311050
  H       -1.4004860     3.1330380    -0.4637010
  H       -2.6480190     2.0627510     0.1871390
  H       -1.4034730     2.7248980     1.2531230
  H        2.6479980     2.0627640     0.1871950
  H        1.4004870     3.1330370    -0.4637120
  H        1.4034130     2.7249310     1.2531200
  H        2.6185650    -1.4170920     1.6153140
  H        3.6057420    -2.3837880     0.5012060
  H        1.8526560    -2.6398250     0.5898280
  H       -1.8526300    -2.6398320     0.5898440
  H       -3.6057190    -2.3838080     0.5012310
  H       -2.6185400    -1.4170920     1.6153210
units angstrom
no_reorient  #important for SAPT in psi4, default
symmetry c1  #important for SAPT in psi4, default
}

set PROPERTIES_ORIGIN ["COM"]
properties('MP2/aug-cc-pvtz', properties = ['dipole'])
--------------------------------------------------------------------------

    Molecular point group: c1
  Charge       = 0
  Multiplicity = 1
  Basis Set: AUG-CC-PVTZ
    Blend: AUG-CC-PVTZ
  Basis Set: (AUG-CC-PVTZ AUX)
    Blend: AUG-CC-PVTZ-JKFIT

    Orbital Energies [Eh]
    ---------------------

    Doubly Occupied:

       1A    -20.597274     2A    -11.270855     3A    -11.270785
       4A    -11.229949     5A    -11.229922     6A    -11.222469
       7A    -11.221988     8A    -11.218043     9A    -11.216740
      10A    -11.213424    11A    -11.213417    12A     -1.430535
      13A     -1.096416    14A     -1.079113    15A     -1.036666
      16A     -0.989971    17A     -0.933327    18A     -0.926725
      19A     -0.870037    20A     -0.816231    21A     -0.751290
      22A     -0.718532    23A     -0.659238    24A     -0.628124
      25A     -0.611471    26A     -0.610168    27A     -0.585888
      28A     -0.581780    29A     -0.570111    30A     -0.556682
      31A     -0.552829    32A     -0.533491    33A     -0.531113
      34A     -0.523050    35A     -0.516568    36A     -0.505725
      37A     -0.492614    38A     -0.491261    39A     -0.484722
      40A     -0.467488    41A     -0.360891    42A     -0.280140

  @DF-RHF Final Energy:  -463.01389893194346

   => Energetics <=

    Nuclear Repulsion Energy =            629.5955256214165274
    One-Electron Energy =               -1877.0247207699585488
    Two-Electron Energy =                 784.4152962165985628
    Total Energy =                       -463.0138989319434586
  Basis Set: (AUG-CC-PVTZ AUX)
    Blend: AUG-CC-PVTZ-RI
    Molecular point group: c1

    Geometry (in Angstrom), charge = 0, multiplicity = 1:

       Center              X                  Y                   Z               Mass
    ------------   -----------------  -----------------  -----------------  -----------------
         O           -0.000912795174    -0.932402671944    -0.496935274626    15.994914619570
         C           -0.719528795174     1.138744328056    -0.006181274626    12.000000000000
         C            0.717683204826     1.138750328056    -0.006175274626    12.000000000000
         C           -1.110170795174    -0.140210671944    -0.311852274626    12.000000000000
         C            1.108338204826    -0.140201671944    -0.311841274626    12.000000000000
         C           -2.420685795174    -0.832799671944    -0.442788274626    12.000000000000
         C            2.418859204826    -0.832776671944    -0.442787274626    12.000000000000
         C           -1.589071795174     2.323693328056     0.273649725374    12.000000000000
         C            1.598837704826     2.339546228056     0.277402425374    12.000000000000
         C           -2.641375795174    -1.883802671944     0.649831725374    12.000000000000
         C            2.639563204826    -1.883790671944     0.649819725374    12.000000000000
         H            3.211789204826    -0.078100671944    -0.407944274626     1.007825032230
         H            2.480353204826    -1.308297671944    -1.429713274626     1.007825032230
         H           -2.482179795174    -1.308332671944    -1.429708274626     1.007825032230
         H           -3.213622795174    -0.078130671944    -0.407950274626     1.007825032230
         H           -1.401402795174     3.132979328056    -0.440546274626     1.007825032230
         H           -2.648935795174     2.062692328056     0.210293725374     1.007825032230
         H           -1.404389795174     2.724839328056     1.276277725374     1.007825032230
         H            2.647081204826     2.062705328056     0.210349725374     1.007825032230
         H            1.399570204826     3.132978328056    -0.440557274626     1.007825032230
         H            1.402496204826     2.724872328056     1.276274725374     1.007825032230
         H            2.617648204826    -1.417150671944     1.638468725374     1.007825032230
         H            3.604825204826    -2.383846671944     0.524360725374     1.007825032230
         H            1.851739204826    -2.639883671944     0.612982725374     1.007825032230
         H           -1.853546795174    -2.639890671944     0.612998725374     1.007825032230
         H           -3.606635795174    -2.383866671944     0.524385725374     1.007825032230
         H           -2.619456795174    -1.417150671944     1.638475725374     1.007825032230

  Basis Set: AUG-CC-PVTZ
    Blend: AUG-CC-PVTZ
  Basis Set: (AUG-CC-PVTZ AUX)
    Blend: AUG-CC-PVTZ-JKFIT
	 Reference Energy          =    -463.0138989319434586 [Eh]
	 Singles Energy            =      -0.0000000000000000 [Eh]
	 Same-Spin Energy          =      -0.4967178185330693 [Eh]
	 Opposite-Spin Energy      =      -1.6665871457540169 [Eh]
	 Correlation Energy        =      -2.1633049642870863 [Eh]
	 Total Energy              =    -465.1772038962305373 [Eh]

	 ================> DF-SCS-MP2 Energies <==================
	-----------------------------------------------------------
	 SCS Same-Spin Scale       =       0.3333333333333333 [-]
	 SCS Opposite-Spin Scale   =       1.2000000000000000 [-]
	 SCS Same-Spin Energy      =      -0.1655726061776898 [Eh]
	 SCS Opposite-Spin Energy  =      -1.9999045749048201 [Eh]
	 SCS Correlation Energy    =      -2.1654771810825100 [Eh]
	 SCS Total Energy          =    -465.1793761130259668 [Eh]
	-----------------------------------------------------------

  Dipole Moment: [D]
     X:     0.0033      Y:     0.6477      Z:     0.2267     Total:     0.6862

*** Psi4 exiting successfully. Buy a developer a beer!
