                               Psi4 1.3.2 release

  ==> Input File <==

--------------------------------------------------------------------------
#psi4
#
memory 32 gb

molecule  {
0 1
  O        0.0723890     1.0222580     0.5077940
  C       -0.7418240    -1.0387750     0.1269710
  C        0.6870504    -1.0970192     0.0748645
  C       -1.0714850     0.2632460     0.3951280
  C        1.1400710     0.1773790     0.3033030
  C       -2.3562760     1.0018630     0.5198060
  C        2.4849120     0.8120840     0.3409220
  C       -1.6830070    -2.1819480    -0.0885940
  C        1.5125100    -2.3214750    -0.1762480
  C       -2.8486430     1.5569180    -0.8246800
  C        2.8130920     1.5744450    -0.9510270
  H        3.2336060     0.0303330     0.5193890
  H        2.5305840     1.4962520     1.1974230
  H       -2.2159340     1.8224920     1.2344330
  H       -3.1130010     0.3316860     0.9491040
  H       -1.4229750    -3.0387300     0.5441040
  H       -2.7119990    -1.8902510     0.1457090
  H       -1.6650160    -2.5262940    -1.1310850
  H        2.5139960    -2.0634500    -0.5387900
  H        1.6254452    -2.9102163     0.7433297
  H        1.0429930    -2.9642660    -0.9286680
  H        2.8128660     0.8932150    -1.8063400
  H        3.7971100     2.0487280    -0.8855010
  H        2.0638530     2.3513280    -1.1313670
  H       -2.0994070     2.2298930    -1.2537260
  H       -3.7828960     2.1123340    -0.7007770
  H       -3.0218850     0.7415120    -1.5334270
units angstrom
no_reorient  #important for SAPT in psi4, default
symmetry c1  #important for SAPT in psi4, default
}

set PROPERTIES_ORIGIN ["COM"]
properties('MP2/aug-cc-pvtz', properties = ['dipole'])
--------------------------------------------------------------------------

    Molecular point group: c1
  Charge       = 0
  Multiplicity = 1
  Basis Set: AUG-CC-PVTZ
    Blend: AUG-CC-PVTZ
  Basis Set: (AUG-CC-PVTZ AUX)
    Blend: AUG-CC-PVTZ-JKFIT

    Orbital Energies [Eh]
    ---------------------

    Doubly Occupied:

       1A    -20.598639     2A    -11.269579     3A    -11.269385
       4A    -11.230104     5A    -11.229974     6A    -11.223208
       7A    -11.222923     8A    -11.216202     9A    -11.215464
      10A    -11.215074    11A    -11.214649    12A     -1.429643
      13A     -1.098934    14A     -1.078767    15A     -1.036216
      16A     -0.990085    17A     -0.932327    18A     -0.927529
      19A     -0.870147    20A     -0.815405    21A     -0.749177
      22A     -0.721967    23A     -0.657899    24A     -0.627396
      25A     -0.611037    26A     -0.609636    27A     -0.586795
      28A     -0.583683    29A     -0.568130    30A     -0.555994
      31A     -0.549773    32A     -0.533555    33A     -0.527908
      34A     -0.523799    35A     -0.521060    36A     -0.505311
      37A     -0.495251    38A     -0.492433    39A     -0.483816
      40A     -0.467463    41A     -0.360757    42A     -0.278570

  @DF-RHF Final Energy:  -463.01187512309144

   => Energetics <=

    Nuclear Repulsion Energy =            629.5798193282382726
    One-Electron Energy =               -1876.9920529176824857
    Two-Electron Energy =                 784.4003584663527135
    Total Energy =                       -463.0118751230914995
  Basis Set: (AUG-CC-PVTZ AUX)
    Blend: AUG-CC-PVTZ-RI
    Molecular point group: c1

    Geometry (in Angstrom), charge = 0, multiplicity = 1:

       Center              X                  Y                   Z               Mass
    ------------   -----------------  -----------------  -----------------  -----------------
         O            0.072528548947     1.022483749811     0.506771981673    15.994914619570
         C           -0.741684451053    -1.038549250189     0.125948981673    12.000000000000
         C            0.687189948947    -1.096793450189     0.073842481673    12.000000000000
         C           -1.071345451053     0.263471749811     0.394105981673    12.000000000000
         C            1.140210548947     0.177604749811     0.302280981673    12.000000000000
         C           -2.356136451053     1.002088749811     0.518783981673    12.000000000000
         C            2.485051548947     0.812309749811     0.339899981673    12.000000000000
         C           -1.682867451053    -2.181722250189    -0.089616018327    12.000000000000
         C            1.512649548947    -2.321249250189    -0.177270018327    12.000000000000
         C           -2.848503451053     1.557143749811    -0.825702018327    12.000000000000
         C            2.813231548947     1.574670749811    -0.952049018327    12.000000000000
         H            3.233745548947     0.030558749811     0.518366981673     1.007825032230
         H            2.530723548947     1.496477749811     1.196400981673     1.007825032230
         H           -2.215794451053     1.822717749811     1.233410981673     1.007825032230
         H           -3.112861451053     0.331911749811     0.948081981673     1.007825032230
         H           -1.422835451053    -3.038504250189     0.543081981673     1.007825032230
         H           -2.711859451053    -1.890025250189     0.144686981673     1.007825032230
         H           -1.664876451053    -2.526068250189    -1.132107018327     1.007825032230
         H            2.514135548947    -2.063224250189    -0.539812018327     1.007825032230
         H            1.625584748947    -2.909990550189     0.742307681673     1.007825032230
         H            1.043132548947    -2.964040250189    -0.929690018327     1.007825032230
         H            2.813005548947     0.893440749811    -1.807362018327     1.007825032230
         H            3.797249548947     2.048953749811    -0.886523018327     1.007825032230
         H            2.063992548947     2.351553749811    -1.132389018327     1.007825032230
         H           -2.099267451053     2.230118749811    -1.254748018327     1.007825032230
         H           -3.782756451053     2.112559749811    -0.701799018327     1.007825032230
         H           -3.021745451053     0.741737749811    -1.534449018327     1.007825032230

  Basis Set: AUG-CC-PVTZ
    Blend: AUG-CC-PVTZ
  Basis Set: (AUG-CC-PVTZ AUX)
    Blend: AUG-CC-PVTZ-JKFIT
	 Reference Energy          =    -463.0118751230914427 [Eh]
	 Singles Energy            =      -0.0000000000000000 [Eh]
	 Same-Spin Energy          =      -0.4971502510681841 [Eh]
	 Opposite-Spin Energy      =      -1.6672008255256894 [Eh]
	 Correlation Energy        =      -2.1643510765938734 [Eh]
	 Total Energy              =    -465.1762261996852885 [Eh]

	 ================> DF-SCS-MP2 Energies <==================
	-----------------------------------------------------------
	 SCS Same-Spin Scale       =       0.3333333333333333 [-]
	 SCS Opposite-Spin Scale   =       1.2000000000000000 [-]
	 SCS Same-Spin Energy      =      -0.1657167503560614 [Eh]
	 SCS Opposite-Spin Energy  =      -2.0006409906308273 [Eh]
	 SCS Correlation Energy    =      -2.1663577409868888 [Eh]
	 SCS Total Energy          =    -465.1782328640783248 [Eh]
	-----------------------------------------------------------

  Dipole Moment: [D]
     X:    -0.0299      Y:    -0.6545      Z:    -0.2243     Total:     0.6925

*** Psi4 exiting successfully. Buy a developer a beer!
