                               Psi4 1.3.2 release

  ==> Input File <==

--------------------------------------------------------------------------
#psi4
#
memory 32 gb

molecule  {
0 1
  O        0.0723890     1.0222580     0.5077940
  C       -0.7418240    -1.0387750     0.1269710
  C        0.6883760    -1.0936210     0.0623120
  C       -1.0714850     0.2632460     0.3951280
  C        1.0741415    -0.0081365     0.2681279
  C       -2.3562760     1.0018630     0.5198060
  C        2.4849120     0.8120840     0.3409220
  C       -1.6830070    -2.1819480    -0.0885940
  C        1.5125100    -2.3214750    -0.1762480
  C       -2.8486430     1.5569180    -0.8246800
  C        2.8130920     1.5744450    -0.9510270
  H        3.2336060     0.0303330     0.5193890
  H        2.5305840     1.4962520     1.1974230
  H       -2.2159340     1.8224920     1.2344330
  H       -3.1130010     0.3316860     0.9491040
  H       -1.4229750    -3.0387300     0.5441040
  H       -2.7119990    -1.8902510     0.1457090
  H       -1.6650160    -2.5262940    -1.1310850
  H        2.5139960    -2.0634500    -0.5387900
  H        1.6307130    -2.9166200     0.7385330
  H        1.0429930    -2.9642660    -0.9286680
  H        2.8128660     0.8932150    -1.8063400
  H        3.7971100     2.0487280    -0.8855010
  H        2.0638530     2.3513280    -1.1313670
  H       -2.0994070     2.2298930    -1.2537260
  H       -3.7828960     2.1123340    -0.7007770
  H       -3.0218850     0.7415120    -1.5334270
units angstrom
no_reorient  #important for SAPT in psi4, default
symmetry c1  #important for SAPT in psi4, default
}

set PROPERTIES_ORIGIN ["COM"]
properties('MP2/aug-cc-pvtz', properties = ['dipole'])
--------------------------------------------------------------------------

    Molecular point group: c1
  Charge       = 0
  Multiplicity = 1
  Basis Set: AUG-CC-PVTZ
    Blend: AUG-CC-PVTZ
  Basis Set: (AUG-CC-PVTZ AUX)
    Blend: AUG-CC-PVTZ-JKFIT

    Orbital Energies [Eh]
    ---------------------

    Doubly Occupied:

       1A    -20.584233     2A    -11.271341     3A    -11.252315
       4A    -11.234791     5A    -11.229297     6A    -11.229074
       7A    -11.222615     8A    -11.215852     9A    -11.213597
      10A    -11.212534    11A    -11.194982    12A     -1.406209
      13A     -1.134144    14A     -1.069760    15A     -1.024488
      16A     -0.997842    17A     -0.951222    18A     -0.917471
      19A     -0.859886    20A     -0.822219    21A     -0.740670
      22A     -0.720275    23A     -0.652375    24A     -0.627452
      25A     -0.606950    26A     -0.604308    27A     -0.587442
      28A     -0.574883    29A     -0.565994    30A     -0.557582
      31A     -0.551535    32A     -0.537511    33A     -0.533166
      34A     -0.521986    35A     -0.514897    36A     -0.502788
      37A     -0.492506    38A     -0.487943    39A     -0.478228
      40A     -0.445878    41A     -0.394366    42A     -0.296357

  @DF-RHF Final Energy:  -462.94838359235825

   => Energetics <=

    Nuclear Repulsion Energy =            631.0295493726606537
    One-Electron Energy =               -1879.8779307976737982
    Two-Electron Energy =                 785.8999978326547762
    Total Energy =                       -462.9483835923582546
  Basis Set: (AUG-CC-PVTZ AUX)
    Blend: AUG-CC-PVTZ-RI
    Molecular point group: c1

    Geometry (in Angstrom), charge = 0, multiplicity = 1:

       Center              X                  Y                   Z               Mass
    ------------   -----------------  -----------------  -----------------  -----------------
         O            0.077589929413     1.036892504414     0.510568753940    15.994914619570
         C           -0.736623070587    -1.024140495586     0.129745753940    12.000000000000
         C            0.693576929413    -1.078986495586     0.065086753940    12.000000000000
         C           -1.066284070587     0.277880504414     0.397902753940    12.000000000000
         C            1.079342429413     0.006498004414     0.270902653940    12.000000000000
         C           -2.351075070587     1.016497504414     0.522580753940    12.000000000000
         C            2.490112929413     0.826718504414     0.343696753940    12.000000000000
         C           -1.677806070587    -2.167313495586    -0.085819246060    12.000000000000
         C            1.517710929413    -2.306840495586    -0.173473246060    12.000000000000
         C           -2.843442070587     1.571552504414    -0.821905246060    12.000000000000
         C            2.818292929413     1.589079504414    -0.948252246060    12.000000000000
         H            3.238806929413     0.044967504414     0.522163753940     1.007825032230
         H            2.535784929413     1.510886504414     1.200197753940     1.007825032230
         H           -2.210733070587     1.837126504414     1.237207753940     1.007825032230
         H           -3.107800070587     0.346320504414     0.951878753940     1.007825032230
         H           -1.417774070587    -3.024095495586     0.546878753940     1.007825032230
         H           -2.706798070587    -1.875616495586     0.148483753940     1.007825032230
         H           -1.659815070587    -2.511659495586    -1.128310246060     1.007825032230
         H            2.519196929413    -2.048815495586    -0.536015246060     1.007825032230
         H            1.635913929413    -2.901985495586     0.741307753940     1.007825032230
         H            1.048193929413    -2.949631495586    -0.925893246060     1.007825032230
         H            2.818066929413     0.907849504414    -1.803565246060     1.007825032230
         H            3.802310929413     2.063362504414    -0.882726246060     1.007825032230
         H            2.069053929413     2.365962504414    -1.128592246060     1.007825032230
         H           -2.094206070587     2.244527504414    -1.250951246060     1.007825032230
         H           -3.777695070587     2.126968504414    -0.698002246060     1.007825032230
         H           -3.016684070587     0.756146504414    -1.530652246060     1.007825032230

  Basis Set: AUG-CC-PVTZ
    Blend: AUG-CC-PVTZ
  Basis Set: (AUG-CC-PVTZ AUX)
    Blend: AUG-CC-PVTZ-JKFIT
	 Reference Energy          =    -462.9483835923582546 [Eh]
	 Singles Energy            =      -0.0000000000000000 [Eh]
	 Same-Spin Energy          =      -0.4942755784582139 [Eh]
	 Opposite-Spin Energy      =      -1.6654940567639334 [Eh]
	 Correlation Energy        =      -2.1597696352221472 [Eh]
	 Total Energy              =    -465.1081532275803738 [Eh]

	 ================> DF-SCS-MP2 Energies <==================
	-----------------------------------------------------------
	 SCS Same-Spin Scale       =       0.3333333333333333 [-]
	 SCS Opposite-Spin Scale   =       1.2000000000000000 [-]
	 SCS Same-Spin Energy      =      -0.1647585261527379 [Eh]
	 SCS Opposite-Spin Energy  =      -1.9985928681167200 [Eh]
	 SCS Correlation Energy    =      -2.1633513942694580 [Eh]
	 SCS Total Energy          =    -465.1117349866277095 [Eh]
	-----------------------------------------------------------

  Dipole Moment: [D]
     X:    -0.0165      Y:    -1.0155      Z:    -0.3008     Total:     1.0593

*** Psi4 exiting successfully. Buy a developer a beer!
