                               Psi4 1.3.2 release

  ==> Input File <==

--------------------------------------------------------------------------
#psi4
#
memory 32 gb

molecule  {
0 1
  O        0.0723890     1.0222580     0.5077940
  C       -0.7427679    -1.0632702     0.1220360
  C        0.6883760    -1.0936210     0.0623120
  C       -1.0714850     0.2632460     0.3951280
  C        1.1625624     0.1696191     0.3008866
  C       -2.3562760     1.0018630     0.5198060
  C        2.4849120     0.8120840     0.3409220
  C       -1.6830070    -2.1819480    -0.0885940
  C        1.5125100    -2.3214750    -0.1762480
  C       -2.8486430     1.5569180    -0.8246800
  C        2.8130920     1.5744450    -0.9510270
  H        3.2336060     0.0303330     0.5193890
  H        2.5305840     1.4962520     1.1974230
  H       -2.2159340     1.8224920     1.2344330
  H       -3.1130010     0.3316860     0.9491040
  H       -1.4229750    -3.0387300     0.5441040
  H       -2.7119990    -1.8902510     0.1457090
  H       -1.6650160    -2.5262940    -1.1310850
  H        2.5139960    -2.0634500    -0.5387900
  H        1.6307130    -2.9166200     0.7385330
  H        1.0429930    -2.9642660    -0.9286680
  H        2.8128660     0.8932150    -1.8063400
  H        3.7971100     2.0487280    -0.8855010
  H        2.0638530     2.3513280    -1.1313670
  H       -2.0994070     2.2298930    -1.2537260
  H       -3.7828960     2.1123340    -0.7007770
  H       -3.0218850     0.7415120    -1.5334270
units angstrom
no_reorient  #important for SAPT in psi4, default
symmetry c1  #important for SAPT in psi4, default
}

set PROPERTIES_ORIGIN ["COM"]
properties('MP2/aug-cc-pvtz', properties = ['dipole'])
--------------------------------------------------------------------------

    Molecular point group: c1
  Charge       = 0
  Multiplicity = 1
  Basis Set: AUG-CC-PVTZ
    Blend: AUG-CC-PVTZ
  Basis Set: (AUG-CC-PVTZ AUX)
    Blend: AUG-CC-PVTZ-JKFIT

    Orbital Energies [Eh]
    ---------------------

    Doubly Occupied:

       1A    -20.596969     2A    -11.274137     3A    -11.268920
       4A    -11.230389     5A    -11.229716     6A    -11.222440
       7A    -11.222294     8A    -11.218540     9A    -11.216755
      10A    -11.215775    11A    -11.214757    12A     -1.420587
      13A     -1.098545    14A     -1.079699    15A     -1.037553
      16A     -0.992104    17A     -0.930676    18A     -0.926337
      19A     -0.871560    20A     -0.814642    21A     -0.744841
      22A     -0.722404    23A     -0.656367    24A     -0.624002
      25A     -0.612527    26A     -0.610409    27A     -0.587430
      28A     -0.583805    29A     -0.567831    30A     -0.556474
      31A     -0.551651    32A     -0.533920    33A     -0.527848
      34A     -0.522903    35A     -0.520868    36A     -0.504991
      37A     -0.495736    38A     -0.494269    39A     -0.483150
      40A     -0.467501    41A     -0.358973    42A     -0.276061

  @DF-RHF Final Energy:  -463.00776228313771

   => Energetics <=

    Nuclear Repulsion Energy =            629.0063411251888965
    One-Electron Energy =               -1875.8554906378285523
    Two-Electron Energy =                 783.8413872295018336
    Total Energy =                       -463.0077622831377084
  Basis Set: (AUG-CC-PVTZ AUX)
    Blend: AUG-CC-PVTZ-RI
    Molecular point group: c1

    Geometry (in Angstrom), charge = 0, multiplicity = 1:

       Center              X                  Y                   Z               Mass
    ------------   -----------------  -----------------  -----------------  -----------------
         O            0.070689303555     1.024802553007     0.508373880502    15.994914619570
         C           -0.744467596445    -1.060725646993     0.122615880502    12.000000000000
         C            0.686676303555    -1.091076446993     0.062891880502    12.000000000000
         C           -1.073184696445     0.265790553007     0.395707880502    12.000000000000
         C            1.160862703555     0.172163653007     0.301466480502    12.000000000000
         C           -2.357975696445     1.004407553007     0.520385880502    12.000000000000
         C            2.483212303555     0.814628553007     0.341501880502    12.000000000000
         C           -1.684706696445    -2.179403446993    -0.088014119498    12.000000000000
         C            1.510810303555    -2.318930446993    -0.175668119498    12.000000000000
         C           -2.850342696445     1.559462553007    -0.824100119498    12.000000000000
         C            2.811392303555     1.576989553007    -0.950447119498    12.000000000000
         H            3.231906303555     0.032877553007     0.519968880502     1.007825032230
         H            2.528884303555     1.498796553007     1.198002880502     1.007825032230
         H           -2.217633696445     1.825036553007     1.235012880502     1.007825032230
         H           -3.114700696445     0.334230553007     0.949683880502     1.007825032230
         H           -1.424674696445    -3.036185446993     0.544683880502     1.007825032230
         H           -2.713698696445    -1.887706446993     0.146288880502     1.007825032230
         H           -1.666715696445    -2.523749446993    -1.130505119498     1.007825032230
         H            2.512296303555    -2.060905446993    -0.538210119498     1.007825032230
         H            1.629013303555    -2.914075446993     0.739112880502     1.007825032230
         H            1.041293303555    -2.961721446993    -0.928088119498     1.007825032230
         H            2.811166303555     0.895759553007    -1.805760119498     1.007825032230
         H            3.795410303555     2.051272553007    -0.884921119498     1.007825032230
         H            2.062153303555     2.353872553007    -1.130787119498     1.007825032230
         H           -2.101106696445     2.232437553007    -1.253146119498     1.007825032230
         H           -3.784595696445     2.114878553007    -0.700197119498     1.007825032230
         H           -3.023584696445     0.744056553007    -1.532847119498     1.007825032230

  Basis Set: AUG-CC-PVTZ
    Blend: AUG-CC-PVTZ
  Basis Set: (AUG-CC-PVTZ AUX)
    Blend: AUG-CC-PVTZ-JKFIT
	 Reference Energy          =    -463.0077622831377084 [Eh]
	 Singles Energy            =      -0.0000000000000000 [Eh]
	 Same-Spin Energy          =      -0.4980291692607027 [Eh]
	 Opposite-Spin Energy      =      -1.6687455574044177 [Eh]
	 Correlation Energy        =      -2.1667747266651203 [Eh]
	 Total Energy              =    -465.1745370098028047 [Eh]

	 ================> DF-SCS-MP2 Energies <==================
	-----------------------------------------------------------
	 SCS Same-Spin Scale       =       0.3333333333333333 [-]
	 SCS Opposite-Spin Scale   =       1.2000000000000000 [-]
	 SCS Same-Spin Energy      =      -0.1660097230869009 [Eh]
	 SCS Opposite-Spin Energy  =      -2.0024946688853009 [Eh]
	 SCS Correlation Energy    =      -2.1685043919722018 [Eh]
	 SCS Total Energy          =    -465.1762666751099005 [Eh]
	-----------------------------------------------------------

  Dipole Moment: [D]
     X:    -0.0058      Y:    -0.6631      Z:    -0.2230     Total:     0.6996

*** Psi4 exiting successfully. Buy a developer a beer!
