                               Psi4 1.3.2 release

  ==> Input File <==

--------------------------------------------------------------------------
#psi4
#
memory 32 gb

molecule  {
0 1
  O        0.0723890     1.0222580     0.5077940
  C       -0.7418240    -1.0387750     0.1269710
  C        0.6883760    -1.0936210     0.0623120
  C       -1.0714850     0.2632460     0.3951280
  C        1.2071554     0.1524747     0.2982346
  C       -2.3562760     1.0018630     0.5198060
  C        2.4849120     0.8120840     0.3409220
  C       -1.6830070    -2.1819480    -0.0885940
  C        1.5768422    -2.2773726    -0.1681078
  C       -2.8486430     1.5569180    -0.8246800
  C        2.8130920     1.5744450    -0.9510270
  H        3.2336060     0.0303330     0.5193890
  H        2.5305840     1.4962520     1.1974230
  H       -2.2159340     1.8224920     1.2344330
  H       -3.1130010     0.3316860     0.9491040
  H       -1.4229750    -3.0387300     0.5441040
  H       -2.7119990    -1.8902510     0.1457090
  H       -1.6650160    -2.5262940    -1.1310850
  H        2.5139960    -2.0634500    -0.5387900
  H        1.6307130    -2.9166200     0.7385330
  H        1.0429930    -2.9642660    -0.9286680
  H        2.8128660     0.8932150    -1.8063400
  H        3.7971100     2.0487280    -0.8855010
  H        2.0638530     2.3513280    -1.1313670
  H       -2.0994070     2.2298930    -1.2537260
  H       -3.7828960     2.1123340    -0.7007770
  H       -3.0218850     0.7415120    -1.5334270
units angstrom
no_reorient  #important for SAPT in psi4, default
symmetry c1  #important for SAPT in psi4, default
}

set PROPERTIES_ORIGIN ["COM"]
properties('MP2/aug-cc-pvtz', properties = ['dipole'])
--------------------------------------------------------------------------

    Molecular point group: c1
  Charge       = 0
  Multiplicity = 1
  Basis Set: AUG-CC-PVTZ
    Blend: AUG-CC-PVTZ
  Basis Set: (AUG-CC-PVTZ AUX)
    Blend: AUG-CC-PVTZ-JKFIT

    Orbital Energies [Eh]
    ---------------------

    Doubly Occupied:

       1A    -20.587599     2A    -11.273346     3A    -11.268100
       4A    -11.230749     5A    -11.229343     6A    -11.223973
       7A    -11.223000     8A    -11.222189     9A    -11.216202
      10A    -11.215642    11A    -11.215326    12A     -1.403231
      13A     -1.098456    14A     -1.083140    15A     -1.039733
      16A     -0.993059    17A     -0.929384    18A     -0.924784
      19A     -0.874921    20A     -0.817396    21A     -0.737665
      22A     -0.724196    23A     -0.654087    24A     -0.619037
      25A     -0.615375    26A     -0.610555    27A     -0.591892
      28A     -0.582932    29A     -0.564903    30A     -0.560737
      31A     -0.545973    32A     -0.534952    33A     -0.525665
      34A     -0.520518    35A     -0.511305    36A     -0.502475
      37A     -0.497696    38A     -0.496214    39A     -0.482321
      40A     -0.471954    41A     -0.359455    42A     -0.279223

  @DF-RHF Final Energy:  -462.99657923357313

   => Energetics <=

    Nuclear Repulsion Energy =            628.8348065626752259
    One-Electron Energy =               -1875.5453662373354291
    Two-Electron Energy =                 783.7139804410869601
    Total Energy =                       -462.9965792335731294
  Basis Set: (AUG-CC-PVTZ AUX)
    Blend: AUG-CC-PVTZ-RI
    Molecular point group: c1

    Geometry (in Angstrom), charge = 0, multiplicity = 1:

       Center              X                  Y                   Z               Mass
    ------------   -----------------  -----------------  -----------------  -----------------
         O            0.062022276195     1.020743665730     0.507551646047    15.994914619570
         C           -0.752190723805    -1.040289334270     0.126728646047    12.000000000000
         C            0.678009276195    -1.095135334270     0.062069646047    12.000000000000
         C           -1.081851723805     0.261731665730     0.394885646047    12.000000000000
         C            1.196788676195     0.150960365730     0.297992246047    12.000000000000
         C           -2.366642723805     1.000348665730     0.519563646047    12.000000000000
         C            2.474545276195     0.810569665730     0.340679646047    12.000000000000
         C           -1.693373723805    -2.183462334270    -0.088836353953    12.000000000000
         C            1.566475476195    -2.278886934270    -0.168350153953    12.000000000000
         C           -2.859009723805     1.555403665730    -0.824922353953    12.000000000000
         C            2.802725276195     1.572930665730    -0.951269353953    12.000000000000
         H            3.223239276195     0.028818665730     0.519146646047     1.007825032230
         H            2.520217276195     1.494737665730     1.197180646047     1.007825032230
         H           -2.226300723805     1.820977665730     1.234190646047     1.007825032230
         H           -3.123367723805     0.330171665730     0.948861646047     1.007825032230
         H           -1.433341723805    -3.040244334270     0.543861646047     1.007825032230
         H           -2.722365723805    -1.891765334270     0.145466646047     1.007825032230
         H           -1.675382723805    -2.527808334270    -1.131327353953     1.007825032230
         H            2.503629276195    -2.064964334270    -0.539032353953     1.007825032230
         H            1.620346276195    -2.918134334270     0.738290646047     1.007825032230
         H            1.032626276195    -2.965780334270    -0.928910353953     1.007825032230
         H            2.802499276195     0.891700665730    -1.806582353953     1.007825032230
         H            3.786743276195     2.047213665730    -0.885743353953     1.007825032230
         H            2.053486276195     2.349813665730    -1.131609353953     1.007825032230
         H           -2.109773723805     2.228378665730    -1.253968353953     1.007825032230
         H           -3.793262723805     2.110819665730    -0.701019353953     1.007825032230
         H           -3.032251723805     0.739997665730    -1.533669353953     1.007825032230

  Basis Set: AUG-CC-PVTZ
    Blend: AUG-CC-PVTZ
  Basis Set: (AUG-CC-PVTZ AUX)
    Blend: AUG-CC-PVTZ-JKFIT
	 Reference Energy          =    -462.9965792335731294 [Eh]
	 Singles Energy            =      -0.0000000000000000 [Eh]
	 Same-Spin Energy          =      -0.4981032170910716 [Eh]
	 Opposite-Spin Energy      =      -1.6695476684168957 [Eh]
	 Correlation Energy        =      -2.1676508855079675 [Eh]
	 Total Energy              =    -465.1642301190810826 [Eh]

	 ================> DF-SCS-MP2 Energies <==================
	-----------------------------------------------------------
	 SCS Same-Spin Scale       =       0.3333333333333333 [-]
	 SCS Opposite-Spin Scale   =       1.2000000000000000 [-]
	 SCS Same-Spin Energy      =      -0.1660344056970239 [Eh]
	 SCS Opposite-Spin Energy  =      -2.0034572021002748 [Eh]
	 SCS Correlation Energy    =      -2.1694916077972985 [Eh]
	 SCS Total Energy          =    -465.1660708413704128 [Eh]
	-----------------------------------------------------------

  Dipole Moment: [D]
     X:     0.0903      Y:    -0.6479      Z:    -0.2334     Total:     0.6946

*** Psi4 exiting successfully. Buy a developer a beer!
