                               Psi4 1.3.2 release

  ==> Input File <==

--------------------------------------------------------------------------
#psi4
#
memory 32 gb

molecule  {
0 1
  O        0.0723890     1.0222580     0.5077940
  C       -0.7432537    -1.1127386     0.1145800
  C        0.6883760    -1.0936210     0.0623120
  C       -1.0714850     0.2632460     0.3951280
  C        1.1400710     0.1773790     0.3033030
  C       -2.3562760     1.0018630     0.5198060
  C        2.4849120     0.8120840     0.3409220
  C       -1.6830070    -2.1819480    -0.0885940
  C        1.4459865    -2.3627719    -0.1806191
  C       -2.8486430     1.5569180    -0.8246800
  C        2.8130920     1.5744450    -0.9510270
  H        3.2336060     0.0303330     0.5193890
  H        2.5305840     1.4962520     1.1974230
  H       -2.2159340     1.8224920     1.2344330
  H       -3.1130010     0.3316860     0.9491040
  H       -1.4229750    -3.0387300     0.5441040
  H       -2.7119990    -1.8902510     0.1457090
  H       -1.6650160    -2.5262940    -1.1310850
  H        2.5139960    -2.0634500    -0.5387900
  H        1.6307130    -2.9166200     0.7385330
  H        1.0429930    -2.9642660    -0.9286680
  H        2.8128660     0.8932150    -1.8063400
  H        3.7971100     2.0487280    -0.8855010
  H        2.0638530     2.3513280    -1.1313670
  H       -2.0994070     2.2298930    -1.2537260
  H       -3.7828960     2.1123340    -0.7007770
  H       -3.0218850     0.7415120    -1.5334270
units angstrom
no_reorient  #important for SAPT in psi4, default
symmetry c1  #important for SAPT in psi4, default
}

set PROPERTIES_ORIGIN ["COM"]
properties('MP2/aug-cc-pvtz', properties = ['dipole'])
--------------------------------------------------------------------------

    Molecular point group: c1
  Charge       = 0
  Multiplicity = 1
  Basis Set: AUG-CC-PVTZ
    Blend: AUG-CC-PVTZ
  Basis Set: (AUG-CC-PVTZ AUX)
    Blend: AUG-CC-PVTZ-JKFIT

    Orbital Energies [Eh]
    ---------------------

    Doubly Occupied:

       1A    -20.604439     2A    -11.278820     3A    -11.270012
       4A    -11.230296     5A    -11.230024     6A    -11.222414
       7A    -11.221474     8A    -11.220293     9A    -11.218266
      10A    -11.215644    11A    -11.214124    12A     -1.430579
      13A     -1.100497    14A     -1.077415    15A     -1.036662
      16A     -0.994940    17A     -0.931500    18A     -0.926742
      19A     -0.869733    20A     -0.811950    21A     -0.748161
      22A     -0.722351    23A     -0.658218    24A     -0.629407
      25A     -0.612016    26A     -0.610574    27A     -0.587600
      28A     -0.585728    29A     -0.577114    30A     -0.563724
      31A     -0.554298    32A     -0.531890    33A     -0.529611
      34A     -0.522936    35A     -0.520818    36A     -0.505391
      37A     -0.494602    38A     -0.491535    39A     -0.484213
      40A     -0.454233    41A     -0.356990    42A     -0.269996

  @DF-RHF Final Energy:  -462.99190518620634

   => Energetics <=

    Nuclear Repulsion Energy =            628.7315011442990453
    One-Electron Energy =               -1875.2123505183426460
    Two-Electron Energy =                 783.4889441878373191
    Total Energy =                       -462.9919051862062815
  Basis Set: (AUG-CC-PVTZ AUX)
    Blend: AUG-CC-PVTZ-RI
    Molecular point group: c1

    Geometry (in Angstrom), charge = 0, multiplicity = 1:

       Center              X                  Y                   Z               Mass
    ------------   -----------------  -----------------  -----------------  -----------------
         O            0.077749569050     1.031350436560     0.509116243864    15.994914619570
         C           -0.737893130950    -1.103646163440     0.115902243864    12.000000000000
         C            0.693736569050    -1.084528563440     0.063634243864    12.000000000000
         C           -1.066124430950     0.272338436560     0.396450243864    12.000000000000
         C            1.145431569050     0.186471436560     0.304625243864    12.000000000000
         C           -2.350915430950     1.010955436560     0.521128243864    12.000000000000
         C            2.490272569050     0.821176436560     0.342244243864    12.000000000000
         C           -1.677646430950    -2.172855563440    -0.087271756136    12.000000000000
         C            1.451347069050    -2.353679463440    -0.179296856136    12.000000000000
         C           -2.843282430950     1.566010436560    -0.823357756136    12.000000000000
         C            2.818452569050     1.583537436560    -0.949704756136    12.000000000000
         H            3.238966569050     0.039425436560     0.520711243864     1.007825032230
         H            2.535944569050     1.505344436560     1.198745243864     1.007825032230
         H           -2.210573430950     1.831584436560     1.235755243864     1.007825032230
         H           -3.107640430950     0.340778436560     0.950426243864     1.007825032230
         H           -1.417614430950    -3.029637563440     0.545426243864     1.007825032230
         H           -2.706638430950    -1.881158563440     0.147031243864     1.007825032230
         H           -1.659655430950    -2.517201563440    -1.129762756136     1.007825032230
         H            2.519356569050    -2.054357563440    -0.537467756136     1.007825032230
         H            1.636073569050    -2.907527563440     0.739855243864     1.007825032230
         H            1.048353569050    -2.955173563440    -0.927345756136     1.007825032230
         H            2.818226569050     0.902307436560    -1.805017756136     1.007825032230
         H            3.802470569050     2.057820436560    -0.884178756136     1.007825032230
         H            2.069213569050     2.360420436560    -1.130044756136     1.007825032230
         H           -2.094046430950     2.238985436560    -1.252403756136     1.007825032230
         H           -3.777535430950     2.121426436560    -0.699454756136     1.007825032230
         H           -3.016524430950     0.750604436560    -1.532104756136     1.007825032230

  Basis Set: AUG-CC-PVTZ
    Blend: AUG-CC-PVTZ
  Basis Set: (AUG-CC-PVTZ AUX)
    Blend: AUG-CC-PVTZ-JKFIT
	 Reference Energy          =    -462.9919051862063384 [Eh]
	 Singles Energy            =      -0.0000000000000000 [Eh]
	 Same-Spin Energy          =      -0.4994814233786750 [Eh]
	 Opposite-Spin Energy      =      -1.6708096474814869 [Eh]
	 Correlation Energy        =      -2.1702910708601619 [Eh]
	 Total Energy              =    -465.1621962570665119 [Eh]

	 ================> DF-SCS-MP2 Energies <==================
	-----------------------------------------------------------
	 SCS Same-Spin Scale       =       0.3333333333333333 [-]
	 SCS Opposite-Spin Scale   =       1.2000000000000000 [-]
	 SCS Same-Spin Energy      =      -0.1664938077928916 [Eh]
	 SCS Opposite-Spin Energy  =      -2.0049715769777841 [Eh]
	 SCS Correlation Energy    =      -2.1714653847706757 [Eh]
	 SCS Total Energy          =    -465.1633705709770084 [Eh]
	-----------------------------------------------------------

  Dipole Moment: [D]
     X:    -0.0876      Y:    -0.6737      Z:    -0.2104     Total:     0.7112

*** Psi4 exiting successfully. Buy a developer a beer!
