                               Psi4 1.3.2 release

  ==> Input File <==

--------------------------------------------------------------------------
#psi4
#
memory 32 gb

molecule  {
0 1
  O        0.0723890     1.0222580     0.5077940
  C       -0.7418240    -1.0387750     0.1269710
  C        0.6883760    -1.0936210     0.0623120
  C       -1.0955546     0.3583108     0.4147070
  C        1.1400710     0.1773790     0.3033030
  C       -2.3562760     1.0018630     0.5198060
  C        2.4849120     0.8120840     0.3409220
  C       -1.6830070    -2.1819480    -0.0885940
  C        1.5125100    -2.3214750    -0.1762480
  C       -2.8486430     1.5569180    -0.8246800
  C        2.8130920     1.5744450    -0.9510270
  H        3.2336060     0.0303330     0.5193890
  H        2.5305840     1.4962520     1.1974230
  H       -2.2159340     1.8224920     1.2344330
  H       -3.1130010     0.3316860     0.9491040
  H       -1.4229750    -3.0387300     0.5441040
  H       -2.7119990    -1.8902510     0.1457090
  H       -1.6650160    -2.5262940    -1.1310850
  H        2.5139960    -2.0634500    -0.5387900
  H        1.6307130    -2.9166200     0.7385330
  H        1.0429930    -2.9642660    -0.9286680
  H        2.8128660     0.8932150    -1.8063400
  H        3.7971100     2.0487280    -0.8855010
  H        2.0638530     2.3513280    -1.1313670
  H       -2.0994070     2.2298930    -1.2537260
  H       -3.7828960     2.1123340    -0.7007770
  H       -3.0218850     0.7415120    -1.5334270
units angstrom
no_reorient  #important for SAPT in psi4, default
symmetry c1  #important for SAPT in psi4, default
}

set PROPERTIES_ORIGIN ["COM"]
properties('MP2/aug-cc-pvtz', properties = ['dipole'])
--------------------------------------------------------------------------

    Molecular point group: c1
  Charge       = 0
  Multiplicity = 1
  Basis Set: AUG-CC-PVTZ
    Blend: AUG-CC-PVTZ
  Basis Set: (AUG-CC-PVTZ AUX)
    Blend: AUG-CC-PVTZ-JKFIT

    Orbital Energies [Eh]
    ---------------------

    Doubly Occupied:

       1A    -20.605389     2A    -11.278021     3A    -11.268201
       4A    -11.230201     5A    -11.228405     6A    -11.223234
       7A    -11.221486     8A    -11.220158     9A    -11.217477
      10A    -11.217287    11A    -11.214257    12A     -1.440103
      13A     -1.092414    14A     -1.086151    15A     -1.040532
      16A     -0.986180    17A     -0.934107    18A     -0.923295
      19A     -0.875777    20A     -0.815620    21A     -0.749626
      22A     -0.719631    23A     -0.663970    24A     -0.629293
      25A     -0.615815    26A     -0.612137    27A     -0.593019
      28A     -0.582074    29A     -0.568433    30A     -0.554349
      31A     -0.548426    32A     -0.534437    33A     -0.531402
      34A     -0.526749    35A     -0.518326    36A     -0.507365
      37A     -0.499845    38A     -0.492241    39A     -0.483930
      40A     -0.458528    41A     -0.353534    42A     -0.265105

  @DF-RHF Final Energy:  -462.99401536046042

   => Energetics <=

    Nuclear Repulsion Energy =            629.0597484748631132
    One-Electron Energy =               -1875.8544723414502187
    Two-Electron Energy =                 783.8007085061265116
    Total Energy =                       -462.9940153604604802
  Basis Set: (AUG-CC-PVTZ AUX)
    Blend: AUG-CC-PVTZ-RI
    Molecular point group: c1

    Geometry (in Angstrom), charge = 0, multiplicity = 1:

       Center              X                  Y                   Z               Mass
    ------------   -----------------  -----------------  -----------------  -----------------
         O            0.074287809903     1.014758918747     0.506249475063    15.994914619570
         C           -0.739925190097    -1.046274081253     0.125426475063    12.000000000000
         C            0.690274809903    -1.101120081253     0.060767475063    12.000000000000
         C           -1.093655790097     0.350811718747     0.413162475063    12.000000000000
         C            1.141969809903     0.169879918747     0.301758475063    12.000000000000
         C           -2.354377190097     0.994363918747     0.518261475063    12.000000000000
         C            2.486810809903     0.804584918747     0.339377475063    12.000000000000
         C           -1.681108190097    -2.189447081253    -0.090138524937    12.000000000000
         C            1.514408809903    -2.328974081253    -0.177792524937    12.000000000000
         C           -2.846744190097     1.549418918747    -0.826224524937    12.000000000000
         C            2.814990809903     1.566945918747    -0.952571524937    12.000000000000
         H            3.235504809903     0.022833918747     0.517844475063     1.007825032230
         H            2.532482809903     1.488752918747     1.195878475063     1.007825032230
         H           -2.214035190097     1.814992918747     1.232888475063     1.007825032230
         H           -3.111102190097     0.324186918747     0.947559475063     1.007825032230
         H           -1.421076190097    -3.046229081253     0.542559475063     1.007825032230
         H           -2.710100190097    -1.897750081253     0.144164475063     1.007825032230
         H           -1.663117190097    -2.533793081253    -1.132629524937     1.007825032230
         H            2.515894809903    -2.070949081253    -0.540334524937     1.007825032230
         H            1.632611809903    -2.924119081253     0.736988475063     1.007825032230
         H            1.044891809903    -2.971765081253    -0.930212524937     1.007825032230
         H            2.814764809903     0.885715918747    -1.807884524937     1.007825032230
         H            3.799008809903     2.041228918747    -0.887045524937     1.007825032230
         H            2.065751809903     2.343828918747    -1.132911524937     1.007825032230
         H           -2.097508190097     2.222393918747    -1.255270524937     1.007825032230
         H           -3.780997190097     2.104834918747    -0.702321524937     1.007825032230
         H           -3.019986190097     0.734012918747    -1.534971524937     1.007825032230

  Basis Set: AUG-CC-PVTZ
    Blend: AUG-CC-PVTZ
  Basis Set: (AUG-CC-PVTZ AUX)
    Blend: AUG-CC-PVTZ-JKFIT
	 Reference Energy          =    -462.9940153604604234 [Eh]
	 Singles Energy            =      -0.0000000000000000 [Eh]
	 Same-Spin Energy          =      -0.5000530554721070 [Eh]
	 Opposite-Spin Energy      =      -1.6704521047612519 [Eh]
	 Correlation Energy        =      -2.1705051602333589 [Eh]
	 Total Energy              =    -465.1645205206937703 [Eh]

	 ================> DF-SCS-MP2 Energies <==================
	-----------------------------------------------------------
	 SCS Same-Spin Scale       =       0.3333333333333333 [-]
	 SCS Opposite-Spin Scale   =       1.2000000000000000 [-]
	 SCS Same-Spin Energy      =      -0.1666843518240357 [Eh]
	 SCS Opposite-Spin Energy  =      -2.0045425257135023 [Eh]
	 SCS Correlation Energy    =      -2.1712268775375381 [Eh]
	 SCS Total Energy          =    -465.1652422379979726 [Eh]
	-----------------------------------------------------------

  Dipole Moment: [D]
     X:     0.0039      Y:    -0.5055      Z:    -0.1858     Total:     0.5386

*** Psi4 exiting successfully. Buy a developer a beer!
