                               Psi4 1.3.2 release

  ==> Input File <==

--------------------------------------------------------------------------
#psi4
#
memory 32 gb

molecule  {
0 1
  O        0.0723890     1.0222580     0.5077940
  C       -0.7418240    -1.0387750     0.1269710
  C        0.6883760    -1.0936210     0.0623120
  C       -1.0714850     0.2632460     0.3951280
  C        1.1625577     0.1313538     0.3117920
  C       -2.3562760     1.0018630     0.5198060
  C        2.4849120     0.8120840     0.3409220
  C       -1.6830070    -2.1819480    -0.0885940
  C        1.5125100    -2.3214750    -0.1762480
  C       -2.8486430     1.5569180    -0.8246800
  C        2.8130920     1.5744450    -0.9510270
  H        3.2053888     0.0044642     0.5203415
  H        2.5305840     1.4962520     1.1974230
  H       -2.2159340     1.8224920     1.2344330
  H       -3.1130010     0.3316860     0.9491040
  H       -1.4229750    -3.0387300     0.5441040
  H       -2.7119990    -1.8902510     0.1457090
  H       -1.6650160    -2.5262940    -1.1310850
  H        2.5139960    -2.0634500    -0.5387900
  H        1.6307130    -2.9166200     0.7385330
  H        1.0429930    -2.9642660    -0.9286680
  H        2.8128660     0.8932150    -1.8063400
  H        3.7971100     2.0487280    -0.8855010
  H        2.0638530     2.3513280    -1.1313670
  H       -2.0994070     2.2298930    -1.2537260
  H       -3.7828960     2.1123340    -0.7007770
  H       -3.0218850     0.7415120    -1.5334270
units angstrom
no_reorient  #important for SAPT in psi4, default
symmetry c1  #important for SAPT in psi4, default
}

set PROPERTIES_ORIGIN ["COM"]
properties('MP2/aug-cc-pvtz', properties = ['dipole'])
--------------------------------------------------------------------------

    Molecular point group: c1
  Charge       = 0
  Multiplicity = 1
  Basis Set: AUG-CC-PVTZ
    Blend: AUG-CC-PVTZ
  Basis Set: (AUG-CC-PVTZ AUX)
    Blend: AUG-CC-PVTZ-JKFIT

    Orbital Energies [Eh]
    ---------------------

    Doubly Occupied:

       1A    -20.590963     2A    -11.271326     3A    -11.266226
       4A    -11.230520     5A    -11.230061     6A    -11.223906
       7A    -11.222927     8A    -11.216127     9A    -11.215819
      10A    -11.215087    11A    -11.213935    12A     -1.412780
      13A     -1.102081    14A     -1.078256    15A     -1.036018
      16A     -0.992131    17A     -0.934096    18A     -0.924566
      19A     -0.871069    20A     -0.817462    21A     -0.742541
      22A     -0.722115    23A     -0.653334    24A     -0.622614
      25A     -0.612423    26A     -0.608544    27A     -0.585289
      28A     -0.582684    29A     -0.566247    30A     -0.556396
      31A     -0.549966    32A     -0.533762    33A     -0.526750
      34A     -0.523292    35A     -0.518503    36A     -0.504842
      37A     -0.495919    38A     -0.493323    39A     -0.480066
      40A     -0.471369    41A     -0.364224    42A     -0.283088

  @DF-RHF Final Energy:  -463.00891772121781

   => Energetics <=

    Nuclear Repulsion Energy =            629.3741524917336392
    One-Electron Energy =               -1876.6408501439466363
    Two-Electron Energy =                 784.2577799309951843
    Total Energy =                       -463.0089177212178129
  Basis Set: (AUG-CC-PVTZ AUX)
    Blend: AUG-CC-PVTZ-RI
    Molecular point group: c1

    Geometry (in Angstrom), charge = 0, multiplicity = 1:

       Center              X                  Y                   Z               Mass
    ------------   -----------------  -----------------  -----------------  -----------------
         O            0.070802159113     1.026060193550     0.507117999561    15.994914619570
         C           -0.743410840887    -1.034972806450     0.126294999561    12.000000000000
         C            0.686789159113    -1.089818806450     0.061635999561    12.000000000000
         C           -1.073071840887     0.267048193550     0.394451999561    12.000000000000
         C            1.160970859113     0.135155993550     0.311115999561    12.000000000000
         C           -2.357862840887     1.005665193550     0.519129999561    12.000000000000
         C            2.483325159113     0.815886193550     0.340245999561    12.000000000000
         C           -1.684593840887    -2.178145806450    -0.089270000439    12.000000000000
         C            1.510923159113    -2.317672806450    -0.176924000439    12.000000000000
         C           -2.850229840887     1.560720193550    -0.825356000439    12.000000000000
         C            2.811505159113     1.578247193550    -0.951703000439    12.000000000000
         H            3.203801959113     0.008266393550     0.519665499561     1.007825032230
         H            2.528997159113     1.500054193550     1.196746999561     1.007825032230
         H           -2.217520840887     1.826294193550     1.233756999561     1.007825032230
         H           -3.114587840887     0.335488193550     0.948427999561     1.007825032230
         H           -1.424561840887    -3.034927806450     0.543427999561     1.007825032230
         H           -2.713585840887    -1.886448806450     0.145032999561     1.007825032230
         H           -1.666602840887    -2.522491806450    -1.131761000439     1.007825032230
         H            2.512409159113    -2.059647806450    -0.539466000439     1.007825032230
         H            1.629126159113    -2.912817806450     0.737856999561     1.007825032230
         H            1.041406159113    -2.960463806450    -0.929344000439     1.007825032230
         H            2.811279159113     0.897017193550    -1.807016000439     1.007825032230
         H            3.795523159113     2.052530193550    -0.886177000439     1.007825032230
         H            2.062266159113     2.355130193550    -1.132043000439     1.007825032230
         H           -2.100993840887     2.233695193550    -1.254402000439     1.007825032230
         H           -3.784482840887     2.116136193550    -0.701453000439     1.007825032230
         H           -3.023471840887     0.745314193550    -1.534103000439     1.007825032230

  Basis Set: AUG-CC-PVTZ
    Blend: AUG-CC-PVTZ
  Basis Set: (AUG-CC-PVTZ AUX)
    Blend: AUG-CC-PVTZ-JKFIT
	 Reference Energy          =    -463.0089177212178129 [Eh]
	 Singles Energy            =      -0.0000000000000000 [Eh]
	 Same-Spin Energy          =      -0.4967412924377190 [Eh]
	 Opposite-Spin Energy      =      -1.6673684370761035 [Eh]
	 Correlation Energy        =      -2.1641097295138225 [Eh]
	 Total Energy              =    -465.1730274507316381 [Eh]

	 ================> DF-SCS-MP2 Energies <==================
	-----------------------------------------------------------
	 SCS Same-Spin Scale       =       0.3333333333333333 [-]
	 SCS Opposite-Spin Scale   =       1.2000000000000000 [-]
	 SCS Same-Spin Energy      =      -0.1655804308125730 [Eh]
	 SCS Opposite-Spin Energy  =      -2.0008421244913239 [Eh]
	 SCS Correlation Energy    =      -2.1664225553038969 [Eh]
	 SCS Total Energy          =    -465.1753402765216947 [Eh]
	-----------------------------------------------------------

  Dipole Moment: [D]
     X:     0.0168      Y:    -0.7195      Z:    -0.2551     Total:     0.7636

*** Psi4 exiting successfully. Buy a developer a beer!
