                               Psi4 1.4a3.dev225

  ==> Input File <==

--------------------------------------------------------------------------
#psi4
#
memory 32 gb

molecule  {
0 1
  O        0.0000040    -0.9323440    -0.5200900
  C       -0.7186120     1.1388030    -0.0293360
  C        0.7186000     1.1388090    -0.0293300
  C       -1.0689350    -0.1689464    -0.3417344
  C        1.1092550    -0.1401430    -0.3349960
  C       -2.4197690    -0.8327410    -0.4659430
  C        2.4197760    -0.8327180    -0.4659420
  C       -1.5881550     2.3237520     0.2504950
  C        1.5881310     2.3237650     0.2505070
  C       -2.6404590    -1.8837440     0.6266770
  C        2.6404800    -1.8837320     0.6266650
  H        3.2127060    -0.0780420    -0.4310990
  H        2.4812700    -1.3082390    -1.4528680
  H       -2.4812630    -1.3082740    -1.4528630
  H       -3.2127060    -0.0780720    -0.4311050
  H       -1.4004860     3.1330380    -0.4637010
  H       -2.6480190     2.0627510     0.1871390
  H       -1.4034730     2.7248980     1.2531230
  H        2.6479980     2.0627640     0.1871950
  H        1.4004870     3.1330370    -0.4637120
  H        1.4034130     2.7249310     1.2531200
  H        2.6185650    -1.4170920     1.6153140
  H        3.6057420    -2.3837880     0.5012060
  H        1.8526560    -2.6398250     0.5898280
  H       -1.8526300    -2.6398320     0.5898440
  H       -3.6057190    -2.3838080     0.5012310
  H       -2.6185400    -1.4170920     1.6153210
units angstrom
no_reorient  #important for SAPT in psi4, default
symmetry c1  #important for SAPT in psi4, default
}

set PROPERTIES_ORIGIN ["COM"]
properties('MP2/aug-cc-pvtz', properties = ['dipole'])
--------------------------------------------------------------------------

    Molecular point group: c1
  Charge       = 0
  Multiplicity = 1
  Basis Set: AUG-CC-PVTZ
    Blend: AUG-CC-PVTZ
  Basis Set: (AUG-CC-PVTZ AUX)
    Blend: AUG-CC-PVTZ-JKFIT

    Orbital Energies [Eh]
    ---------------------

    Doubly Occupied:

       1A    -20.605261     2A    -11.273256     3A    -11.268507
       4A    -11.230379     5A    -11.229752     6A    -11.222674
       7A    -11.222001     8A    -11.218443     9A    -11.214261
      10A    -11.213359    11A    -11.213259    12A     -1.452565
      13A     -1.097713    14A     -1.077944    15A     -1.035471
      16A     -0.989307    17A     -0.934120    18A     -0.928684
      19A     -0.868137    20A     -0.816357    21A     -0.758426
      22A     -0.719205    23A     -0.664597    24A     -0.636176
      25A     -0.610380    26A     -0.609917    27A     -0.586440
      28A     -0.582920    29A     -0.570531    30A     -0.555736
      31A     -0.551681    32A     -0.533731    33A     -0.531924
      34A     -0.530092    35A     -0.516714    36A     -0.506774
      37A     -0.491614    38A     -0.489457    39A     -0.486298
      40A     -0.460867    41A     -0.359399    42A     -0.277115

  @DF-RHF Final Energy:  -463.01247067320844

   => Energetics <=

    Nuclear Repulsion Energy =            630.4912573107225171
    One-Electron Energy =               -1878.7245720298628839
    Two-Electron Energy =                 785.2208440459318126
    Total Energy =                       -463.0124706732084405
  Basis Set: (AUG-CC-PVTZ AUX)
    Blend: AUG-CC-PVTZ-RI
    Molecular point group: c1

    Geometry (in Angstrom), charge = 0, multiplicity = 1:

       Center              X                  Y                   Z               Mass
    ------------   -----------------  -----------------  -----------------  -----------------
         O           -0.003176440582    -0.928881693804    -0.496109498233    15.994914619570
         C           -0.721792440582     1.142265306196    -0.005355498233    12.000000000000
         C            0.715419559418     1.142271306196    -0.005349498233    12.000000000000
         C           -1.072115440582    -0.165484093804    -0.317753898233    12.000000000000
         C            1.106074559418    -0.136680693804    -0.311015498233    12.000000000000
         C           -2.422949440582    -0.829278693804    -0.441962498233    12.000000000000
         C            2.416595559418    -0.829255693804    -0.441961498233    12.000000000000
         C           -1.591335440582     2.327214306196     0.274475501767    12.000000000000
         C            1.584950559418     2.327227306196     0.274487501767    12.000000000000
         C           -2.643639440582    -1.880281693804     0.650657501767    12.000000000000
         C            2.637299559418    -1.880269693804     0.650645501767    12.000000000000
         H            3.209525559418    -0.074579693804    -0.407118498233     1.007825032230
         H            2.478089559418    -1.304776693804    -1.428887498233     1.007825032230
         H           -2.484443440582    -1.304811693804    -1.428882498233     1.007825032230
         H           -3.215886440582    -0.074609693804    -0.407124498233     1.007825032230
         H           -1.403666440582     3.136500306196    -0.439720498233     1.007825032230
         H           -2.651199440582     2.066213306196     0.211119501767     1.007825032230
         H           -1.406653440582     2.728360306196     1.277103501767     1.007825032230
         H            2.644817559418     2.066226306196     0.211175501767     1.007825032230
         H            1.397306559418     3.136499306196    -0.439731498233     1.007825032230
         H            1.400232559418     2.728393306196     1.277100501767     1.007825032230
         H            2.615384559418    -1.413629693804     1.639294501767     1.007825032230
         H            3.602561559418    -2.380325693804     0.525186501767     1.007825032230
         H            1.849475559418    -2.636362693804     0.613808501767     1.007825032230
         H           -1.855810440582    -2.636369693804     0.613824501767     1.007825032230
         H           -3.608899440582    -2.380345693804     0.525211501767     1.007825032230
         H           -2.621720440582    -1.413629693804     1.639301501767     1.007825032230

  Basis Set: AUG-CC-PVTZ
    Blend: AUG-CC-PVTZ
  Basis Set: (AUG-CC-PVTZ AUX)
    Blend: AUG-CC-PVTZ-JKFIT
	 Reference Energy          =    -463.0124706732084405 [Eh]
	 Singles Energy            =      -0.0000000000000000 [Eh]
	 Same-Spin Energy          =      -0.4968923740463066 [Eh]
	 Opposite-Spin Energy      =      -1.6659895166555443 [Eh]
	 Correlation Energy        =      -2.1628818907018510 [Eh]
	 Total Energy              =    -465.1753525639102804 [Eh]

	 ================> DF-SCS-MP2 Energies <==================
	-----------------------------------------------------------
	 SCS Same-Spin Scale       =       0.3333333333333333 [-]
	 SCS Opposite-Spin Scale   =       1.2000000000000000 [-]
	 SCS Same-Spin Energy      =      -0.1656307913487688 [Eh]
	 SCS Opposite-Spin Energy  =      -1.9991874199866531 [Eh]
	 SCS Correlation Energy    =      -2.1648182113354220 [Eh]
	 SCS Total Energy          =    -465.1772888845438843 [Eh]
	-----------------------------------------------------------

  Dipole Moment: [D]
     X:     0.0730      Y:     0.5938      Z:     0.2044     Total:     0.6322

*** Psi4 exiting successfully. Buy a developer a beer!
