                               Psi4 1.3.2 release

  ==> Input File <==

--------------------------------------------------------------------------
#psi4
#
memory 32 gb

molecule  {
0 1
  O        0.0723890     1.0222580     0.5077940
  C       -0.7418240    -1.0387750     0.1269710
  C        0.6883760    -1.0936210     0.0623120
  C       -1.0713903     0.2681686     0.3696429
  C        1.1400710     0.1773790     0.3033030
  C       -2.3562760     1.0018630     0.5198060
  C        2.4849120     0.8120840     0.3409220
  C       -1.6830070    -2.1819480    -0.0885940
  C        1.5125100    -2.3214750    -0.1762480
  C       -2.8270669     1.5464414    -0.8366394
  C        2.8130920     1.5744450    -0.9510270
  H        3.2336060     0.0303330     0.5193890
  H        2.5305840     1.4962520     1.1974230
  H       -2.2159340     1.8224920     1.2344330
  H       -3.1130010     0.3316860     0.9491040
  H       -1.4229750    -3.0387300     0.5441040
  H       -2.7119990    -1.8902510     0.1457090
  H       -1.6650160    -2.5262940    -1.1310850
  H        2.5139960    -2.0634500    -0.5387900
  H        1.6307130    -2.9166200     0.7385330
  H        1.0429930    -2.9642660    -0.9286680
  H        2.8128660     0.8932150    -1.8063400
  H        3.7971100     2.0487280    -0.8855010
  H        2.0638530     2.3513280    -1.1313670
  H       -2.0994070     2.2298930    -1.2537260
  H       -3.7828960     2.1123340    -0.7007770
  H       -3.0218850     0.7415120    -1.5334270
units angstrom
no_reorient  #important for SAPT in psi4, default
symmetry c1  #important for SAPT in psi4, default
}

set PROPERTIES_ORIGIN ["COM"]
properties('MP2/aug-cc-pvtz', properties = ['dipole'])
--------------------------------------------------------------------------

    Molecular point group: c1
  Charge       = 0
  Multiplicity = 1
  Basis Set: AUG-CC-PVTZ
    Blend: AUG-CC-PVTZ
  Basis Set: (AUG-CC-PVTZ AUX)
    Blend: AUG-CC-PVTZ-JKFIT

    Orbital Energies [Eh]
    ---------------------

    Doubly Occupied:

       1A    -20.598687     2A    -11.269516     3A    -11.269056
       4A    -11.230413     5A    -11.229855     6A    -11.223142
       7A    -11.222785     8A    -11.216032     9A    -11.215483
      10A    -11.214726    11A    -11.214576    12A     -1.429896
      13A     -1.098681    14A     -1.079232    15A     -1.036526
      16A     -0.989940    17A     -0.932252    18A     -0.927128
      19A     -0.869710    20A     -0.815734    21A     -0.749472
      22A     -0.721857    23A     -0.658195    24A     -0.627610
      25A     -0.611661    26A     -0.610574    27A     -0.587066
      28A     -0.583482    29A     -0.567615    30A     -0.555760
      31A     -0.550047    32A     -0.531186    33A     -0.526185
      34A     -0.523678    35A     -0.521933    36A     -0.506869
      37A     -0.497461    38A     -0.490284    39A     -0.485189
      40A     -0.466562    41A     -0.360650    42A     -0.278477

  @DF-RHF Final Energy:  -463.01091946196641

   => Energetics <=

    Nuclear Repulsion Energy =            629.8804186793386179
    One-Electron Energy =               -1877.5923072927889734
    Two-Electron Energy =                 784.7009691514839460
    Total Energy =                       -463.0109194619664095
  Basis Set: (AUG-CC-PVTZ AUX)
    Blend: AUG-CC-PVTZ-RI
    Molecular point group: c1

    Geometry (in Angstrom), charge = 0, multiplicity = 1:

       Center              X                  Y                   Z               Mass
    ------------   -----------------  -----------------  -----------------  -----------------
         O            0.070679577031     1.022696235906     0.510747775629    15.994914619570
         C           -0.743533422969    -1.038336764094     0.129924775629    12.000000000000
         C            0.686666577031    -1.093182764094     0.065265775629    12.000000000000
         C           -1.073099722969     0.268606835906     0.372596675629    12.000000000000
         C            1.138361577031     0.177817235906     0.306256775629    12.000000000000
         C           -2.357985422969     1.002301235906     0.522759775629    12.000000000000
         C            2.483202577031     0.812522235906     0.343875775629    12.000000000000
         C           -1.684716422969    -2.181509764094    -0.085640224371    12.000000000000
         C            1.510800577031    -2.321036764094    -0.173294224371    12.000000000000
         C           -2.828776322969     1.546879635906    -0.833685624371    12.000000000000
         C            2.811382577031     1.574883235906    -0.948073224371    12.000000000000
         H            3.231896577031     0.030771235906     0.522342775629     1.007825032230
         H            2.528874577031     1.496690235906     1.200376775629     1.007825032230
         H           -2.217643422969     1.822930235906     1.237386775629     1.007825032230
         H           -3.114710422969     0.332124235906     0.952057775629     1.007825032230
         H           -1.424684422969    -3.038291764094     0.547057775629     1.007825032230
         H           -2.713708422969    -1.889812764094     0.148662775629     1.007825032230
         H           -1.666725422969    -2.525855764094    -1.128131224371     1.007825032230
         H            2.512286577031    -2.063011764094    -0.535836224371     1.007825032230
         H            1.629003577031    -2.916181764094     0.741486775629     1.007825032230
         H            1.041283577031    -2.963827764094    -0.925714224371     1.007825032230
         H            2.811156577031     0.893653235906    -1.803386224371     1.007825032230
         H            3.795400577031     2.049166235906    -0.882547224371     1.007825032230
         H            2.062143577031     2.351766235906    -1.128413224371     1.007825032230
         H           -2.101116422969     2.230331235906    -1.250772224371     1.007825032230
         H           -3.784605422969     2.112772235906    -0.697823224371     1.007825032230
         H           -3.023594422969     0.741950235906    -1.530473224371     1.007825032230

  Basis Set: AUG-CC-PVTZ
    Blend: AUG-CC-PVTZ
  Basis Set: (AUG-CC-PVTZ AUX)
    Blend: AUG-CC-PVTZ-JKFIT
	 Reference Energy          =    -463.0109194619664095 [Eh]
	 Singles Energy            =      -0.0000000000000000 [Eh]
	 Same-Spin Energy          =      -0.4971438176611803 [Eh]
	 Opposite-Spin Energy      =      -1.6672299017315146 [Eh]
	 Correlation Energy        =      -2.1643737193926951 [Eh]
	 Total Energy              =    -465.1752931813591090 [Eh]

	 ================> DF-SCS-MP2 Energies <==================
	-----------------------------------------------------------
	 SCS Same-Spin Scale       =       0.3333333333333333 [-]
	 SCS Opposite-Spin Scale   =       1.2000000000000000 [-]
	 SCS Same-Spin Energy      =      -0.1657146058870601 [Eh]
	 SCS Opposite-Spin Energy  =      -2.0006758820778177 [Eh]
	 SCS Correlation Energy    =      -2.1663904879648777 [Eh]
	 SCS Total Energy          =    -465.1773099499312707 [Eh]
	-----------------------------------------------------------

  Dipole Moment: [D]
     X:    -0.0319      Y:    -0.6544      Z:    -0.2037     Total:     0.6861

*** Psi4 exiting successfully. Buy a developer a beer!
