                               Psi4 1.4a3.dev225

  ==> Input File <==

--------------------------------------------------------------------------
#psi4
#
memory 32 gb

molecule  {
0 1
  O        0.0000040    -0.9323440    -0.5200900
  C       -0.7186120     1.1388030    -0.0293360
  C        0.7186000     1.1388090    -0.0293300
  C       -1.1092540    -0.1401520    -0.3350070
  C        1.0931275    -0.1516609    -0.3376871
  C       -2.4197690    -0.8327410    -0.4659430
  C        2.4197760    -0.8327180    -0.4659420
  C       -1.5881550     2.3237520     0.2504950
  C        1.5881310     2.3237650     0.2505070
  C       -2.6404590    -1.8837440     0.6266770
  C        2.6404800    -1.8837320     0.6266650
  H        3.2127060    -0.0780420    -0.4310990
  H        2.4812700    -1.3082390    -1.4528680
  H       -2.4812630    -1.3082740    -1.4528630
  H       -3.2127060    -0.0780720    -0.4311050
  H       -1.4004860     3.1330380    -0.4637010
  H       -2.6480190     2.0627510     0.1871390
  H       -1.4034730     2.7248980     1.2531230
  H        2.6479980     2.0627640     0.1871950
  H        1.4004870     3.1330370    -0.4637120
  H        1.4034130     2.7249310     1.2531200
  H        2.6185650    -1.4170920     1.6153140
  H        3.6057420    -2.3837880     0.5012060
  H        1.8526560    -2.6398250     0.5898280
  H       -1.8526300    -2.6398320     0.5898440
  H       -3.6057190    -2.3838080     0.5012310
  H       -2.6185400    -1.4170920     1.6153210
units angstrom
no_reorient  #important for SAPT in psi4, default
symmetry c1  #important for SAPT in psi4, default
}

set PROPERTIES_ORIGIN ["COM"]
properties('MP2/aug-cc-pvtz', properties = ['dipole'])
--------------------------------------------------------------------------

    Molecular point group: c1
  Charge       = 0
  Multiplicity = 1
  Basis Set: AUG-CC-PVTZ
    Blend: AUG-CC-PVTZ
  Basis Set: (AUG-CC-PVTZ AUX)
    Blend: AUG-CC-PVTZ-JKFIT

    Orbital Energies [Eh]
    ---------------------

    Doubly Occupied:

       1A    -20.600546     2A    -11.271792     3A    -11.270041
       4A    -11.230118     5A    -11.229918     6A    -11.222569
       7A    -11.222302     8A    -11.217688     9A    -11.215810
      10A    -11.213416    11A    -11.213408    12A     -1.439094
      13A     -1.097639    14A     -1.078896    15A     -1.036276
      16A     -0.990295    17A     -0.933186    18A     -0.927567
      19A     -0.869317    20A     -0.816151    21A     -0.754375
      22A     -0.719156    23A     -0.661569    24A     -0.631304
      25A     -0.611076    26A     -0.610312    27A     -0.585528
      28A     -0.582743    29A     -0.569540    30A     -0.555843
      31A     -0.551909    32A     -0.532708    33A     -0.531629
      34A     -0.527184    35A     -0.517238    36A     -0.506296
      37A     -0.491692    38A     -0.491266    39A     -0.485483
      40A     -0.464849    41A     -0.359967    42A     -0.279020

  @DF-RHF Final Energy:  -463.01403916099696

   => Energetics <=

    Nuclear Repulsion Energy =            630.1784655705929481
    One-Electron Energy =               -1878.1515760342701924
    Two-Electron Energy =                 784.9590713026801723
    Total Energy =                       -463.0140391609969583
  Basis Set: (AUG-CC-PVTZ AUX)
    Blend: AUG-CC-PVTZ-RI
    Molecular point group: c1

    Geometry (in Angstrom), charge = 0, multiplicity = 1:

       Center              X                  Y                   Z               Mass
    ------------   -----------------  -----------------  -----------------  -----------------
         O            0.001276343321    -0.930244551042    -0.496427901884    15.994914619570
         C           -0.717339656679     1.140902448958    -0.005673901884    12.000000000000
         C            0.719872343321     1.140908448958    -0.005667901884    12.000000000000
         C           -1.107981656679    -0.138052551042    -0.311344901884    12.000000000000
         C            1.094399843321    -0.149561451042    -0.314025001884    12.000000000000
         C           -2.418496656679    -0.830641551042    -0.442280901884    12.000000000000
         C            2.421048343321    -0.830618551042    -0.442279901884    12.000000000000
         C           -1.586882656679     2.325851448958     0.274157098116    12.000000000000
         C            1.589403343321     2.325864448958     0.274169098116    12.000000000000
         C           -2.639186656679    -1.881644551042     0.650339098116    12.000000000000
         C            2.641752343321    -1.881632551042     0.650327098116    12.000000000000
         H            3.213978343321    -0.075942551042    -0.407436901884     1.007825032230
         H            2.482542343321    -1.306139551042    -1.429205901884     1.007825032230
         H           -2.479990656679    -1.306174551042    -1.429200901884     1.007825032230
         H           -3.211433656679    -0.075972551042    -0.407442901884     1.007825032230
         H           -1.399213656679     3.135137448958    -0.440038901884     1.007825032230
         H           -2.646746656679     2.064850448958     0.210801098116     1.007825032230
         H           -1.402200656679     2.726997448958     1.276785098116     1.007825032230
         H            2.649270343321     2.064863448958     0.210857098116     1.007825032230
         H            1.401759343321     3.135136448958    -0.440049901884     1.007825032230
         H            1.404685343321     2.727030448958     1.276782098116     1.007825032230
         H            2.619837343321    -1.414992551042     1.638976098116     1.007825032230
         H            3.607014343321    -2.381688551042     0.524868098116     1.007825032230
         H            1.853928343321    -2.637725551042     0.613490098116     1.007825032230
         H           -1.851357656679    -2.637732551042     0.613506098116     1.007825032230
         H           -3.604446656679    -2.381708551042     0.524893098116     1.007825032230
         H           -2.617267656679    -1.414992551042     1.638983098116     1.007825032230

  Basis Set: AUG-CC-PVTZ
    Blend: AUG-CC-PVTZ
  Basis Set: (AUG-CC-PVTZ AUX)
    Blend: AUG-CC-PVTZ-JKFIT
	 Reference Energy          =    -463.0140391609969583 [Eh]
	 Singles Energy            =      -0.0000000000000000 [Eh]
	 Same-Spin Energy          =      -0.4968746278851812 [Eh]
	 Opposite-Spin Energy      =      -1.6664051230048804 [Eh]
	 Correlation Energy        =      -2.1632797508900614 [Eh]
	 Total Energy              =    -465.1773189118870278 [Eh]

	 ================> DF-SCS-MP2 Energies <==================
	-----------------------------------------------------------
	 SCS Same-Spin Scale       =       0.3333333333333333 [-]
	 SCS Opposite-Spin Scale   =       1.2000000000000000 [-]
	 SCS Same-Spin Energy      =      -0.1656248759617271 [Eh]
	 SCS Opposite-Spin Energy  =      -1.9996861476058565 [Eh]
	 SCS Correlation Energy    =      -2.1653110235675834 [Eh]
	 SCS Total Energy          =    -465.1793501845645551 [Eh]
	-----------------------------------------------------------

  Dipole Moment: [D]
     X:    -0.0299      Y:     0.6232      Z:     0.2173     Total:     0.6607

*** Psi4 exiting successfully. Buy a developer a beer!
