                               Psi4 1.3.2 release

  ==> Input File <==

--------------------------------------------------------------------------
#psi4
#
memory 32 gb

molecule  {
0 1
  O        0.0723890     1.0222580     0.5077940
  C       -0.7418240    -1.0387750     0.1269710
  C        0.6883760    -1.0936210     0.0623120
  C       -1.0714850     0.2632460     0.3951280
  C        1.1400710     0.1773790     0.3033030
  C       -2.3562760     1.0018630     0.5198060
  C        2.4849120     0.8120840     0.3409220
  C       -1.6830070    -2.1819480    -0.0885940
  C        1.5125100    -2.3214750    -0.1762480
  C       -2.8495584     1.4816812    -0.8530017
  C        2.8130920     1.5744450    -0.9510270
  H        3.2336060     0.0303330     0.5193890
  H        2.5305840     1.4962520     1.1974230
  H       -2.1992054     1.7837141     1.2733690
  H       -3.1130010     0.3316860     0.9491040
  H       -1.4229750    -3.0387300     0.5441040
  H       -2.7119990    -1.8902510     0.1457090
  H       -1.6650160    -2.5262940    -1.1310850
  H        2.5139960    -2.0634500    -0.5387900
  H        1.6307130    -2.9166200     0.7385330
  H        1.0429930    -2.9642660    -0.9286680
  H        2.8128660     0.8932150    -1.8063400
  H        3.7971100     2.0487280    -0.8855010
  H        2.0638530     2.3513280    -1.1313670
  H       -2.0994070     2.2298930    -1.2537260
  H       -3.7828960     2.1123340    -0.7007770
  H       -3.0218850     0.7415120    -1.5334270
units angstrom
no_reorient  #important for SAPT in psi4, default
symmetry c1  #important for SAPT in psi4, default
}

set PROPERTIES_ORIGIN ["COM"]
properties('MP2/aug-cc-pvtz', properties = ['dipole'])
--------------------------------------------------------------------------

    Molecular point group: c1
  Charge       = 0
  Multiplicity = 1
  Basis Set: AUG-CC-PVTZ
    Blend: AUG-CC-PVTZ
  Basis Set: (AUG-CC-PVTZ AUX)
    Blend: AUG-CC-PVTZ-JKFIT

    Orbital Energies [Eh]
    ---------------------

    Doubly Occupied:

       1A    -20.598499     2A    -11.268999     3A    -11.268944
       4A    -11.230963     5A    -11.229741     6A    -11.223127
       7A    -11.222704     8A    -11.217673     9A    -11.215850
      10A    -11.214421    11A    -11.214404    12A     -1.429569
      13A     -1.098537    14A     -1.079329    15A     -1.036513
      16A     -0.989759    17A     -0.932107    18A     -0.927708
      19A     -0.871413    20A     -0.816833    21A     -0.749179
      22A     -0.721738    23A     -0.657491    24A     -0.628006
      25A     -0.612982    26A     -0.609626    27A     -0.587140
      28A     -0.581962    29A     -0.567998    30A     -0.555488
      31A     -0.550298    32A     -0.534233    33A     -0.529441
      34A     -0.524863    35A     -0.523320    36A     -0.509402
      37A     -0.494053    38A     -0.488917    39A     -0.477863
      40A     -0.465680    41A     -0.360447    42A     -0.278368

  @DF-RHF Final Energy:  -463.00342708699554

   => Energetics <=

    Nuclear Repulsion Energy =            629.9441262781649584
    One-Electron Energy =               -1877.7039267656305128
    Two-Electron Energy =                 784.7563734004700109
    Total Energy =                       -463.0034270869955435
  Basis Set: (AUG-CC-PVTZ AUX)
    Blend: AUG-CC-PVTZ-RI
    Molecular point group: c1

    Geometry (in Angstrom), charge = 0, multiplicity = 1:

       Center              X                  Y                   Z               Mass
    ------------   -----------------  -----------------  -----------------  -----------------
         O            0.072350459925     1.028450076793     0.509770164776    15.994914619570
         C           -0.741862540075    -1.032582923207     0.128947164776    12.000000000000
         C            0.688337459925    -1.087428923207     0.064288164776    12.000000000000
         C           -1.071523540075     0.269438076793     0.397104164776    12.000000000000
         C            1.140032459925     0.183571076793     0.305279164776    12.000000000000
         C           -2.356314540075     1.008055076793     0.521782164776    12.000000000000
         C            2.484873459925     0.818276076793     0.342898164776    12.000000000000
         C           -1.683045540075    -2.175755923207    -0.086617835224    12.000000000000
         C            1.512471459925    -2.315282923207    -0.174271835224    12.000000000000
         C           -2.849596940075     1.487873276793    -0.851025535224    12.000000000000
         C            2.813053459925     1.580637076793    -0.949050835224    12.000000000000
         H            3.233567459925     0.036525076793     0.521365164776     1.007825032230
         H            2.530545459925     1.502444076793     1.199399164776     1.007825032230
         H           -2.199243940075     1.789906176793     1.275345164776     1.007825032230
         H           -3.113039540075     0.337878076793     0.951080164776     1.007825032230
         H           -1.423013540075    -3.032537923207     0.546080164776     1.007825032230
         H           -2.712037540075    -1.884058923207     0.147685164776     1.007825032230
         H           -1.665054540075    -2.520101923207    -1.129108835224     1.007825032230
         H            2.513957459925    -2.057257923207    -0.536813835224     1.007825032230
         H            1.630674459925    -2.910427923207     0.740509164776     1.007825032230
         H            1.042954459925    -2.958073923207    -0.926691835224     1.007825032230
         H            2.812827459925     0.899407076793    -1.804363835224     1.007825032230
         H            3.797071459925     2.054920076793    -0.883524835224     1.007825032230
         H            2.063814459925     2.357520076793    -1.129390835224     1.007825032230
         H           -2.099445540075     2.236085076793    -1.251749835224     1.007825032230
         H           -3.782934540075     2.118526076793    -0.698800835224     1.007825032230
         H           -3.021923540075     0.747704076793    -1.531450835224     1.007825032230

  Basis Set: AUG-CC-PVTZ
    Blend: AUG-CC-PVTZ
  Basis Set: (AUG-CC-PVTZ AUX)
    Blend: AUG-CC-PVTZ-JKFIT
	 Reference Energy          =    -463.0034270869955435 [Eh]
	 Singles Energy            =      -0.0000000000000000 [Eh]
	 Same-Spin Energy          =      -0.4972963305310175 [Eh]
	 Opposite-Spin Energy      =      -1.6675953721519483 [Eh]
	 Correlation Energy        =      -2.1648917026829659 [Eh]
	 Total Energy              =    -465.1683187896784943 [Eh]

	 ================> DF-SCS-MP2 Energies <==================
	-----------------------------------------------------------
	 SCS Same-Spin Scale       =       0.3333333333333333 [-]
	 SCS Opposite-Spin Scale   =       1.2000000000000000 [-]
	 SCS Same-Spin Energy      =      -0.1657654435103392 [Eh]
	 SCS Opposite-Spin Energy  =      -2.0011144465823381 [Eh]
	 SCS Correlation Energy    =      -2.1668798900926771 [Eh]
	 SCS Total Energy          =    -465.1703069770882166 [Eh]
	-----------------------------------------------------------

  Dipole Moment: [D]
     X:    -0.0473      Y:    -0.6748      Z:    -0.2068     Total:     0.7074

*** Psi4 exiting successfully. Buy a developer a beer!
