                               Psi4 1.3.2 release

  ==> Input File <==

--------------------------------------------------------------------------
#psi4
#
memory 32 gb

molecule  {
0 1
  O        0.0723890     1.0222580     0.5077940
  C       -0.7418240    -1.0387750     0.1269710
  C        0.6883760    -1.0936210     0.0623120
  C       -1.0714850     0.2632460     0.3951280
  C        1.1400710     0.1773790     0.3033030
  C       -2.3562760     1.0018630     0.5198060
  C        2.4849120     0.8120840     0.3409220
  C       -1.8088021    -2.3347403    -0.1174056
  C        1.5125100    -2.3214750    -0.1762480
  C       -2.8486430     1.5569180    -0.8246800
  C        2.8130920     1.5744450    -0.9510270
  H        3.2336060     0.0303330     0.5193890
  H        2.5305840     1.4962520     1.1974230
  H       -2.2159340     1.8224920     1.2344330
  H       -3.1130010     0.3316860     0.9491040
  H       -1.4229750    -3.0387300     0.5441040
  H       -2.7119990    -1.8902510     0.1457090
  H       -1.6650160    -2.5262940    -1.1310850
  H        2.5139960    -2.0634500    -0.5387900
  H        1.6307130    -2.9166200     0.7385330
  H        1.0429930    -2.9642660    -0.9286680
  H        2.8128660     0.8932150    -1.8063400
  H        3.7971100     2.0487280    -0.8855010
  H        2.0638530     2.3513280    -1.1313670
  H       -2.0994070     2.2298930    -1.2537260
  H       -3.7828960     2.1123340    -0.7007770
  H       -3.0218850     0.7415120    -1.5334270
units angstrom
no_reorient  #important for SAPT in psi4, default
symmetry c1  #important for SAPT in psi4, default
}

set PROPERTIES_ORIGIN ["COM"]
properties('MP2/aug-cc-pvtz', properties = ['dipole'])
--------------------------------------------------------------------------

    Molecular point group: c1
  Charge       = 0
  Multiplicity = 1
  Basis Set: AUG-CC-PVTZ
    Blend: AUG-CC-PVTZ
  Basis Set: (AUG-CC-PVTZ AUX)
    Blend: AUG-CC-PVTZ-JKFIT

    Orbital Energies [Eh]
    ---------------------

    Doubly Occupied:

       1A    -20.597683     2A    -11.268352     3A    -11.268243
       4A    -11.229675     5A    -11.229296     6A    -11.223785
       7A    -11.222588     8A    -11.221518     9A    -11.215557
      10A    -11.215125    11A    -11.214065    12A     -1.428540
      13A     -1.089331    14A     -1.076007    15A     -1.034957
      16A     -0.982578    17A     -0.938063    18A     -0.927896
      19A     -0.869531    20A     -0.815311    21A     -0.747460
      22A     -0.716151    23A     -0.654215    24A     -0.626075
      25A     -0.611894    26A     -0.606449    27A     -0.592570
      28A     -0.590136    29A     -0.584834    30A     -0.562599
      31A     -0.560014    32A     -0.535387    33A     -0.528205
      34A     -0.521609    35A     -0.504781    36A     -0.499335
      37A     -0.495240    38A     -0.485225    39A     -0.476642
      40A     -0.454948    41A     -0.363369    42A     -0.278493

  @DF-RHF Final Energy:  -462.98490141596966

   => Energetics <=

    Nuclear Repulsion Energy =            625.9265025376262201
    One-Electron Energy =               -1869.6953487709515684
    Two-Electron Energy =                 780.7839448173557457
    Total Energy =                       -462.9849014159696026
  Basis Set: (AUG-CC-PVTZ AUX)
    Blend: AUG-CC-PVTZ-RI
    Molecular point group: c1

    Geometry (in Angstrom), charge = 0, multiplicity = 1:

       Center              X                  Y                   Z               Mass
    ------------   -----------------  -----------------  -----------------  -----------------
         O            0.082312429126     1.034311133767     0.510066769045    15.994914619570
         C           -0.731900570874    -1.026721866233     0.129243769045    12.000000000000
         C            0.698299429126    -1.081567866233     0.064584769045    12.000000000000
         C           -1.061561570874     0.275299133767     0.397400769045    12.000000000000
         C            1.149994429126     0.189432133767     0.305575769045    12.000000000000
         C           -2.346352570874     1.013916133767     0.522078769045    12.000000000000
         C            2.494835429126     0.824137133767     0.343194769045    12.000000000000
         C           -1.798878670874    -2.322687166233    -0.115132830955    12.000000000000
         C            1.522433429126    -2.309421866233    -0.173975230955    12.000000000000
         C           -2.838719570874     1.568971133767    -0.822407230955    12.000000000000
         C            2.823015429126     1.586498133767    -0.948754230955    12.000000000000
         H            3.243529429126     0.042386133767     0.521661769045     1.007825032230
         H            2.540507429126     1.508305133767     1.199695769045     1.007825032230
         H           -2.206010570874     1.834545133767     1.236705769045     1.007825032230
         H           -3.103077570874     0.343739133767     0.951376769045     1.007825032230
         H           -1.413051570874    -3.026676866233     0.546376769045     1.007825032230
         H           -2.702075570874    -1.878197866233     0.147981769045     1.007825032230
         H           -1.655092570874    -2.514240866233    -1.128812230955     1.007825032230
         H            2.523919429126    -2.051396866233    -0.536517230955     1.007825032230
         H            1.640636429126    -2.904566866233     0.740805769045     1.007825032230
         H            1.052916429126    -2.952212866233    -0.926395230955     1.007825032230
         H            2.822789429126     0.905268133767    -1.804067230955     1.007825032230
         H            3.807033429126     2.060781133767    -0.883228230955     1.007825032230
         H            2.073776429126     2.363381133767    -1.129094230955     1.007825032230
         H           -2.089483570874     2.241946133767    -1.251453230955     1.007825032230
         H           -3.772972570874     2.124387133767    -0.698504230955     1.007825032230
         H           -3.011961570874     0.753565133767    -1.531154230955     1.007825032230

  Basis Set: AUG-CC-PVTZ
    Blend: AUG-CC-PVTZ
  Basis Set: (AUG-CC-PVTZ AUX)
    Blend: AUG-CC-PVTZ-JKFIT
	 Reference Energy          =    -462.9849014159696594 [Eh]
	 Singles Energy            =      -0.0000000000000000 [Eh]
	 Same-Spin Energy          =      -0.4967801846910919 [Eh]
	 Opposite-Spin Energy      =      -1.6681078553786159 [Eh]
	 Correlation Energy        =      -2.1648880400697079 [Eh]
	 Total Energy              =    -465.1497894560393433 [Eh]

	 ================> DF-SCS-MP2 Energies <==================
	-----------------------------------------------------------
	 SCS Same-Spin Scale       =       0.3333333333333333 [-]
	 SCS Opposite-Spin Scale   =       1.2000000000000000 [-]
	 SCS Same-Spin Energy      =      -0.1655933948970306 [Eh]
	 SCS Opposite-Spin Energy  =      -2.0017294264543390 [Eh]
	 SCS Correlation Energy    =      -2.1673228213513696 [Eh]
	 SCS Total Energy          =    -465.1522242373210361 [Eh]
	-----------------------------------------------------------

  Dipole Moment: [D]
     X:    -0.0309      Y:    -0.6663      Z:    -0.2186     Total:     0.7019

*** Psi4 exiting successfully. Buy a developer a beer!
