                               Psi4 1.3.2 release

  ==> Input File <==

--------------------------------------------------------------------------
#psi4
#
memory 32 gb

molecule  {
0 1
  O        0.0723890     1.0222580     0.5077940
  C       -0.7418240    -1.0387750     0.1269710
  C        0.6883760    -1.0936210     0.0623120
  C       -1.0714850     0.2632460     0.3951280
  C        1.1400710     0.1773790     0.3033030
  C       -2.4426655     1.0515277     0.5281894
  C        2.4849120     0.8120840     0.3409220
  C       -1.6830070    -2.1819480    -0.0885940
  C        1.5125100    -2.3214750    -0.1762480
  C       -2.8486430     1.5569180    -0.8246800
  C        2.8130920     1.5744450    -0.9510270
  H        3.2336060     0.0303330     0.5193890
  H        2.5305840     1.4962520     1.1974230
  H       -2.2159340     1.8224920     1.2344330
  H       -3.1130010     0.3316860     0.9491040
  H       -1.4229750    -3.0387300     0.5441040
  H       -2.7119990    -1.8902510     0.1457090
  H       -1.6650160    -2.5262940    -1.1310850
  H        2.5139960    -2.0634500    -0.5387900
  H        1.6307130    -2.9166200     0.7385330
  H        1.0429930    -2.9642660    -0.9286680
  H        2.8128660     0.8932150    -1.8063400
  H        3.7971100     2.0487280    -0.8855010
  H        2.0638530     2.3513280    -1.1313670
  H       -2.0994070     2.2298930    -1.2537260
  H       -3.7828960     2.1123340    -0.7007770
  H       -3.0218850     0.7415120    -1.5334270
units angstrom
no_reorient  #important for SAPT in psi4, default
symmetry c1  #important for SAPT in psi4, default
}

set PROPERTIES_ORIGIN ["COM"]
properties('MP2/aug-cc-pvtz', properties = ['dipole'])
--------------------------------------------------------------------------

    Molecular point group: c1
  Charge       = 0
  Multiplicity = 1
  Basis Set: AUG-CC-PVTZ
    Blend: AUG-CC-PVTZ
  Basis Set: (AUG-CC-PVTZ AUX)
    Blend: AUG-CC-PVTZ-JKFIT

    Orbital Energies [Eh]
    ---------------------

    Doubly Occupied:

       1A    -20.598080     2A    -11.272034     3A    -11.268035
       4A    -11.232119     5A    -11.229284     6A    -11.222588
       7A    -11.222227     8A    -11.215156     9A    -11.214841
      10A    -11.214128    11A    -11.213496    12A     -1.427980
      13A     -1.097099    14A     -1.074140    15A     -1.037943
      16A     -0.990714    17A     -0.931321    18A     -0.925137
      19A     -0.865805    20A     -0.818237    21A     -0.747027
      22A     -0.720464    23A     -0.653747    24A     -0.626000
      25A     -0.617590    26A     -0.607433    27A     -0.588121
      28A     -0.581528    29A     -0.566824    30A     -0.555178
      31A     -0.549542    32A     -0.533661    33A     -0.530800
      34A     -0.524928    35A     -0.522749    36A     -0.509688
      37A     -0.499750    38A     -0.487992    39A     -0.481792
      40A     -0.456454    41A     -0.359855    42A     -0.278989

  @DF-RHF Final Energy:  -463.00438771908028

   => Energetics <=

    Nuclear Repulsion Energy =            627.9861517345033235
    One-Electron Energy =               -1873.8401312943005905
    Two-Electron Energy =                 782.8495918407169256
    Total Energy =                       -463.0043877190802277
  Basis Set: (AUG-CC-PVTZ AUX)
    Blend: AUG-CC-PVTZ-RI
    Molecular point group: c1

    Geometry (in Angstrom), charge = 0, multiplicity = 1:

       Center              X                  Y                   Z               Mass
    ------------   -----------------  -----------------  -----------------  -----------------
         O            0.079203917148     1.018340307044     0.507132640316    15.994914619570
         C           -0.735009082852    -1.042692692956     0.126309640316    12.000000000000
         C            0.695190917148    -1.097538692956     0.061650640316    12.000000000000
         C           -1.064670082852     0.259328307044     0.394466640316    12.000000000000
         C            1.146885917148     0.173461307044     0.302641640316    12.000000000000
         C           -2.435850582852     1.047610007044     0.527528040316    12.000000000000
         C            2.491726917148     0.808166307044     0.340260640316    12.000000000000
         C           -1.676192082852    -2.185865692956    -0.089255359684    12.000000000000
         C            1.519324917148    -2.325392692956    -0.176909359684    12.000000000000
         C           -2.841828082852     1.553000307044    -0.825341359684    12.000000000000
         C            2.819906917148     1.570527307044    -0.951688359684    12.000000000000
         H            3.240420917148     0.026415307044     0.518727640316     1.007825032230
         H            2.537398917148     1.492334307044     1.196761640316     1.007825032230
         H           -2.209119082852     1.818574307044     1.233771640316     1.007825032230
         H           -3.106186082852     0.327768307044     0.948442640316     1.007825032230
         H           -1.416160082852    -3.042647692956     0.543442640316     1.007825032230
         H           -2.705184082852    -1.894168692956     0.145047640316     1.007825032230
         H           -1.658201082852    -2.530211692956    -1.131746359684     1.007825032230
         H            2.520810917148    -2.067367692956    -0.539451359684     1.007825032230
         H            1.637527917148    -2.920537692956     0.737871640316     1.007825032230
         H            1.049807917148    -2.968183692956    -0.929329359684     1.007825032230
         H            2.819680917148     0.889297307044    -1.807001359684     1.007825032230
         H            3.803924917148     2.044810307044    -0.886162359684     1.007825032230
         H            2.070667917148     2.347410307044    -1.132028359684     1.007825032230
         H           -2.092592082852     2.225975307044    -1.254387359684     1.007825032230
         H           -3.776081082852     2.108416307044    -0.701438359684     1.007825032230
         H           -3.015070082852     0.737594307044    -1.534088359684     1.007825032230

  Basis Set: AUG-CC-PVTZ
    Blend: AUG-CC-PVTZ
  Basis Set: (AUG-CC-PVTZ AUX)
    Blend: AUG-CC-PVTZ-JKFIT
	 Reference Energy          =    -463.0043877190802846 [Eh]
	 Singles Energy            =      -0.0000000000000000 [Eh]
	 Same-Spin Energy          =      -0.4967173994389146 [Eh]
	 Opposite-Spin Energy      =      -1.6671620584744411 [Eh]
	 Correlation Energy        =      -2.1638794579133558 [Eh]
	 Total Energy              =    -465.1682671769936519 [Eh]

	 ================> DF-SCS-MP2 Energies <==================
	-----------------------------------------------------------
	 SCS Same-Spin Scale       =       0.3333333333333333 [-]
	 SCS Opposite-Spin Scale   =       1.2000000000000000 [-]
	 SCS Same-Spin Energy      =      -0.1655724664796382 [Eh]
	 SCS Opposite-Spin Energy  =      -2.0005944701693292 [Eh]
	 SCS Correlation Energy    =      -2.1661669366489673 [Eh]
	 SCS Total Energy          =    -465.1705546557292337 [Eh]
	-----------------------------------------------------------

  Dipole Moment: [D]
     X:    -0.0877      Y:    -0.6100      Z:    -0.2284     Total:     0.6573

*** Psi4 exiting successfully. Buy a developer a beer!
