                               Psi4 1.3.2 release

  ==> Input File <==

--------------------------------------------------------------------------
#psi4
#
memory 32 gb

molecule  {
0 1
  O        0.0723890     1.0222580     0.5077940
  C       -0.7418240    -1.0387750     0.1269710
  C        0.6877435    -1.1058781     0.0599284
  C       -1.0830646     0.2602890     0.3949835
  C        1.1400710     0.1773790     0.3033030
  C       -2.3562760     1.0018630     0.5198060
  C        2.4849120     0.8120840     0.3409220
  C       -1.6830070    -2.1819480    -0.0885940
  C        1.5125100    -2.3214750    -0.1762480
  C       -2.8486430     1.5569180    -0.8246800
  C        2.8130920     1.5744450    -0.9510270
  H        3.2336060     0.0303330     0.5193890
  H        2.5305840     1.4962520     1.1974230
  H       -2.2159340     1.8224920     1.2344330
  H       -3.1130010     0.3316860     0.9491040
  H       -1.4229750    -3.0387300     0.5441040
  H       -2.7119990    -1.8902510     0.1457090
  H       -1.6650160    -2.5262940    -1.1310850
  H        2.5139960    -2.0634500    -0.5387900
  H        1.6307130    -2.9166200     0.7385330
  H        1.0429930    -2.9642660    -0.9286680
  H        2.8128660     0.8932150    -1.8063400
  H        3.7971100     2.0487280    -0.8855010
  H        2.0638530     2.3513280    -1.1313670
  H       -2.0994070     2.2298930    -1.2537260
  H       -3.7828960     2.1123340    -0.7007770
  H       -3.0218850     0.7415120    -1.5334270
units angstrom
no_reorient  #important for SAPT in psi4, default
symmetry c1  #important for SAPT in psi4, default
}

set PROPERTIES_ORIGIN ["COM"]
properties('MP2/aug-cc-pvtz', properties = ['dipole'])
--------------------------------------------------------------------------

    Molecular point group: c1
  Charge       = 0
  Multiplicity = 1
  Basis Set: AUG-CC-PVTZ
    Blend: AUG-CC-PVTZ
  Basis Set: (AUG-CC-PVTZ AUX)
    Blend: AUG-CC-PVTZ-JKFIT

    Orbital Energies [Eh]
    ---------------------

    Doubly Occupied:

       1A    -20.597824     2A    -11.271706     3A    -11.269356
       4A    -11.230105     5A    -11.230000     6A    -11.222902
       7A    -11.222498     8A    -11.217141     9A    -11.216160
      10A    -11.215536    11A    -11.214770    12A     -1.425095
      13A     -1.098638    14A     -1.079233    15A     -1.036880
      16A     -0.991022    17A     -0.931486    18A     -0.927049
      19A     -0.870811    20A     -0.815109    21A     -0.747136
      22A     -0.722012    23A     -0.657171    24A     -0.625686
      25A     -0.611605    26A     -0.610213    27A     -0.586643
      28A     -0.584188    29A     -0.567767    30A     -0.556209
      31A     -0.550528    32A     -0.533341    33A     -0.528139
      34A     -0.523181    35A     -0.521420    36A     -0.505191
      37A     -0.495483    38A     -0.493190    39A     -0.483635
      40A     -0.467651    41A     -0.359799    42A     -0.277525

  @DF-RHF Final Energy:  -463.01026808805432

   => Energetics <=

    Nuclear Repulsion Energy =            629.2920157382203570
    One-Electron Energy =               -1876.4225019694956700
    Two-Electron Energy =                 784.1202181432211091
    Total Energy =                       -463.0102680880543176
  Basis Set: (AUG-CC-PVTZ AUX)
    Blend: AUG-CC-PVTZ-RI
    Molecular point group: c1

    Geometry (in Angstrom), charge = 0, multiplicity = 1:

       Center              X                  Y                   Z               Mass
    ------------   -----------------  -----------------  -----------------  -----------------
         O            0.073352430648     1.023458273194     0.507993394332    15.994914619570
         C           -0.740860569352    -1.037574726806     0.127170394332    12.000000000000
         C            0.688706930648    -1.104677826806     0.060127794332    12.000000000000
         C           -1.082101169352     0.261489273194     0.395182894332    12.000000000000
         C            1.141034430648     0.178579273194     0.303502394332    12.000000000000
         C           -2.355312569352     1.003063273194     0.520005394332    12.000000000000
         C            2.485875430648     0.813284273194     0.341121394332    12.000000000000
         C           -1.682043569352    -2.180747726806    -0.088394605668    12.000000000000
         C            1.513473430648    -2.320274726806    -0.176048605668    12.000000000000
         C           -2.847679569352     1.558118273194    -0.824480605668    12.000000000000
         C            2.814055430648     1.575645273194    -0.950827605668    12.000000000000
         H            3.234569430648     0.031533273194     0.519588394332     1.007825032230
         H            2.531547430648     1.497452273194     1.197622394332     1.007825032230
         H           -2.214970569352     1.823692273194     1.234632394332     1.007825032230
         H           -3.112037569352     0.332886273194     0.949303394332     1.007825032230
         H           -1.422011569352    -3.037529726806     0.544303394332     1.007825032230
         H           -2.711035569352    -1.889050726806     0.145908394332     1.007825032230
         H           -1.664052569352    -2.525093726806    -1.130885605668     1.007825032230
         H            2.514959430648    -2.062249726806    -0.538590605668     1.007825032230
         H            1.631676430648    -2.915419726806     0.738732394332     1.007825032230
         H            1.043956430648    -2.963065726806    -0.928468605668     1.007825032230
         H            2.813829430648     0.894415273194    -1.806140605668     1.007825032230
         H            3.798073430648     2.049928273194    -0.885301605668     1.007825032230
         H            2.064816430648     2.352528273194    -1.131167605668     1.007825032230
         H           -2.098443569352     2.231093273194    -1.253526605668     1.007825032230
         H           -3.781932569352     2.113534273194    -0.700577605668     1.007825032230
         H           -3.020921569352     0.742712273194    -1.533227605668     1.007825032230

  Basis Set: AUG-CC-PVTZ
    Blend: AUG-CC-PVTZ
  Basis Set: (AUG-CC-PVTZ AUX)
    Blend: AUG-CC-PVTZ-JKFIT
	 Reference Energy          =    -463.0102680880543176 [Eh]
	 Singles Energy            =      -0.0000000000000000 [Eh]
	 Same-Spin Energy          =      -0.4975534796213890 [Eh]
	 Opposite-Spin Energy      =      -1.6679222416928721 [Eh]
	 Correlation Energy        =      -2.1654757213142610 [Eh]
	 Total Energy              =    -465.1757438093685550 [Eh]

	 ================> DF-SCS-MP2 Energies <==================
	-----------------------------------------------------------
	 SCS Same-Spin Scale       =       0.3333333333333333 [-]
	 SCS Opposite-Spin Scale   =       1.2000000000000000 [-]
	 SCS Same-Spin Energy      =      -0.1658511598737963 [Eh]
	 SCS Opposite-Spin Energy  =      -2.0015066900314462 [Eh]
	 SCS Correlation Energy    =      -2.1673578499052426 [Eh]
	 SCS Total Energy          =    -465.1776259379595331 [Eh]
	-----------------------------------------------------------

  Dipole Moment: [D]
     X:    -0.0446      Y:    -0.6572      Z:    -0.2178     Total:     0.6938

*** Psi4 exiting successfully. Buy a developer a beer!
