                               Psi4 1.3.2 release

  ==> Input File <==

--------------------------------------------------------------------------
#psi4
#
memory 32 gb

molecule  {
0 1
  O        0.0723890     1.0222580     0.5077940
  C       -0.7418240    -1.0387750     0.1269710
  C        0.6883760    -1.0936210     0.0623120
  C       -1.0714850     0.2632460     0.3951280
  C        1.1400710     0.1773790     0.3033030
  C       -2.3562760     1.0018630     0.5198060
  C        2.4849120     0.8120840     0.3409220
  C       -1.6830070    -2.1819480    -0.0885940
  C        1.4574911    -2.2395038    -0.1603218
  C       -2.8486430     1.5569180    -0.8246800
  C        2.8130920     1.5744450    -0.9510270
  H        3.2336060     0.0303330     0.5193890
  H        2.5305840     1.4962520     1.1974230
  H       -2.2159340     1.8224920     1.2344330
  H       -3.1130010     0.3316860     0.9491040
  H       -1.4229750    -3.0387300     0.5441040
  H       -2.7119990    -1.8902510     0.1457090
  H       -1.6650160    -2.5262940    -1.1310850
  H        2.5139960    -2.0634500    -0.5387900
  H        1.6307130    -2.9166200     0.7385330
  H        1.0429930    -2.9642660    -0.9286680
  H        2.8128660     0.8932150    -1.8063400
  H        3.7971100     2.0487280    -0.8855010
  H        2.0638530     2.3513280    -1.1313670
  H       -2.0994070     2.2298930    -1.2537260
  H       -3.7828960     2.1123340    -0.7007770
  H       -3.0218850     0.7415120    -1.5334270
units angstrom
no_reorient  #important for SAPT in psi4, default
symmetry c1  #important for SAPT in psi4, default
}

set PROPERTIES_ORIGIN ["COM"]
properties('MP2/aug-cc-pvtz', properties = ['dipole'])
--------------------------------------------------------------------------

    Molecular point group: c1
  Charge       = 0
  Multiplicity = 1
  Basis Set: AUG-CC-PVTZ
    Blend: AUG-CC-PVTZ
  Basis Set: (AUG-CC-PVTZ AUX)
    Blend: AUG-CC-PVTZ-JKFIT

    Orbital Energies [Eh]
    ---------------------

    Doubly Occupied:

       1A    -20.599488     2A    -11.270802     3A    -11.270406
       4A    -11.230575     5A    -11.230481     6A    -11.226904
       7A    -11.223329     8A    -11.215930     9A    -11.215878
      10A    -11.215080    11A    -11.210748    12A     -1.430659
      13A     -1.108030    14A     -1.080548    15A     -1.037211
      16A     -0.995778    17A     -0.930837    18A     -0.927074
      19A     -0.870663    20A     -0.815537    21A     -0.750403
      22A     -0.725530    23A     -0.661567    24A     -0.630482
      25A     -0.613339    26A     -0.611032    27A     -0.587862
      28A     -0.583832    29A     -0.565054    30A     -0.557617
      31A     -0.545311    32A     -0.536301    33A     -0.527543
      34A     -0.522277    35A     -0.521498    36A     -0.505739
      37A     -0.494821    38A     -0.493232    39A     -0.484516
      40A     -0.461801    41A     -0.357500    42A     -0.278724

  @DF-RHF Final Energy:  -462.99925856044649

   => Energetics <=

    Nuclear Repulsion Energy =            631.5683975719035743
    One-Electron Energy =               -1880.8914365524335608
    Two-Electron Energy =                 786.3237804200833807
    Total Energy =                       -462.9992585604464921
  Basis Set: (AUG-CC-PVTZ AUX)
    Blend: AUG-CC-PVTZ-RI
    Molecular point group: c1

    Geometry (in Angstrom), charge = 0, multiplicity = 1:

       Center              X                  Y                   Z               Mass
    ------------   -----------------  -----------------  -----------------  -----------------
         O            0.076729246394     1.015791807789     0.506537626304    15.994914619570
         C           -0.737483753606    -1.045241192211     0.125714626304    12.000000000000
         C            0.692716246394    -1.100087192211     0.061055626304    12.000000000000
         C           -1.067144753606     0.256779807789     0.393871626304    12.000000000000
         C            1.144411246394     0.170912807789     0.302046626304    12.000000000000
         C           -2.351935753606     0.995396807789     0.518549626304    12.000000000000
         C            2.489252246394     0.805617807789     0.339665626304    12.000000000000
         C           -1.678666753606    -2.188414192211    -0.089850373696    12.000000000000
         C            1.461831346394    -2.245969992211    -0.161578173696    12.000000000000
         C           -2.844302753606     1.550451807789    -0.825936373696    12.000000000000
         C            2.817432246394     1.567978807789    -0.952283373696    12.000000000000
         H            3.237946246394     0.023866807789     0.518132626304     1.007825032230
         H            2.534924246394     1.489785807789     1.196166626304     1.007825032230
         H           -2.211593753606     1.816025807789     1.233176626304     1.007825032230
         H           -3.108660753606     0.325219807789     0.947847626304     1.007825032230
         H           -1.418634753606    -3.045196192211     0.542847626304     1.007825032230
         H           -2.707658753606    -1.896717192211     0.144452626304     1.007825032230
         H           -1.660675753606    -2.532760192211    -1.132341373696     1.007825032230
         H            2.518336246394    -2.069916192211    -0.540046373696     1.007825032230
         H            1.635053246394    -2.923086192211     0.737276626304     1.007825032230
         H            1.047333246394    -2.970732192211    -0.929924373696     1.007825032230
         H            2.817206246394     0.886748807789    -1.807596373696     1.007825032230
         H            3.801450246394     2.042261807789    -0.886757373696     1.007825032230
         H            2.068193246394     2.344861807789    -1.132623373696     1.007825032230
         H           -2.095066753606     2.223426807789    -1.254982373696     1.007825032230
         H           -3.778555753606     2.105867807789    -0.702033373696     1.007825032230
         H           -3.017544753606     0.735045807789    -1.534683373696     1.007825032230

  Basis Set: AUG-CC-PVTZ
    Blend: AUG-CC-PVTZ
  Basis Set: (AUG-CC-PVTZ AUX)
    Blend: AUG-CC-PVTZ-JKFIT
	 Reference Energy          =    -462.9992585604464921 [Eh]
	 Singles Energy            =      -0.0000000000000000 [Eh]
	 Same-Spin Energy          =      -0.4984647798389801 [Eh]
	 Opposite-Spin Energy      =      -1.6686407872517470 [Eh]
	 Correlation Energy        =      -2.1671055670907271 [Eh]
	 Total Energy              =    -465.1663641275372356 [Eh]

	 ================> DF-SCS-MP2 Energies <==================
	-----------------------------------------------------------
	 SCS Same-Spin Scale       =       0.3333333333333333 [-]
	 SCS Opposite-Spin Scale   =       1.2000000000000000 [-]
	 SCS Same-Spin Energy      =      -0.1661549266129934 [Eh]
	 SCS Opposite-Spin Energy  =      -2.0023689447020963 [Eh]
	 SCS Correlation Energy    =      -2.1685238713150898 [Eh]
	 SCS Total Energy          =    -465.1677824317615659 [Eh]
	-----------------------------------------------------------

  Dipole Moment: [D]
     X:    -0.0592      Y:    -0.5991      Z:    -0.2161     Total:     0.6396

*** Psi4 exiting successfully. Buy a developer a beer!
