                               Psi4 1.3.2 release

  ==> Input File <==

--------------------------------------------------------------------------
#psi4
#
memory 32 gb

molecule  {
0 1
  O        0.0723890     1.0222580     0.5077940
  C       -0.7418240    -1.0387750     0.1269710
  C        0.6883760    -1.0936210     0.0623120
  C       -1.0714850     0.2632460     0.3951280
  C        1.1400710     0.1773790     0.3033030
  C       -2.3562760     1.0018630     0.5198060
  C        2.4849120     0.8120840     0.3409220
  C       -1.6830070    -2.1819480    -0.0885940
  C        1.5125100    -2.3214750    -0.1762480
  C       -2.8486430     1.5569180    -0.8246800
  C        2.7914537     1.5897865    -0.9471927
  H        3.2243333     0.0253372     0.5353785
  H        2.5305840     1.4962520     1.1974230
  H       -2.2159340     1.8224920     1.2344330
  H       -3.1130010     0.3316860     0.9491040
  H       -1.4229750    -3.0387300     0.5441040
  H       -2.7119990    -1.8902510     0.1457090
  H       -1.6650160    -2.5262940    -1.1310850
  H        2.5139960    -2.0634500    -0.5387900
  H        1.6307130    -2.9166200     0.7385330
  H        1.0429930    -2.9642660    -0.9286680
  H        2.8128660     0.8932150    -1.8063400
  H        3.7971100     2.0487280    -0.8855010
  H        2.0638530     2.3513280    -1.1313670
  H       -2.0994070     2.2298930    -1.2537260
  H       -3.7828960     2.1123340    -0.7007770
  H       -3.0218850     0.7415120    -1.5334270
units angstrom
no_reorient  #important for SAPT in psi4, default
symmetry c1  #important for SAPT in psi4, default
}

set PROPERTIES_ORIGIN ["COM"]
properties('MP2/aug-cc-pvtz', properties = ['dipole'])
--------------------------------------------------------------------------

    Molecular point group: c1
  Charge       = 0
  Multiplicity = 1
  Basis Set: AUG-CC-PVTZ
    Blend: AUG-CC-PVTZ
  Basis Set: (AUG-CC-PVTZ AUX)
    Blend: AUG-CC-PVTZ-JKFIT

    Orbital Energies [Eh]
    ---------------------

    Doubly Occupied:

       1A    -20.598503     2A    -11.269480     3A    -11.269218
       4A    -11.230099     5A    -11.230081     6A    -11.223142
       7A    -11.222836     8A    -11.216064     9A    -11.215490
      10A    -11.215141    11A    -11.215032    12A     -1.429629
      13A     -1.098678    14A     -1.078995    15A     -1.036258
      16A     -0.990018    17A     -0.932280    18A     -0.927411
      19A     -0.870457    20A     -0.815874    21A     -0.749417
      22A     -0.721650    23A     -0.657896    24A     -0.627181
      25A     -0.611449    26A     -0.609150    27A     -0.587556
      28A     -0.583140    29A     -0.567626    30A     -0.555882
      31A     -0.549977    32A     -0.531535    33A     -0.528579
      34A     -0.523891    35A     -0.521531    36A     -0.507868
      37A     -0.495179    38A     -0.490681    39A     -0.484724
      40A     -0.466547    41A     -0.360688    42A     -0.278769

  @DF-RHF Final Energy:  -463.01112828683972

   => Energetics <=

    Nuclear Repulsion Energy =            629.7105241788837020
    One-Electron Energy =               -1877.2520945930468770
    Two-Electron Energy =                 784.5304421273235675
    Total Energy =                       -463.0111282868397211
  Basis Set: (AUG-CC-PVTZ AUX)
    Blend: AUG-CC-PVTZ-RI
    Molecular point group: c1

    Geometry (in Angstrom), charge = 0, multiplicity = 1:

       Center              X                  Y                   Z               Mass
    ------------   -----------------  -----------------  -----------------  -----------------
         O            0.074157450149     1.021080991876     0.507385562697    15.994914619570
         C           -0.740055549851    -1.039952008124     0.126562562697    12.000000000000
         C            0.690144450149    -1.094798008124     0.061903562697    12.000000000000
         C           -1.069716549851     0.262068991876     0.394719562697    12.000000000000
         C            1.141839450149     0.176201991876     0.302894562697    12.000000000000
         C           -2.354507549851     1.000685991876     0.519397562697    12.000000000000
         C            2.486680450149     0.810906991876     0.340513562697    12.000000000000
         C           -1.681238549851    -2.183125008124    -0.089002437303    12.000000000000
         C            1.514278450149    -2.322652008124    -0.176656437303    12.000000000000
         C           -2.846874549851     1.555740991876    -0.825088437303    12.000000000000
         C            2.793222150149     1.588609491876    -0.947601137303    12.000000000000
         H            3.226101750149     0.024160191876     0.534970062697     1.007825032230
         H            2.532352450149     1.495074991876     1.197014562697     1.007825032230
         H           -2.214165549851     1.821314991876     1.234024562697     1.007825032230
         H           -3.111232549851     0.330508991876     0.948695562697     1.007825032230
         H           -1.421206549851    -3.039907008124     0.543695562697     1.007825032230
         H           -2.710230549851    -1.891428008124     0.145300562697     1.007825032230
         H           -1.663247549851    -2.527471008124    -1.131493437303     1.007825032230
         H            2.515764450149    -2.064627008124    -0.539198437303     1.007825032230
         H            1.632481450149    -2.917797008124     0.738124562697     1.007825032230
         H            1.044761450149    -2.965443008124    -0.929076437303     1.007825032230
         H            2.814634450149     0.892037991876    -1.806748437303     1.007825032230
         H            3.798878450149     2.047550991876    -0.885909437303     1.007825032230
         H            2.065621450149     2.350150991876    -1.131775437303     1.007825032230
         H           -2.097638549851     2.228715991876    -1.254134437303     1.007825032230
         H           -3.781127549851     2.111156991876    -0.701185437303     1.007825032230
         H           -3.020116549851     0.740334991876    -1.533835437303     1.007825032230

  Basis Set: AUG-CC-PVTZ
    Blend: AUG-CC-PVTZ
  Basis Set: (AUG-CC-PVTZ AUX)
    Blend: AUG-CC-PVTZ-JKFIT
	 Reference Energy          =    -463.0111282868397211 [Eh]
	 Singles Energy            =      -0.0000000000000000 [Eh]
	 Same-Spin Energy          =      -0.4971212482093589 [Eh]
	 Opposite-Spin Energy      =      -1.6671737801283619 [Eh]
	 Correlation Energy        =      -2.1642950283377207 [Eh]
	 Total Energy              =    -465.1754233151774542 [Eh]

	 ================> DF-SCS-MP2 Energies <==================
	-----------------------------------------------------------
	 SCS Same-Spin Scale       =       0.3333333333333333 [-]
	 SCS Opposite-Spin Scale   =       1.2000000000000000 [-]
	 SCS Same-Spin Energy      =      -0.1657070827364530 [Eh]
	 SCS Opposite-Spin Energy  =      -2.0006085361540342 [Eh]
	 SCS Correlation Energy    =      -2.1663156188904873 [Eh]
	 SCS Total Energy          =    -465.1774439057302288 [Eh]
	-----------------------------------------------------------

  Dipole Moment: [D]
     X:    -0.0328      Y:    -0.6452      Z:    -0.2114     Total:     0.6798

*** Psi4 exiting successfully. Buy a developer a beer!
