                               Psi4 1.3.2 release

  ==> Input File <==

--------------------------------------------------------------------------
#psi4
#
memory 32 gb

molecule  {
0 1
  O        0.0723890     1.0222580     0.5077940
  C       -0.7418240    -1.0387750     0.1269710
  C        0.6883760    -1.0936210     0.0623120
  C       -1.0714850     0.2632460     0.3951280
  C        1.1400710     0.1773790     0.3033030
  C       -2.3562760     1.0018630     0.5198060
  C        2.4849120     0.8120840     0.3409220
  C       -1.6830070    -2.1819480    -0.0885940
  C        1.5125100    -2.3214750    -0.1762480
  C       -2.8486430     1.5569180    -0.8246800
  C        2.8238740     1.5666869    -0.9527966
  H        3.2381570     0.0329203     0.5113735
  H        2.5305840     1.4962520     1.1974230
  H       -2.2159340     1.8224920     1.2344330
  H       -3.1130010     0.3316860     0.9491040
  H       -1.4229750    -3.0387300     0.5441040
  H       -2.7119990    -1.8902510     0.1457090
  H       -1.6650160    -2.5262940    -1.1310850
  H        2.5139960    -2.0634500    -0.5387900
  H        1.6307130    -2.9166200     0.7385330
  H        1.0429930    -2.9642660    -0.9286680
  H        2.8128660     0.8932150    -1.8063400
  H        3.7971100     2.0487280    -0.8855010
  H        2.0638530     2.3513280    -1.1313670
  H       -2.0994070     2.2298930    -1.2537260
  H       -3.7828960     2.1123340    -0.7007770
  H       -3.0218850     0.7415120    -1.5334270
units angstrom
no_reorient  #important for SAPT in psi4, default
symmetry c1  #important for SAPT in psi4, default
}

set PROPERTIES_ORIGIN ["COM"]
properties('MP2/aug-cc-pvtz', properties = ['dipole'])
--------------------------------------------------------------------------

    Molecular point group: c1
  Charge       = 0
  Multiplicity = 1
  Basis Set: AUG-CC-PVTZ
    Blend: AUG-CC-PVTZ
  Basis Set: (AUG-CC-PVTZ AUX)
    Blend: AUG-CC-PVTZ-JKFIT

    Orbital Energies [Eh]
    ---------------------

    Doubly Occupied:

       1A    -20.598716     2A    -11.269715     3A    -11.269592
       4A    -11.230152     5A    -11.229978     6A    -11.223232
       7A    -11.222913     8A    -11.216320     9A    -11.215495
      10A    -11.215212    11A    -11.214534    12A     -1.429762
      13A     -1.098820    14A     -1.078845    15A     -1.036220
      16A     -0.990122    17A     -0.932375    18A     -0.927707
      19A     -0.870054    20A     -0.815464    21A     -0.749423
      22A     -0.721820    23A     -0.658121    24A     -0.627399
      25A     -0.611142    26A     -0.609844    27A     -0.586641
      28A     -0.583805    29A     -0.567788    30A     -0.555814
      31A     -0.549603    32A     -0.534438    33A     -0.527750
      34A     -0.523933    35A     -0.521524    36A     -0.504892
      37A     -0.494798    38A     -0.493092    39A     -0.482726
      40A     -0.467462    41A     -0.360752    42A     -0.279049

  @DF-RHF Final Energy:  -463.01178435118197

   => Energetics <=

    Nuclear Repulsion Energy =            629.5145301148472754
    One-Electron Energy =               -1876.8585377449371663
    Two-Electron Energy =                 784.3322232789079180
    Total Energy =                       -463.0117843511819729
  Basis Set: (AUG-CC-PVTZ AUX)
    Blend: AUG-CC-PVTZ-RI
    Molecular point group: c1

    Geometry (in Angstrom), charge = 0, multiplicity = 1:

       Center              X                  Y                   Z               Mass
    ------------   -----------------  -----------------  -----------------  -----------------
         O            0.071508389106     1.022852965042     0.507986664266    15.994914619570
         C           -0.742704610894    -1.038180034958     0.127163664266    12.000000000000
         C            0.687495389106    -1.093026034958     0.062504664266    12.000000000000
         C           -1.072365610894     0.263840965042     0.395320664266    12.000000000000
         C            1.139190389106     0.177973965042     0.303495664266    12.000000000000
         C           -2.357156610894     1.002457965042     0.519998664266    12.000000000000
         C            2.484031389106     0.812678965042     0.341114664266    12.000000000000
         C           -1.683887610894    -2.181353034958    -0.088401335734    12.000000000000
         C            1.511629389106    -2.320880034958    -0.176055335734    12.000000000000
         C           -2.849523610894     1.557512965042    -0.824487335734    12.000000000000
         C            2.822993389106     1.567281865042    -0.952603935734    12.000000000000
         H            3.237276389106     0.033515265042     0.511566164266     1.007825032230
         H            2.529703389106     1.496846965042     1.197615664266     1.007825032230
         H           -2.216814610894     1.823086965042     1.234625664266     1.007825032230
         H           -3.113881610894     0.332280965042     0.949296664266     1.007825032230
         H           -1.423855610894    -3.038135034958     0.544296664266     1.007825032230
         H           -2.712879610894    -1.889656034958     0.145901664266     1.007825032230
         H           -1.665896610894    -2.525699034958    -1.130892335734     1.007825032230
         H            2.513115389106    -2.062855034958    -0.538597335734     1.007825032230
         H            1.629832389106    -2.916025034958     0.738725664266     1.007825032230
         H            1.042112389106    -2.963671034958    -0.928475335734     1.007825032230
         H            2.811985389106     0.893809965042    -1.806147335734     1.007825032230
         H            3.796229389106     2.049322965042    -0.885308335734     1.007825032230
         H            2.062972389106     2.351922965042    -1.131174335734     1.007825032230
         H           -2.100287610894     2.230487965042    -1.253533335734     1.007825032230
         H           -3.783776610894     2.112928965042    -0.700584335734     1.007825032230
         H           -3.022765610894     0.742106965042    -1.533234335734     1.007825032230

  Basis Set: AUG-CC-PVTZ
    Blend: AUG-CC-PVTZ
  Basis Set: (AUG-CC-PVTZ AUX)
    Blend: AUG-CC-PVTZ-JKFIT
	 Reference Energy          =    -463.0117843511819729 [Eh]
	 Singles Energy            =      -0.0000000000000000 [Eh]
	 Same-Spin Energy          =      -0.4970997323975276 [Eh]
	 Opposite-Spin Energy      =      -1.6671319120450299 [Eh]
	 Correlation Energy        =      -2.1642316444425576 [Eh]
	 Total Energy              =    -465.1760159956245388 [Eh]

	 ================> DF-SCS-MP2 Energies <==================
	-----------------------------------------------------------
	 SCS Same-Spin Scale       =       0.3333333333333333 [-]
	 SCS Opposite-Spin Scale   =       1.2000000000000000 [-]
	 SCS Same-Spin Energy      =      -0.1656999107991758 [Eh]
	 SCS Opposite-Spin Energy  =      -2.0005582944540357 [Eh]
	 SCS Correlation Energy    =      -2.1662582052532113 [Eh]
	 SCS Total Energy          =    -465.1780425564351731 [Eh]
	-----------------------------------------------------------

  Dipole Moment: [D]
     X:    -0.0300      Y:    -0.6576      Z:    -0.2180     Total:     0.6934

*** Psi4 exiting successfully. Buy a developer a beer!
