                               Psi4 1.3.2 release

  ==> Input File <==

--------------------------------------------------------------------------
#psi4
#
memory 32 gb

molecule  {
0 1
  O        0.0790411     1.0123755     0.5061919
  C       -0.7418240    -1.0387750     0.1269710
  C        0.6883760    -1.0936210     0.0623120
  C       -1.0714850     0.2632460     0.3951280
  C        1.1400710     0.1773790     0.3033030
  C       -2.3627633     0.9907538     0.5180927
  C        2.4849120     0.8120840     0.3409220
  C       -1.6830070    -2.1819480    -0.0885940
  C        1.5125100    -2.3214750    -0.1762480
  C       -2.8486430     1.5569180    -0.8246800
  C        2.8130920     1.5744450    -0.9510270
  H        3.2336060     0.0303330     0.5193890
  H        2.5305840     1.4962520     1.1974230
  H       -2.2159340     1.8224920     1.2344330
  H       -3.1130010     0.3316860     0.9491040
  H       -1.4229750    -3.0387300     0.5441040
  H       -2.7119990    -1.8902510     0.1457090
  H       -1.6650160    -2.5262940    -1.1310850
  H        2.5139960    -2.0634500    -0.5387900
  H        1.6307130    -2.9166200     0.7385330
  H        1.0429930    -2.9642660    -0.9286680
  H        2.8128660     0.8932150    -1.8063400
  H        3.7971100     2.0487280    -0.8855010
  H        2.0638530     2.3513280    -1.1313670
  H       -2.0994070     2.2298930    -1.2537260
  H       -3.7828960     2.1123340    -0.7007770
  H       -3.0218850     0.7415120    -1.5334270
units angstrom
no_reorient  #important for SAPT in psi4, default
symmetry c1  #important for SAPT in psi4, default
}

set PROPERTIES_ORIGIN ["COM"]
properties('MP2/aug-cc-pvtz', properties = ['dipole'])
--------------------------------------------------------------------------

    Molecular point group: c1
  Charge       = 0
  Multiplicity = 1
  Basis Set: AUG-CC-PVTZ
    Blend: AUG-CC-PVTZ
  Basis Set: (AUG-CC-PVTZ AUX)
    Blend: AUG-CC-PVTZ-JKFIT

    Orbital Energies [Eh]
    ---------------------

    Doubly Occupied:

       1A    -20.599039     2A    -11.269209     3A    -11.268902
       4A    -11.230598     5A    -11.229981     6A    -11.223065
       7A    -11.222154     8A    -11.215637     9A    -11.215466
      10A    -11.214807    11A    -11.214256    12A     -1.433656
      13A     -1.098173    14A     -1.079352    15A     -1.036400
      16A     -0.989800    17A     -0.931835    18A     -0.928511
      19A     -0.870406    20A     -0.816266    21A     -0.751124
      22A     -0.721181    23A     -0.659263    24A     -0.628607
      25A     -0.611620    26A     -0.609220    27A     -0.588159
      28A     -0.583198    29A     -0.567686    30A     -0.555528
      31A     -0.549453    32A     -0.533486    33A     -0.528116
      34A     -0.523358    35A     -0.521106    36A     -0.506164
      37A     -0.495593    38A     -0.492215    39A     -0.484705
      40A     -0.466068    41A     -0.359805    42A     -0.278899

  @DF-RHF Final Energy:  -463.01238258504605

   => Energetics <=

    Nuclear Repulsion Energy =            629.8577224375338801
    One-Electron Energy =               -1877.5360743052710859
    Two-Electron Energy =                 784.6659692826910941
    Total Energy =                       -463.0123825850459980
  Basis Set: (AUG-CC-PVTZ AUX)
    Blend: AUG-CC-PVTZ-RI
    Molecular point group: c1

    Geometry (in Angstrom), charge = 0, multiplicity = 1:

       Center              X                  Y                   Z               Mass
    ------------   -----------------  -----------------  -----------------  -----------------
         O            0.078853483850     1.014291069416     0.506495474195    15.994914619570
         C           -0.742011616150    -1.036859430584     0.127274574195    12.000000000000
         C            0.688188383850    -1.091705430584     0.062615574195    12.000000000000
         C           -1.071672616150     0.265161569416     0.395431574195    12.000000000000
         C            1.139883383850     0.179294569416     0.303606574195    12.000000000000
         C           -2.362950916150     0.992669369416     0.518396274195    12.000000000000
         C            2.484724383850     0.813999569416     0.341225574195    12.000000000000
         C           -1.683194616150    -2.180032430584    -0.088290425805    12.000000000000
         C            1.512322383850    -2.319559430584    -0.175944425805    12.000000000000
         C           -2.848830616150     1.558833569416    -0.824376425805    12.000000000000
         C            2.812904383850     1.576360569416    -0.950723425805    12.000000000000
         H            3.233418383850     0.032248569416     0.519692574195     1.007825032230
         H            2.530396383850     1.498167569416     1.197726574195     1.007825032230
         H           -2.216121616150     1.824407569416     1.234736574195     1.007825032230
         H           -3.113188616150     0.333601569416     0.949407574195     1.007825032230
         H           -1.423162616150    -3.036814430584     0.544407574195     1.007825032230
         H           -2.712186616150    -1.888335430584     0.146012574195     1.007825032230
         H           -1.665203616150    -2.524378430584    -1.130781425805     1.007825032230
         H            2.513808383850    -2.061534430584    -0.538486425805     1.007825032230
         H            1.630525383850    -2.914704430584     0.738836574195     1.007825032230
         H            1.042805383850    -2.962350430584    -0.928364425805     1.007825032230
         H            2.812678383850     0.895130569416    -1.806036425805     1.007825032230
         H            3.796922383850     2.050643569416    -0.885197425805     1.007825032230
         H            2.063665383850     2.353243569416    -1.131063425805     1.007825032230
         H           -2.099594616150     2.231808569416    -1.253422425805     1.007825032230
         H           -3.783083616150     2.114249569416    -0.700473425805     1.007825032230
         H           -3.022072616150     0.743427569416    -1.533123425805     1.007825032230

  Basis Set: AUG-CC-PVTZ
    Blend: AUG-CC-PVTZ
  Basis Set: (AUG-CC-PVTZ AUX)
    Blend: AUG-CC-PVTZ-JKFIT
	 Reference Energy          =    -463.0123825850460548 [Eh]
	 Singles Energy            =      -0.0000000000000000 [Eh]
	 Same-Spin Energy          =      -0.4970622851953859 [Eh]
	 Opposite-Spin Energy      =      -1.6667459262857351 [Eh]
	 Correlation Energy        =      -2.1638082114811210 [Eh]
	 Total Energy              =    -465.1761907965271803 [Eh]

	 ================> DF-SCS-MP2 Energies <==================
	-----------------------------------------------------------
	 SCS Same-Spin Scale       =       0.3333333333333333 [-]
	 SCS Opposite-Spin Scale   =       1.2000000000000000 [-]
	 SCS Same-Spin Energy      =      -0.1656874283984620 [Eh]
	 SCS Opposite-Spin Energy  =      -2.0000951115428820 [Eh]
	 SCS Correlation Energy    =      -2.1657825399413442 [Eh]
	 SCS Total Energy          =    -465.1781651249874017 [Eh]
	-----------------------------------------------------------

  Dipole Moment: [D]
     X:    -0.0554      Y:    -0.6176      Z:    -0.2098     Total:     0.6546

*** Psi4 exiting successfully. Buy a developer a beer!
