                               Psi4 1.3.2 release

  ==> Input File <==

--------------------------------------------------------------------------
#psi4
#
memory 32 gb

molecule  {
0 1
  O        0.0723890     1.0222580     0.5077940
  C       -0.7418240    -1.0387750     0.1269710
  C        0.6883760    -1.0936210     0.0623120
  C       -1.0714850     0.2632460     0.3951280
  C        1.1174252     0.1849094     0.3048463
  C       -2.3562760     1.0018630     0.5198060
  C        2.4849120     0.8120840     0.3409220
  C       -1.6830070    -2.1819480    -0.0885940
  C        1.4905551    -2.3354336    -0.1788171
  C       -2.8486430     1.5569180    -0.8246800
  C        2.8130920     1.5744450    -0.9510270
  H        3.2336060     0.0303330     0.5193890
  H        2.5305840     1.4962520     1.1974230
  H       -2.2159340     1.8224920     1.2344330
  H       -3.1130010     0.3316860     0.9491040
  H       -1.4229750    -3.0387300     0.5441040
  H       -2.7119990    -1.8902510     0.1457090
  H       -1.6650160    -2.5262940    -1.1310850
  H        2.5139960    -2.0634500    -0.5387900
  H        1.6307130    -2.9166200     0.7385330
  H        1.0429930    -2.9642660    -0.9286680
  H        2.8128660     0.8932150    -1.8063400
  H        3.7971100     2.0487280    -0.8855010
  H        2.0638530     2.3513280    -1.1313670
  H       -2.0994070     2.2298930    -1.2537260
  H       -3.7828960     2.1123340    -0.7007770
  H       -3.0218850     0.7415120    -1.5334270
units angstrom
no_reorient  #important for SAPT in psi4, default
symmetry c1  #important for SAPT in psi4, default
}

set PROPERTIES_ORIGIN ["COM"]
properties('MP2/aug-cc-pvtz', properties = ['dipole'])
--------------------------------------------------------------------------

    Molecular point group: c1
  Charge       = 0
  Multiplicity = 1
  Basis Set: AUG-CC-PVTZ
    Blend: AUG-CC-PVTZ
  Basis Set: (AUG-CC-PVTZ AUX)
    Blend: AUG-CC-PVTZ-JKFIT

    Orbital Energies [Eh]
    ---------------------

    Doubly Occupied:

       1A    -20.602181     2A    -11.270300     3A    -11.268368
       4A    -11.230236     5A    -11.229905     6A    -11.223302
       7A    -11.223076     8A    -11.215734     9A    -11.215253
      10A    -11.214369    11A    -11.213982    12A     -1.439528
      13A     -1.099582    14A     -1.077479    15A     -1.034928
      16A     -0.989294    17A     -0.933719    18A     -0.928729
      19A     -0.868563    20A     -0.815111    21A     -0.753578
      22A     -0.721382    23A     -0.659956    24A     -0.631418
      25A     -0.610299    26A     -0.608607    27A     -0.587142
      28A     -0.583132    29A     -0.570630    30A     -0.557445
      31A     -0.546467    32A     -0.532061    33A     -0.531361
      34A     -0.526556    35A     -0.520804    36A     -0.505538
      37A     -0.494619    38A     -0.490579    39A     -0.484380
      40A     -0.463270    41A     -0.361181    42A     -0.278816

  @DF-RHF Final Energy:  -463.01154059312046

   => Energetics <=

    Nuclear Repulsion Energy =            629.8646138649352224
    One-Electron Energy =               -1877.5265867542530032
    Two-Electron Energy =                 784.6504322961974367
    Total Energy =                       -463.0115405931204577
  Basis Set: (AUG-CC-PVTZ AUX)
    Blend: AUG-CC-PVTZ-RI
    Molecular point group: c1

    Geometry (in Angstrom), charge = 0, multiplicity = 1:

       Center              X                  Y                   Z               Mass
    ------------   -----------------  -----------------  -----------------  -----------------
         O            0.075907406364     1.022765197200     0.507874885350    15.994914619570
         C           -0.738305593636    -1.038267802800     0.127051885350    12.000000000000
         C            0.691894406364    -1.093113802800     0.062392885350    12.000000000000
         C           -1.067966593636     0.263753197200     0.395208885350    12.000000000000
         C            1.120943606364     0.185416597200     0.304927185350    12.000000000000
         C           -2.352757593636     1.002370197200     0.519886885350    12.000000000000
         C            2.488430406364     0.812591197200     0.341002885350    12.000000000000
         C           -1.679488593636    -2.181440802800    -0.088513114650    12.000000000000
         C            1.494073506364    -2.334926402800    -0.178736214650    12.000000000000
         C           -2.845124593636     1.557425197200    -0.824599114650    12.000000000000
         C            2.816610406364     1.574952197200    -0.950946114650    12.000000000000
         H            3.237124406364     0.030840197200     0.519469885350     1.007825032230
         H            2.534102406364     1.496759197200     1.197503885350     1.007825032230
         H           -2.212415593636     1.822999197200     1.234513885350     1.007825032230
         H           -3.109482593636     0.332193197200     0.949184885350     1.007825032230
         H           -1.419456593636    -3.038222802800     0.544184885350     1.007825032230
         H           -2.708480593636    -1.889743802800     0.145789885350     1.007825032230
         H           -1.661497593636    -2.525786802800    -1.131004114650     1.007825032230
         H            2.517514406364    -2.062942802800    -0.538709114650     1.007825032230
         H            1.634231406364    -2.916112802800     0.738613885350     1.007825032230
         H            1.046511406364    -2.963758802800    -0.928587114650     1.007825032230
         H            2.816384406364     0.893722197200    -1.806259114650     1.007825032230
         H            3.800628406364     2.049235197200    -0.885420114650     1.007825032230
         H            2.067371406364     2.351835197200    -1.131286114650     1.007825032230
         H           -2.095888593636     2.230400197200    -1.253645114650     1.007825032230
         H           -3.779377593636     2.112841197200    -0.700696114650     1.007825032230
         H           -3.018366593636     0.742019197200    -1.533346114650     1.007825032230

  Basis Set: AUG-CC-PVTZ
    Blend: AUG-CC-PVTZ
  Basis Set: (AUG-CC-PVTZ AUX)
    Blend: AUG-CC-PVTZ-JKFIT
	 Reference Energy          =    -463.0115405931204577 [Eh]
	 Singles Energy            =      -0.0000000000000000 [Eh]
	 Same-Spin Energy          =      -0.4969008322262486 [Eh]
	 Opposite-Spin Energy      =      -1.6665827348579985 [Eh]
	 Correlation Energy        =      -2.1634835670842469 [Eh]
	 Total Energy              =    -465.1750241602047140 [Eh]

	 ================> DF-SCS-MP2 Energies <==================
	-----------------------------------------------------------
	 SCS Same-Spin Scale       =       0.3333333333333333 [-]
	 SCS Opposite-Spin Scale   =       1.2000000000000000 [-]
	 SCS Same-Spin Energy      =      -0.1656336107420829 [Eh]
	 SCS Opposite-Spin Energy  =      -1.9998992818295980 [Eh]
	 SCS Correlation Energy    =      -2.1655328925716808 [Eh]
	 SCS Total Energy          =    -465.1770734856921194 [Eh]
	-----------------------------------------------------------

  Dipole Moment: [D]
     X:    -0.0719      Y:    -0.6501      Z:    -0.2081     Total:     0.6864

*** Psi4 exiting successfully. Buy a developer a beer!
