                               Psi4 1.4a3.dev225

  ==> Input File <==

--------------------------------------------------------------------------
#psi4
#
memory 32 gb

molecule  {
0 1
  O        0.0000040    -0.9323440    -0.5200900
  C       -0.7186120     1.1388030    -0.0293360
  C        0.6986000     1.1388089    -0.0293301
  C       -1.1092540    -0.1401520    -0.3350070
  C        1.1092550    -0.1401430    -0.3349960
  C       -2.4197690    -0.8327410    -0.4659430
  C        2.4197760    -0.8327180    -0.4659420
  C       -1.5881550     2.3237520     0.2504950
  C        1.5881310     2.3237650     0.2505070
  C       -2.6404590    -1.8837440     0.6266770
  C        2.6404800    -1.8837320     0.6266650
  H        3.2127060    -0.0780420    -0.4310990
  H        2.4812700    -1.3082390    -1.4528680
  H       -2.4812630    -1.3082740    -1.4528630
  H       -3.2127060    -0.0780720    -0.4311050
  H       -1.4004860     3.1330380    -0.4637010
  H       -2.6480190     2.0627510     0.1871390
  H       -1.4034730     2.7248980     1.2531230
  H        2.6479980     2.0627640     0.1871950
  H        1.4004870     3.1330370    -0.4637120
  H        1.4034130     2.7249310     1.2531200
  H        2.6185650    -1.4170920     1.6153140
  H        3.6057420    -2.3837880     0.5012060
  H        1.8526560    -2.6398250     0.5898280
  H       -1.8526300    -2.6398320     0.5898440
  H       -3.6057190    -2.3838080     0.5012310
  H       -2.6185400    -1.4170920     1.6153210
units angstrom
no_reorient  #important for SAPT in psi4, default
symmetry c1  #important for SAPT in psi4, default
}

set PROPERTIES_ORIGIN ["COM"]
properties('MP2/aug-cc-pvtz', properties = ['dipole'])
--------------------------------------------------------------------------

    Molecular point group: c1
  Charge       = 0
  Multiplicity = 1
  Basis Set: AUG-CC-PVTZ
    Blend: AUG-CC-PVTZ
  Basis Set: (AUG-CC-PVTZ AUX)
    Blend: AUG-CC-PVTZ-JKFIT

    Orbital Energies [Eh]
    ---------------------

    Doubly Occupied:

       1A    -20.597957     2A    -11.270969     3A    -11.270856
       4A    -11.230492     5A    -11.229931     6A    -11.222705
       7A    -11.222607     8A    -11.216864     9A    -11.215464
      10A    -11.213628    11A    -11.213438    12A     -1.431091
      13A     -1.099624    14A     -1.078966    15A     -1.037099
      16A     -0.989537    17A     -0.933111    18A     -0.926056
      19A     -0.870651    20A     -0.816092    21A     -0.750415
      22A     -0.722387    23A     -0.659790    24A     -0.628514
      25A     -0.611768    26A     -0.610146    27A     -0.585469
      28A     -0.581945    29A     -0.568578    30A     -0.555190
      31A     -0.551387    32A     -0.533489    33A     -0.530435
      34A     -0.524329    35A     -0.515940    36A     -0.505858
      37A     -0.492433    38A     -0.491605    39A     -0.484782
      40A     -0.470093    41A     -0.362702    42A     -0.278121

  @DF-RHF Final Energy:  -463.01284507549190

   => Energetics <=

    Nuclear Repulsion Energy =            630.1262951229280134
    One-Electron Energy =               -1878.0732516947277873
    Two-Electron Energy =                 784.9341114963078780
    Total Energy =                       -463.0128450754918958
  Basis Set: (AUG-CC-PVTZ AUX)
    Blend: AUG-CC-PVTZ-RI
    Molecular point group: c1

    Geometry (in Angstrom), charge = 0, multiplicity = 1:

       Center              X                  Y                   Z               Mass
    ------------   -----------------  -----------------  -----------------  -----------------
         O            0.001581825604    -0.931153133053    -0.496640181502    15.994914619570
         C           -0.717034174396     1.139993866947    -0.005886181502    12.000000000000
         C            0.700177825604     1.139999766947    -0.005880281502    12.000000000000
         C           -1.107676174396    -0.138961133053    -0.311557181502    12.000000000000
         C            1.110832825604    -0.138952133053    -0.311546181502    12.000000000000
         C           -2.418191174396    -0.831550133053    -0.442493181502    12.000000000000
         C            2.421353825604    -0.831527133053    -0.442492181502    12.000000000000
         C           -1.586577174396     2.324942866947     0.273944818498    12.000000000000
         C            1.589708825604     2.324955866947     0.273956818498    12.000000000000
         C           -2.638881174396    -1.882553133053     0.650126818498    12.000000000000
         C            2.642057825604    -1.882541133053     0.650114818498    12.000000000000
         H            3.214283825604    -0.076851133053    -0.407649181502     1.007825032230
         H            2.482847825604    -1.307048133053    -1.429418181502     1.007825032230
         H           -2.479685174396    -1.307083133053    -1.429413181502     1.007825032230
         H           -3.211128174396    -0.076881133053    -0.407655181502     1.007825032230
         H           -1.398908174396     3.134228866947    -0.440251181502     1.007825032230
         H           -2.646441174396     2.063941866947     0.210588818498     1.007825032230
         H           -1.401895174396     2.726088866947     1.276572818498     1.007825032230
         H            2.649575825604     2.063954866947     0.210644818498     1.007825032230
         H            1.402064825604     3.134227866947    -0.440262181502     1.007825032230
         H            1.404990825604     2.726121866947     1.276569818498     1.007825032230
         H            2.620142825604    -1.415901133053     1.638763818498     1.007825032230
         H            3.607319825604    -2.382597133053     0.524655818498     1.007825032230
         H            1.854233825604    -2.638634133053     0.613277818498     1.007825032230
         H           -1.851052174396    -2.638641133053     0.613293818498     1.007825032230
         H           -3.604141174396    -2.382617133053     0.524680818498     1.007825032230
         H           -2.616962174396    -1.415901133053     1.638770818498     1.007825032230

  Basis Set: AUG-CC-PVTZ
    Blend: AUG-CC-PVTZ
  Basis Set: (AUG-CC-PVTZ AUX)
    Blend: AUG-CC-PVTZ-JKFIT
	 Reference Energy          =    -463.0128450754918958 [Eh]
	 Singles Energy            =      -0.0000000000000000 [Eh]
	 Same-Spin Energy          =      -0.4972611155740961 [Eh]
	 Opposite-Spin Energy      =      -1.6671085786983006 [Eh]
	 Correlation Energy        =      -2.1643696942723967 [Eh]
	 Total Energy              =    -465.1772147697643049 [Eh]

	 ================> DF-SCS-MP2 Energies <==================
	-----------------------------------------------------------
	 SCS Same-Spin Scale       =       0.3333333333333333 [-]
	 SCS Opposite-Spin Scale   =       1.2000000000000000 [-]
	 SCS Same-Spin Energy      =      -0.1657537051913654 [Eh]
	 SCS Opposite-Spin Energy  =      -2.0005302944379606 [Eh]
	 SCS Correlation Energy    =      -2.1662839996293259 [Eh]
	 SCS Total Energy          =    -465.1791290751212387 [Eh]
	-----------------------------------------------------------

  Dipole Moment: [D]
     X:    -0.0004      Y:     0.6297      Z:     0.2229     Total:     0.6679

*** Psi4 exiting successfully. Buy a developer a beer!
