                               Psi4 1.3.2 release

  ==> Input File <==

--------------------------------------------------------------------------
#psi4
#
memory 32 gb

molecule  {
0 1
  O        0.0723890     1.0222580     0.5077940
  C       -0.7418240    -1.0387750     0.1269710
  C        0.6883760    -1.0936210     0.0623120
  C       -1.1196242     0.4533756     0.4342860
  C        1.1400710     0.1773790     0.3033030
  C       -2.3562760     1.0018630     0.5198060
  C        2.4849120     0.8120840     0.3409220
  C       -1.6830070    -2.1819480    -0.0885940
  C        1.5125100    -2.3214750    -0.1762480
  C       -2.8486430     1.5569180    -0.8246800
  C        2.8130920     1.5744450    -0.9510270
  H        3.2336060     0.0303330     0.5193890
  H        2.5305840     1.4962520     1.1974230
  H       -2.2159340     1.8224920     1.2344330
  H       -3.1130010     0.3316860     0.9491040
  H       -1.4229750    -3.0387300     0.5441040
  H       -2.7119990    -1.8902510     0.1457090
  H       -1.6650160    -2.5262940    -1.1310850
  H        2.5139960    -2.0634500    -0.5387900
  H        1.6307130    -2.9166200     0.7385330
  H        1.0429930    -2.9642660    -0.9286680
  H        2.8128660     0.8932150    -1.8063400
  H        3.7971100     2.0487280    -0.8855010
  H        2.0638530     2.3513280    -1.1313670
  H       -2.0994070     2.2298930    -1.2537260
  H       -3.7828960     2.1123340    -0.7007770
  H       -3.0218850     0.7415120    -1.5334270
units angstrom
no_reorient  #important for SAPT in psi4, default
symmetry c1  #important for SAPT in psi4, default
}

set PROPERTIES_ORIGIN ["COM"]
properties('MP2/aug-cc-pvtz', properties = ['dipole'])
--------------------------------------------------------------------------

    Molecular point group: c1
  Charge       = 0
  Multiplicity = 1
  Basis Set: AUG-CC-PVTZ
    Blend: AUG-CC-PVTZ
  Basis Set: (AUG-CC-PVTZ AUX)
    Blend: AUG-CC-PVTZ-JKFIT

    Orbital Energies [Eh]
    ---------------------

    Doubly Occupied:

       1A    -20.611876     2A    -11.286544     3A    -11.266667
       4A    -11.230149     5A    -11.227717     6A    -11.224043
       7A    -11.223371     8A    -11.220162     9A    -11.218483
      10A    -11.217287    11A    -11.213635    12A     -1.448725
      13A     -1.101566    14A     -1.086885    15A     -1.042283
      16A     -0.982452    17A     -0.939397    18A     -0.918229
      19A     -0.880532    20A     -0.818814    21A     -0.747377
      22A     -0.716538    23A     -0.672348    24A     -0.632410
      25A     -0.621896    26A     -0.614390    27A     -0.596958
      28A     -0.580321    29A     -0.568993    30A     -0.552931
      31A     -0.547277    32A     -0.538891    33A     -0.532757
      34A     -0.528561    35A     -0.517987    36A     -0.510133
      37A     -0.503725    38A     -0.491757    39A     -0.479846
      40A     -0.440064    41A     -0.349997    42A     -0.250372

  @DF-RHF Final Energy:  -462.95279759306896

   => Energetics <=

    Nuclear Repulsion Energy =            628.6188392577429340
    One-Electron Energy =               -1874.8345834059218760
    Two-Electron Energy =                 783.2629465551101475
    Total Energy =                       -462.9527975930689081
  Basis Set: (AUG-CC-PVTZ AUX)
    Blend: AUG-CC-PVTZ-RI
    Molecular point group: c1

    Geometry (in Angstrom), charge = 0, multiplicity = 1:

       Center              X                  Y                   Z               Mass
    ------------   -----------------  -----------------  -----------------  -----------------
         O            0.076186541046     1.007259729051     0.504704985041    15.994914619570
         C           -0.738026458954    -1.053773270949     0.123881985041    12.000000000000
         C            0.692173541046    -1.108619270949     0.059222985041    12.000000000000
         C           -1.115826658954     0.438377329051     0.431196985041    12.000000000000
         C            1.143868541046     0.162380729051     0.300213985041    12.000000000000
         C           -2.352478458954     0.986864729051     0.516716985041    12.000000000000
         C            2.488709541046     0.797085729051     0.337832985041    12.000000000000
         C           -1.679209458954    -2.196946270949    -0.091683014959    12.000000000000
         C            1.516307541046    -2.336473270949    -0.179337014959    12.000000000000
         C           -2.844845458954     1.541919729051    -0.827769014959    12.000000000000
         C            2.816889541046     1.559446729051    -0.954116014959    12.000000000000
         H            3.237403541046     0.015334729051     0.516299985041     1.007825032230
         H            2.534381541046     1.481253729051     1.194333985041     1.007825032230
         H           -2.212136458954     1.807493729051     1.231343985041     1.007825032230
         H           -3.109203458954     0.316687729051     0.946014985041     1.007825032230
         H           -1.419177458954    -3.053728270949     0.541014985041     1.007825032230
         H           -2.708201458954    -1.905249270949     0.142619985041     1.007825032230
         H           -1.661218458954    -2.541292270949    -1.134174014959     1.007825032230
         H            2.517793541046    -2.078448270949    -0.541879014959     1.007825032230
         H            1.634510541046    -2.931618270949     0.735443985041     1.007825032230
         H            1.046790541046    -2.979264270949    -0.931757014959     1.007825032230
         H            2.816663541046     0.878216729051    -1.809429014959     1.007825032230
         H            3.800907541046     2.033729729051    -0.888590014959     1.007825032230
         H            2.067650541046     2.336329729051    -1.134456014959     1.007825032230
         H           -2.095609458954     2.214894729051    -1.256815014959     1.007825032230
         H           -3.779098458954     2.097335729051    -0.703866014959     1.007825032230
         H           -3.018087458954     0.726513729051    -1.536516014959     1.007825032230

  Basis Set: AUG-CC-PVTZ
    Blend: AUG-CC-PVTZ
  Basis Set: (AUG-CC-PVTZ AUX)
    Blend: AUG-CC-PVTZ-JKFIT
	 Reference Energy          =    -462.9527975930689649 [Eh]
	 Singles Energy            =      -0.0000000000000000 [Eh]
	 Same-Spin Energy          =      -0.5038061120850581 [Eh]
	 Opposite-Spin Energy      =      -1.6753271889762364 [Eh]
	 Correlation Energy        =      -2.1791333010612943 [Eh]
	 Total Energy              =    -465.1319308941302779 [Eh]

	 ================> DF-SCS-MP2 Energies <==================
	-----------------------------------------------------------
	 SCS Same-Spin Scale       =       0.3333333333333333 [-]
	 SCS Opposite-Spin Scale   =       1.2000000000000000 [-]
	 SCS Same-Spin Energy      =      -0.1679353706950193 [Eh]
	 SCS Opposite-Spin Energy  =      -2.0103926267714836 [Eh]
	 SCS Correlation Energy    =      -2.1783279974665031 [Eh]
	 SCS Total Energy          =    -465.1311255905354756 [Eh]
	-----------------------------------------------------------

  Dipole Moment: [D]
     X:     0.0503      Y:    -0.3792      Z:    -0.1577     Total:     0.4138

*** Psi4 exiting successfully. Buy a developer a beer!
