                               Psi4 1.3.2 release

  ==> Input File <==

--------------------------------------------------------------------------
#psi4
#
memory 32 gb

molecule  {
0 1
  O        0.0723890     1.0222580     0.5077940
  C       -0.7418240    -1.0387750     0.1269710
  C        0.5885513    -1.0897929     0.0668251
  C       -1.0714850     0.2632460     0.3951280
  C        1.1400710     0.1773790     0.3033030
  C       -2.3562760     1.0018630     0.5198060
  C        2.4849120     0.8120840     0.3409220
  C       -1.6830070    -2.1819480    -0.0885940
  C        1.5125100    -2.3214750    -0.1762480
  C       -2.8486430     1.5569180    -0.8246800
  C        2.8130920     1.5744450    -0.9510270
  H        3.2336060     0.0303330     0.5193890
  H        2.5305840     1.4962520     1.1974230
  H       -2.2159340     1.8224920     1.2344330
  H       -3.1130010     0.3316860     0.9491040
  H       -1.4229750    -3.0387300     0.5441040
  H       -2.7119990    -1.8902510     0.1457090
  H       -1.6650160    -2.5262940    -1.1310850
  H        2.5139960    -2.0634500    -0.5387900
  H        1.6307130    -2.9166200     0.7385330
  H        1.0429930    -2.9642660    -0.9286680
  H        2.8128660     0.8932150    -1.8063400
  H        3.7971100     2.0487280    -0.8855010
  H        2.0638530     2.3513280    -1.1313670
  H       -2.0994070     2.2298930    -1.2537260
  H       -3.7828960     2.1123340    -0.7007770
  H       -3.0218850     0.7415120    -1.5334270
units angstrom
no_reorient  #important for SAPT in psi4, default
symmetry c1  #important for SAPT in psi4, default
}

set PROPERTIES_ORIGIN ["COM"]
properties('MP2/aug-cc-pvtz', properties = ['dipole'])
--------------------------------------------------------------------------

    Molecular point group: c1
  Charge       = 0
  Multiplicity = 1
  Basis Set: AUG-CC-PVTZ
    Blend: AUG-CC-PVTZ
  Basis Set: (AUG-CC-PVTZ AUX)
    Blend: AUG-CC-PVTZ-JKFIT

    Orbital Energies [Eh]
    ---------------------

    Doubly Occupied:

       1A    -20.602196     2A    -11.269755     3A    -11.269075
       4A    -11.232401     5A    -11.229841     6A    -11.224090
       7A    -11.223923     8A    -11.215253     9A    -11.215137
      10A    -11.214156    11A    -11.208051    12A     -1.432147
      13A     -1.111010    14A     -1.076106    15A     -1.037754
      16A     -0.982788    17A     -0.935146    18A     -0.923861
      19A     -0.872294    20A     -0.814009    21A     -0.744921
      22A     -0.738160    23A     -0.658447    24A     -0.627640
      25A     -0.611190    26A     -0.608914    27A     -0.587071
      28A     -0.582560    29A     -0.567276    30A     -0.552294
      31A     -0.546725    32A     -0.539498    33A     -0.528733
      34A     -0.524032    35A     -0.510548    36A     -0.504689
      37A     -0.496925    38A     -0.487409    39A     -0.480257
      40A     -0.478104    41A     -0.373889    42A     -0.268415

  @DF-RHF Final Energy:  -462.99518700644063

   => Energetics <=

    Nuclear Repulsion Energy =            630.3683222996321547
    One-Electron Energy =               -1878.5136356767038706
    Two-Electron Energy =                 785.1501263706310283
    Total Energy =                       -462.9951870064406876
  Basis Set: (AUG-CC-PVTZ AUX)
    Blend: AUG-CC-PVTZ-RI
    Molecular point group: c1

    Geometry (in Angstrom), charge = 0, multiplicity = 1:

       Center              X                  Y                   Z               Mass
    ------------   -----------------  -----------------  -----------------  -----------------
         O            0.080263753316     1.021956128656     0.507437949052    15.994914619570
         C           -0.733949246684    -1.039076871344     0.126614949052    12.000000000000
         C            0.596426053316    -1.090094771344     0.066469049052    12.000000000000
         C           -1.063610246684     0.262944128656     0.394771949052    12.000000000000
         C            1.147945753316     0.177077128656     0.302946949052    12.000000000000
         C           -2.348401246684     1.001561128656     0.519449949052    12.000000000000
         C            2.492786753316     0.811782128656     0.340565949052    12.000000000000
         C           -1.675132246684    -2.182249871344    -0.088950050948    12.000000000000
         C            1.520384753316    -2.321776871344    -0.176604050948    12.000000000000
         C           -2.840768246684     1.556616128656    -0.825036050948    12.000000000000
         C            2.820966753316     1.574143128656    -0.951383050948    12.000000000000
         H            3.241480753316     0.030031128656     0.519032949052     1.007825032230
         H            2.538458753316     1.495950128656     1.197066949052     1.007825032230
         H           -2.208059246684     1.822190128656     1.234076949052     1.007825032230
         H           -3.105126246684     0.331384128656     0.948747949052     1.007825032230
         H           -1.415100246684    -3.039031871344     0.543747949052     1.007825032230
         H           -2.704124246684    -1.890552871344     0.145352949052     1.007825032230
         H           -1.657141246684    -2.526595871344    -1.131441050948     1.007825032230
         H            2.521870753316    -2.063751871344    -0.539146050948     1.007825032230
         H            1.638587753316    -2.916921871344     0.738176949052     1.007825032230
         H            1.050867753316    -2.964567871344    -0.929024050948     1.007825032230
         H            2.820740753316     0.892913128656    -1.806696050948     1.007825032230
         H            3.804984753316     2.048426128656    -0.885857050948     1.007825032230
         H            2.071727753316     2.351026128656    -1.131723050948     1.007825032230
         H           -2.091532246684     2.229591128656    -1.254082050948     1.007825032230
         H           -3.775021246684     2.112032128656    -0.701133050948     1.007825032230
         H           -3.014010246684     0.741210128656    -1.533783050948     1.007825032230

  Basis Set: AUG-CC-PVTZ
    Blend: AUG-CC-PVTZ
  Basis Set: (AUG-CC-PVTZ AUX)
    Blend: AUG-CC-PVTZ-JKFIT
	 Reference Energy          =    -462.9951870064406307 [Eh]
	 Singles Energy            =      -0.0000000000000000 [Eh]
	 Same-Spin Energy          =      -0.4994221336825850 [Eh]
	 Opposite-Spin Energy      =      -1.6699501590645769 [Eh]
	 Correlation Energy        =      -2.1693722927471617 [Eh]
	 Total Energy              =    -465.1645592991877720 [Eh]

	 ================> DF-SCS-MP2 Energies <==================
	-----------------------------------------------------------
	 SCS Same-Spin Scale       =       0.3333333333333333 [-]
	 SCS Opposite-Spin Scale   =       1.2000000000000000 [-]
	 SCS Same-Spin Energy      =      -0.1664740445608617 [Eh]
	 SCS Opposite-Spin Energy  =      -2.0039401908774921 [Eh]
	 SCS Correlation Energy    =      -2.1704142354383538 [Eh]
	 SCS Total Energy          =    -465.1656012418789601 [Eh]
	-----------------------------------------------------------

  Dipole Moment: [D]
     X:    -0.0422      Y:    -0.5989      Z:    -0.2025     Total:     0.6336

*** Psi4 exiting successfully. Buy a developer a beer!
