                               Psi4 1.3.2 release

  ==> Input File <==

--------------------------------------------------------------------------
#psi4
#
memory 32 gb

molecule  {
0 1
  O        0.1192890     1.0761934     0.5171225
  C       -0.7418240    -1.0387750     0.1269710
  C        0.7566609    -1.1146431     0.0558730
  C       -1.0714850     0.2632460     0.3951280
  C        1.1400710     0.1773790     0.3033030
  C       -2.3562760     1.0018630     0.5198060
  C        2.4849120     0.8120840     0.3409220
  C       -1.6830070    -2.1819480    -0.0885940
  C        1.5125100    -2.3214750    -0.1762480
  C       -2.8486430     1.5569180    -0.8246800
  C        2.8130920     1.5744450    -0.9510270
  H        3.2336060     0.0303330     0.5193890
  H        2.5305840     1.4962520     1.1974230
  H       -2.2159340     1.8224920     1.2344330
  H       -3.1130010     0.3316860     0.9491040
  H       -1.4229750    -3.0387300     0.5441040
  H       -2.7119990    -1.8902510     0.1457090
  H       -1.6650160    -2.5262940    -1.1310850
  H        2.5139960    -2.0634500    -0.5387900
  H        1.6307130    -2.9166200     0.7385330
  H        1.0429930    -2.9642660    -0.9286680
  H        2.8128660     0.8932150    -1.8063400
  H        3.7971100     2.0487280    -0.8855010
  H        2.0638530     2.3513280    -1.1313670
  H       -2.0994070     2.2298930    -1.2537260
  H       -3.7828960     2.1123340    -0.7007770
  H       -3.0218850     0.7415120    -1.5334270
units angstrom
no_reorient  #important for SAPT in psi4, default
symmetry c1  #important for SAPT in psi4, default
}

set PROPERTIES_ORIGIN ["COM"]
properties('MP2/aug-cc-pvtz', properties = ['dipole'])
--------------------------------------------------------------------------

    Molecular point group: c1
  Charge       = 0
  Multiplicity = 1
  Basis Set: AUG-CC-PVTZ
    Blend: AUG-CC-PVTZ
  Basis Set: (AUG-CC-PVTZ AUX)
    Blend: AUG-CC-PVTZ-JKFIT

    Orbital Energies [Eh]
    ---------------------

    Doubly Occupied:

       1A    -20.597101     2A    -11.274277     3A    -11.274200
       4A    -11.231104     5A    -11.227798     6A    -11.226515
       7A    -11.225322     8A    -11.222281     9A    -11.219082
      10A    -11.215286    11A    -11.213084    12A     -1.407601
      13A     -1.098619    14A     -1.077212    15A     -1.034173
      16A     -0.997640    17A     -0.934598    18A     -0.923559
      19A     -0.867307    20A     -0.812798    21A     -0.741689
      22A     -0.714291    23A     -0.652518    24A     -0.622545
      25A     -0.611353    26A     -0.609348    27A     -0.586268
      28A     -0.581387    29A     -0.569316    30A     -0.560606
      31A     -0.556624    32A     -0.540228    33A     -0.530430
      34A     -0.524590    35A     -0.521395    36A     -0.503603
      37A     -0.493250    38A     -0.492247    39A     -0.480160
      40A     -0.455297    41A     -0.357834    42A     -0.283351

  @DF-RHF Final Energy:  -462.99923560203757

   => Energetics <=

    Nuclear Repulsion Energy =            627.2491314237915958
    One-Electron Energy =               -1872.3609638782927505
    Two-Electron Energy =                 782.1125968524636392
    Total Energy =                       -462.9992356020375155
  Basis Set: (AUG-CC-PVTZ AUX)
    Blend: AUG-CC-PVTZ-RI
    Molecular point group: c1

    Geometry (in Angstrom), charge = 0, multiplicity = 1:

       Center              X                  Y                   Z               Mass
    ------------   -----------------  -----------------  -----------------  -----------------
         O            0.108971046236     1.072180712914     0.516649545636    15.994914619570
         C           -0.752141953764    -1.042787687086     0.126498045636    12.000000000000
         C            0.746342946236    -1.118655787086     0.055400045636    12.000000000000
         C           -1.081802953764     0.259233312914     0.394655045636    12.000000000000
         C            1.129753046236     0.173366312914     0.302830045636    12.000000000000
         C           -2.366593953764     0.997850312914     0.519333045636    12.000000000000
         C            2.474594046236     0.808071312914     0.340449045636    12.000000000000
         C           -1.693324953764    -2.185960687086    -0.089066954364    12.000000000000
         C            1.502192046236    -2.325487687086    -0.176720954364    12.000000000000
         C           -2.858960953764     1.552905312914    -0.825152954364    12.000000000000
         C            2.802774046236     1.570432312914    -0.951499954364    12.000000000000
         H            3.223288046236     0.026320312914     0.518916045636     1.007825032230
         H            2.520266046236     1.492239312914     1.196950045636     1.007825032230
         H           -2.226251953764     1.818479312914     1.233960045636     1.007825032230
         H           -3.123318953764     0.327673312914     0.948631045636     1.007825032230
         H           -1.433292953764    -3.042742687086     0.543631045636     1.007825032230
         H           -2.722316953764    -1.894263687086     0.145236045636     1.007825032230
         H           -1.675333953764    -2.530306687086    -1.131557954364     1.007825032230
         H            2.503678046236    -2.067462687086    -0.539262954364     1.007825032230
         H            1.620395046236    -2.920632687086     0.738060045636     1.007825032230
         H            1.032675046236    -2.968278687086    -0.929140954364     1.007825032230
         H            2.802548046236     0.889202312914    -1.806812954364     1.007825032230
         H            3.786792046236     2.044715312914    -0.885973954364     1.007825032230
         H            2.053535046236     2.347315312914    -1.131839954364     1.007825032230
         H           -2.109724953764     2.225880312914    -1.254198954364     1.007825032230
         H           -3.793213953764     2.108321312914    -0.701249954364     1.007825032230
         H           -3.032202953764     0.737499312914    -1.533899954364     1.007825032230

  Basis Set: AUG-CC-PVTZ
    Blend: AUG-CC-PVTZ
  Basis Set: (AUG-CC-PVTZ AUX)
    Blend: AUG-CC-PVTZ-JKFIT
	 Reference Energy          =    -462.9992356020375723 [Eh]
	 Singles Energy            =      -0.0000000000000000 [Eh]
	 Same-Spin Energy          =      -0.4969373448867017 [Eh]
	 Opposite-Spin Energy      =      -1.6693643778924494 [Eh]
	 Correlation Energy        =      -2.1663017227791510 [Eh]
	 Total Energy              =    -465.1655373248167393 [Eh]

	 ================> DF-SCS-MP2 Energies <==================
	-----------------------------------------------------------
	 SCS Same-Spin Scale       =       0.3333333333333333 [-]
	 SCS Opposite-Spin Scale   =       1.2000000000000000 [-]
	 SCS Same-Spin Energy      =      -0.1656457816289006 [Eh]
	 SCS Opposite-Spin Energy  =      -2.0032372534709393 [Eh]
	 SCS Correlation Energy    =      -2.1688830350998400 [Eh]
	 SCS Total Energy          =    -465.1681186371374110 [Eh]
	-----------------------------------------------------------

  Dipole Moment: [D]
     X:    -0.2035      Y:    -0.9138      Z:    -0.2586     Total:     0.9713

*** Psi4 exiting successfully. Buy a developer a beer!
