                               Psi4 1.3.2 release

  ==> Input File <==

--------------------------------------------------------------------------
#psi4
#
memory 32 gb

molecule  {
0 1
  O        0.1191850     1.0766445     0.5147155
  C       -0.7418240    -1.0387750     0.1269710
  C        0.6883760    -1.0936210     0.0623120
  C       -1.0714850     0.2632460     0.3951280
  C        1.1400710     0.1773790     0.3033030
  C       -2.3562760     1.0018630     0.5198060
  C        2.4500511     0.8803560     0.3546682
  C       -1.6830070    -2.1819480    -0.0885940
  C        1.5125100    -2.3214750    -0.1762480
  C       -2.8486430     1.5569180    -0.8246800
  C        2.8130920     1.5744450    -0.9510270
  H        3.2336060     0.0303330     0.5193890
  H        2.5305840     1.4962520     1.1974230
  H       -2.2159340     1.8224920     1.2344330
  H       -3.1130010     0.3316860     0.9491040
  H       -1.4229750    -3.0387300     0.5441040
  H       -2.7119990    -1.8902510     0.1457090
  H       -1.6650160    -2.5262940    -1.1310850
  H        2.5139960    -2.0634500    -0.5387900
  H        1.6307130    -2.9166200     0.7385330
  H        1.0429930    -2.9642660    -0.9286680
  H        2.8128660     0.8932150    -1.8063400
  H        3.7971100     2.0487280    -0.8855010
  H        2.0638530     2.3513280    -1.1313670
  H       -2.0994070     2.2298930    -1.2537260
  H       -3.7828960     2.1123340    -0.7007770
  H       -3.0218850     0.7415120    -1.5334270
units angstrom
no_reorient  #important for SAPT in psi4, default
symmetry c1  #important for SAPT in psi4, default
}

set PROPERTIES_ORIGIN ["COM"]
properties('MP2/aug-cc-pvtz', properties = ['dipole'])
--------------------------------------------------------------------------

    Molecular point group: c1
  Charge       = 0
  Multiplicity = 1
  Basis Set: AUG-CC-PVTZ
    Blend: AUG-CC-PVTZ
  Basis Set: (AUG-CC-PVTZ AUX)
    Blend: AUG-CC-PVTZ-JKFIT

    Orbital Energies [Eh]
    ---------------------

    Doubly Occupied:

       1A    -20.596200     2A    -11.273571     3A    -11.272314
       4A    -11.230534     5A    -11.228674     6A    -11.227585
       7A    -11.223775     8A    -11.223665     9A    -11.217780
      10A    -11.215099    11A    -11.213623    12A     -1.408841
      13A     -1.103667    14A     -1.075831    15A     -1.036180
      16A     -0.992282    17A     -0.936067    18A     -0.922680
      19A     -0.868947    20A     -0.813338    21A     -0.738111
      22A     -0.725649    23A     -0.653913    24A     -0.621819
      25A     -0.613125    26A     -0.606864    27A     -0.586545
      28A     -0.579770    29A     -0.567787    30A     -0.557534
      31A     -0.551121    32A     -0.533620    33A     -0.528153
      34A     -0.527211    35A     -0.523615    36A     -0.508979
      37A     -0.493393    38A     -0.492149    39A     -0.471921
      40A     -0.464530    41A     -0.366514    42A     -0.279773

  @DF-RHF Final Energy:  -462.99608693039011

   => Energetics <=

    Nuclear Repulsion Energy =            628.1009836845900054
    One-Electron Energy =               -1874.0486508637486622
    Two-Electron Energy =                 782.9515802487684368
    Total Energy =                       -462.9960869303901063
  Basis Set: (AUG-CC-PVTZ AUX)
    Blend: AUG-CC-PVTZ-RI
    Molecular point group: c1

    Geometry (in Angstrom), charge = 0, multiplicity = 1:

       Center              X                  Y                   Z               Mass
    ------------   -----------------  -----------------  -----------------  -----------------
         O            0.117014641115     1.065540413430     0.512903323402    15.994914619570
         C           -0.743994358885    -1.049879086570     0.125158823402    12.000000000000
         C            0.686205641115    -1.104725086570     0.060499823402    12.000000000000
         C           -1.073655358885     0.252141913430     0.393315823402    12.000000000000
         C            1.137900641115     0.166274913430     0.301490823402    12.000000000000
         C           -2.358446358885     0.990758913430     0.517993823402    12.000000000000
         C            2.447880741115     0.869251913430     0.352856023402    12.000000000000
         C           -1.685177358885    -2.193052086570    -0.090406176598    12.000000000000
         C            1.510339641115    -2.332579086570    -0.178060176598    12.000000000000
         C           -2.850813358885     1.545813913430    -0.826492176598    12.000000000000
         C            2.810921641115     1.563340913430    -0.952839176598    12.000000000000
         H            3.231435641115     0.019228913430     0.517576823402     1.007825032230
         H            2.528413641115     1.485147913430     1.195610823402     1.007825032230
         H           -2.218104358885     1.811387913430     1.232620823402     1.007825032230
         H           -3.115171358885     0.320581913430     0.947291823402     1.007825032230
         H           -1.425145358885    -3.049834086570     0.542291823402     1.007825032230
         H           -2.714169358885    -1.901355086570     0.143896823402     1.007825032230
         H           -1.667186358885    -2.537398086570    -1.132897176598     1.007825032230
         H            2.511825641115    -2.074554086570    -0.540602176598     1.007825032230
         H            1.628542641115    -2.927724086570     0.736720823402     1.007825032230
         H            1.040822641115    -2.975370086570    -0.930480176598     1.007825032230
         H            2.810695641115     0.882110913430    -1.808152176598     1.007825032230
         H            3.794939641115     2.037623913430    -0.887313176598     1.007825032230
         H            2.061682641115     2.340223913430    -1.133179176598     1.007825032230
         H           -2.101577358885     2.218788913430    -1.255538176598     1.007825032230
         H           -3.785066358885     2.101229913430    -0.702589176598     1.007825032230
         H           -3.024055358885     0.730407913430    -1.535239176598     1.007825032230

  Basis Set: AUG-CC-PVTZ
    Blend: AUG-CC-PVTZ
  Basis Set: (AUG-CC-PVTZ AUX)
    Blend: AUG-CC-PVTZ-JKFIT
	 Reference Energy          =    -462.9960869303901063 [Eh]
	 Singles Energy            =      -0.0000000000000000 [Eh]
	 Same-Spin Energy          =      -0.4977610899881326 [Eh]
	 Opposite-Spin Energy      =      -1.6702983852727100 [Eh]
	 Correlation Energy        =      -2.1680594752608426 [Eh]
	 Total Energy              =    -465.1641464056509676 [Eh]

	 ================> DF-SCS-MP2 Energies <==================
	-----------------------------------------------------------
	 SCS Same-Spin Scale       =       0.3333333333333333 [-]
	 SCS Opposite-Spin Scale   =       1.2000000000000000 [-]
	 SCS Same-Spin Energy      =      -0.1659203633293775 [Eh]
	 SCS Opposite-Spin Energy  =      -2.0043580623272521 [Eh]
	 SCS Correlation Energy    =      -2.1702784256566297 [Eh]
	 SCS Total Energy          =    -465.1663653560467537 [Eh]
	-----------------------------------------------------------

  Dipole Moment: [D]
     X:    -0.2284      Y:    -0.8393      Z:    -0.2541     Total:     0.9061

*** Psi4 exiting successfully. Buy a developer a beer!
