                               Psi4 1.3.2 release

  ==> Input File <==

--------------------------------------------------------------------------
#psi4
#
memory 32 gb

molecule  {
0 1
  O        0.0573999     1.0037574     0.5045586
  C       -0.7418240    -1.0387750     0.1269710
  C        0.6658803    -1.0858363     0.0646061
  C       -1.0714850     0.2632460     0.3951280
  C        1.1400710     0.1773790     0.3033030
  C       -2.3562760     1.0018630     0.5198060
  C        2.4849120     0.8120840     0.3409220
  C       -1.6830070    -2.1819480    -0.0885940
  C        1.5125100    -2.3214750    -0.1762480
  C       -2.8486430     1.5569180    -0.8246800
  C        2.8130920     1.5744450    -0.9510270
  H        3.2336060     0.0303330     0.5193890
  H        2.5305840     1.4962520     1.1974230
  H       -2.2159340     1.8224920     1.2344330
  H       -3.1130010     0.3316860     0.9491040
  H       -1.4229750    -3.0387300     0.5441040
  H       -2.7119990    -1.8902510     0.1457090
  H       -1.6650160    -2.5262940    -1.1310850
  H        2.5139960    -2.0634500    -0.5387900
  H        1.6307130    -2.9166200     0.7385330
  H        1.0429930    -2.9642660    -0.9286680
  H        2.8128660     0.8932150    -1.8063400
  H        3.7971100     2.0487280    -0.8855010
  H        2.0638530     2.3513280    -1.1313670
  H       -2.0994070     2.2298930    -1.2537260
  H       -3.7828960     2.1123340    -0.7007770
  H       -3.0218850     0.7415120    -1.5334270
units angstrom
no_reorient  #important for SAPT in psi4, default
symmetry c1  #important for SAPT in psi4, default
}

set PROPERTIES_ORIGIN ["COM"]
properties('MP2/aug-cc-pvtz', properties = ['dipole'])
--------------------------------------------------------------------------

    Molecular point group: c1
  Charge       = 0
  Multiplicity = 1
  Basis Set: AUG-CC-PVTZ
    Blend: AUG-CC-PVTZ
  Basis Set: (AUG-CC-PVTZ AUX)
    Blend: AUG-CC-PVTZ-JKFIT

    Orbital Energies [Eh]
    ---------------------

    Doubly Occupied:

       1A    -20.599192     2A    -11.268378     3A    -11.267676
       4A    -11.231391     5A    -11.229983     6A    -11.222956
       7A    -11.222099     8A    -11.215719     9A    -11.215049
      10A    -11.214914    11A    -11.211000    12A     -1.438149
      13A     -1.099398    14A     -1.079678    15A     -1.036975
      16A     -0.987721    17A     -0.931610    18A     -0.929107
      19A     -0.871071    20A     -0.817027    21A     -0.751479
      22A     -0.724515    23A     -0.660295    24A     -0.630128
      25A     -0.610951    26A     -0.609771    27A     -0.588708
      28A     -0.582769    29A     -0.567081    30A     -0.554233
      31A     -0.547876    32A     -0.534484    33A     -0.527297
      34A     -0.522209    35A     -0.518873    36A     -0.505752
      37A     -0.495919    38A     -0.492760    39A     -0.484238
      40A     -0.469688    41A     -0.362089    42A     -0.277447

  @DF-RHF Final Energy:  -463.01173442129317

   => Energetics <=

    Nuclear Repulsion Energy =            630.4131796316108876
    One-Electron Energy =               -1878.6345190328993340
    Two-Electron Energy =                 785.2096049799952198
    Total Energy =                       -463.0117344212931130
  Basis Set: (AUG-CC-PVTZ AUX)
    Blend: AUG-CC-PVTZ-RI
    Molecular point group: c1

    Geometry (in Angstrom), charge = 0, multiplicity = 1:

       Center              X                  Y                   Z               Mass
    ------------   -----------------  -----------------  -----------------  -----------------
         O            0.060750605825     1.005088687540     0.504717786282    15.994914619570
         C           -0.738473294175    -1.037443712460     0.127130186282    12.000000000000
         C            0.669231005825    -1.084505012460     0.064765286282    12.000000000000
         C           -1.068134294175     0.264577287540     0.395287186282    12.000000000000
         C            1.143421705825     0.178710287540     0.303462186282    12.000000000000
         C           -2.352925294175     1.003194287540     0.519965186282    12.000000000000
         C            2.488262705825     0.813415287540     0.341081186282    12.000000000000
         C           -1.679656294175    -2.180616712460    -0.088434813718    12.000000000000
         C            1.515860705825    -2.320143712460    -0.176088813718    12.000000000000
         C           -2.845292294175     1.558249287540    -0.824520813718    12.000000000000
         C            2.816442705825     1.575776287540    -0.950867813718    12.000000000000
         H            3.236956705825     0.031664287540     0.519548186282     1.007825032230
         H            2.533934705825     1.497583287540     1.197582186282     1.007825032230
         H           -2.212583294175     1.823823287540     1.234592186282     1.007825032230
         H           -3.109650294175     0.333017287540     0.949263186282     1.007825032230
         H           -1.419624294175    -3.037398712460     0.544263186282     1.007825032230
         H           -2.708648294175    -1.888919712460     0.145868186282     1.007825032230
         H           -1.661665294175    -2.524962712460    -1.130925813718     1.007825032230
         H            2.517346705825    -2.062118712460    -0.538630813718     1.007825032230
         H            1.634063705825    -2.915288712460     0.738692186282     1.007825032230
         H            1.046343705825    -2.962934712460    -0.928508813718     1.007825032230
         H            2.816216705825     0.894546287540    -1.806180813718     1.007825032230
         H            3.800460705825     2.050059287540    -0.885341813718     1.007825032230
         H            2.067203705825     2.352659287540    -1.131207813718     1.007825032230
         H           -2.096056294175     2.231224287540    -1.253566813718     1.007825032230
         H           -3.779545294175     2.113665287540    -0.700617813718     1.007825032230
         H           -3.018534294175     0.742843287540    -1.533267813718     1.007825032230

  Basis Set: AUG-CC-PVTZ
    Blend: AUG-CC-PVTZ
  Basis Set: (AUG-CC-PVTZ AUX)
    Blend: AUG-CC-PVTZ-JKFIT
	 Reference Energy          =    -463.0117344212931698 [Eh]
	 Singles Energy            =      -0.0000000000000000 [Eh]
	 Same-Spin Energy          =      -0.4972944121005015 [Eh]
	 Opposite-Spin Energy      =      -1.6666182537958647 [Eh]
	 Correlation Energy        =      -2.1639126658963663 [Eh]
	 Total Energy              =    -465.1756470871895317 [Eh]

	 ================> DF-SCS-MP2 Energies <==================
	-----------------------------------------------------------
	 SCS Same-Spin Scale       =       0.3333333333333333 [-]
	 SCS Opposite-Spin Scale   =       1.2000000000000000 [-]
	 SCS Same-Spin Energy      =      -0.1657648040335005 [Eh]
	 SCS Opposite-Spin Energy  =      -1.9999419045550375 [Eh]
	 SCS Correlation Energy    =      -2.1657067085885382 [Eh]
	 SCS Total Energy          =    -465.1774411298816858 [Eh]
	-----------------------------------------------------------

  Dipole Moment: [D]
     X:     0.0140      Y:    -0.5605      Z:    -0.2009     Total:     0.5956

*** Psi4 exiting successfully. Buy a developer a beer!
