                               Psi4 1.3.2 release

  ==> Input File <==

--------------------------------------------------------------------------
#psi4
#
memory 32 gb

molecule  {
0 1
  O        0.0723890     1.0222580     0.5077940
  C       -0.7418240    -1.0387750     0.1269710
  C        0.6883760    -1.0936210     0.0623120
  C       -1.0403925     0.3127531     0.4465543
  C        1.1400710     0.1773790     0.3033030
  C       -2.3562760     1.0018630     0.5198060
  C        2.4849120     0.8120840     0.3409220
  C       -1.6830070    -2.1819480    -0.0885940
  C        1.5125100    -2.3214750    -0.1762480
  C       -2.8486430     1.5569180    -0.8246800
  C        2.8130920     1.5744450    -0.9510270
  H        3.2336060     0.0303330     0.5193890
  H        2.5305840     1.4962520     1.1974230
  H       -2.1614057     1.8055958     1.2408183
  H       -3.1130010     0.3316860     0.9491040
  H       -1.4229750    -3.0387300     0.5441040
  H       -2.7119990    -1.8902510     0.1457090
  H       -1.6650160    -2.5262940    -1.1310850
  H        2.5139960    -2.0634500    -0.5387900
  H        1.6307130    -2.9166200     0.7385330
  H        1.0429930    -2.9642660    -0.9286680
  H        2.8128660     0.8932150    -1.8063400
  H        3.7971100     2.0487280    -0.8855010
  H        2.0638530     2.3513280    -1.1313670
  H       -2.0994070     2.2298930    -1.2537260
  H       -3.7828960     2.1123340    -0.7007770
  H       -3.0218850     0.7415120    -1.5334270
units angstrom
no_reorient  #important for SAPT in psi4, default
symmetry c1  #important for SAPT in psi4, default
}

set PROPERTIES_ORIGIN ["COM"]
properties('MP2/aug-cc-pvtz', properties = ['dipole'])
--------------------------------------------------------------------------

    Molecular point group: c1
  Charge       = 0
  Multiplicity = 1
  Basis Set: AUG-CC-PVTZ
    Blend: AUG-CC-PVTZ
  Basis Set: (AUG-CC-PVTZ AUX)
    Blend: AUG-CC-PVTZ-JKFIT

    Orbital Energies [Eh]
    ---------------------

    Doubly Occupied:

       1A    -20.608066     2A    -11.274001     3A    -11.267024
       4A    -11.230082     5A    -11.229956     6A    -11.223164
       7A    -11.221817     8A    -11.217736     9A    -11.216899
      10A    -11.215136    11A    -11.214271    12A     -1.453531
      13A     -1.096053    14A     -1.078714    15A     -1.036233
      16A     -0.987218    17A     -0.934630    18A     -0.927832
      19A     -0.871586    20A     -0.815309    21A     -0.756320
      22A     -0.720548    23A     -0.662542    24A     -0.634447
      25A     -0.613011    26A     -0.608030    27A     -0.591005
      28A     -0.581195    29A     -0.569388    30A     -0.555092
      31A     -0.549036    32A     -0.534543    33A     -0.532083
      34A     -0.528684    35A     -0.521176    36A     -0.506499
      37A     -0.497692    38A     -0.489178    39A     -0.485305
      40A     -0.457582    41A     -0.357115    42A     -0.271730

  @DF-RHF Final Energy:  -463.00534995598395

   => Energetics <=

    Nuclear Repulsion Energy =            629.7594999228628012
    One-Electron Energy =               -1877.2467804237362543
    Two-Electron Energy =                 784.4819305448895648
    Total Energy =                       -463.0053499559840020
  Basis Set: (AUG-CC-PVTZ AUX)
    Blend: AUG-CC-PVTZ-RI
    Molecular point group: c1

    Geometry (in Angstrom), charge = 0, multiplicity = 1:

       Center              X                  Y                   Z               Mass
    ------------   -----------------  -----------------  -----------------  -----------------
         O            0.069575085455     1.018464679901     0.503694895974    15.994914619570
         C           -0.744637914545    -1.042568320099     0.122871895974    12.000000000000
         C            0.685562085455    -1.097414320099     0.058212895974    12.000000000000
         C           -1.043206414545     0.308959779901     0.442455195974    12.000000000000
         C            1.137257085455     0.173585679901     0.299203895974    12.000000000000
         C           -2.359089914545     0.998069679901     0.515706895974    12.000000000000
         C            2.482098085455     0.808290679901     0.336822895974    12.000000000000
         C           -1.685820914545    -2.185741320099    -0.092693104026    12.000000000000
         C            1.509696085455    -2.325268320099    -0.180347104026    12.000000000000
         C           -2.851456914545     1.553124679901    -0.828779104026    12.000000000000
         C            2.810278085455     1.570651679901    -0.955126104026    12.000000000000
         H            3.230792085455     0.026539679901     0.515289895974     1.007825032230
         H            2.527770085455     1.492458679901     1.193323895974     1.007825032230
         H           -2.164219614545     1.801802479901     1.236719195974     1.007825032230
         H           -3.115814914545     0.327892679901     0.945004895974     1.007825032230
         H           -1.425788914545    -3.042523320099     0.540004895974     1.007825032230
         H           -2.714812914545    -1.894044320099     0.141609895974     1.007825032230
         H           -1.667829914545    -2.530087320099    -1.135184104026     1.007825032230
         H            2.511182085455    -2.067243320099    -0.542889104026     1.007825032230
         H            1.627899085455    -2.920413320099     0.734433895974     1.007825032230
         H            1.040179085455    -2.968059320099    -0.932767104026     1.007825032230
         H            2.810052085455     0.889421679901    -1.810439104026     1.007825032230
         H            3.794296085455     2.044934679901    -0.889600104026     1.007825032230
         H            2.061039085455     2.347534679901    -1.135466104026     1.007825032230
         H           -2.102220914545     2.226099679901    -1.257825104026     1.007825032230
         H           -3.785709914545     2.108540679901    -0.704876104026     1.007825032230
         H           -3.024698914545     0.737718679901    -1.537526104026     1.007825032230

  Basis Set: AUG-CC-PVTZ
    Blend: AUG-CC-PVTZ
  Basis Set: (AUG-CC-PVTZ AUX)
    Blend: AUG-CC-PVTZ-JKFIT
	 Reference Energy          =    -463.0053499559839452 [Eh]
	 Singles Energy            =      -0.0000000000000000 [Eh]
	 Same-Spin Energy          =      -0.4980651652171126 [Eh]
	 Opposite-Spin Energy      =      -1.6675137422763950 [Eh]
	 Correlation Energy        =      -2.1655789074935075 [Eh]
	 Total Energy              =    -465.1709288634774566 [Eh]

	 ================> DF-SCS-MP2 Energies <==================
	-----------------------------------------------------------
	 SCS Same-Spin Scale       =       0.3333333333333333 [-]
	 SCS Opposite-Spin Scale   =       1.2000000000000000 [-]
	 SCS Same-Spin Energy      =      -0.1660217217390375 [Eh]
	 SCS Opposite-Spin Energy  =      -2.0010164907316739 [Eh]
	 SCS Correlation Energy    =      -2.1670382124707115 [Eh]
	 SCS Total Energy          =    -465.1723881684546313 [Eh]
	-----------------------------------------------------------

  Dipole Moment: [D]
     X:     0.0674      Y:    -0.5685      Z:    -0.2238     Total:     0.6147

*** Psi4 exiting successfully. Buy a developer a beer!
