                               Psi4 1.3.2 release

  ==> Input File <==

--------------------------------------------------------------------------
#psi4
#
memory 32 gb

molecule  {
0 1
  O        0.0588239     1.0418489     0.5109723
  C       -0.7418240    -1.0387750     0.1269710
  C        0.6883760    -1.0936210     0.0623120
  C       -1.0714850     0.2632460     0.3951280
  C        1.1400710     0.1773790     0.3033030
  C       -2.3430083     1.0239119     0.5232041
  C        2.4849120     0.8120840     0.3409220
  C       -1.6830070    -2.1819480    -0.0885940
  C        1.5125100    -2.3214750    -0.1762480
  C       -2.8486430     1.5569180    -0.8246800
  C        2.8130920     1.5744450    -0.9510270
  H        3.2336060     0.0303330     0.5193890
  H        2.5305840     1.4962520     1.1974230
  H       -2.2159340     1.8224920     1.2344330
  H       -3.1130010     0.3316860     0.9491040
  H       -1.4229750    -3.0387300     0.5441040
  H       -2.7119990    -1.8902510     0.1457090
  H       -1.6650160    -2.5262940    -1.1310850
  H        2.5139960    -2.0634500    -0.5387900
  H        1.6307130    -2.9166200     0.7385330
  H        1.0429930    -2.9642660    -0.9286680
  H        2.8128660     0.8932150    -1.8063400
  H        3.7971100     2.0487280    -0.8855010
  H        2.0638530     2.3513280    -1.1313670
  H       -2.0994070     2.2298930    -1.2537260
  H       -3.7828960     2.1123340    -0.7007770
  H       -3.0218850     0.7415120    -1.5334270
units angstrom
no_reorient  #important for SAPT in psi4, default
symmetry c1  #important for SAPT in psi4, default
}

set PROPERTIES_ORIGIN ["COM"]
properties('MP2/aug-cc-pvtz', properties = ['dipole'])
--------------------------------------------------------------------------

    Molecular point group: c1
  Charge       = 0
  Multiplicity = 1
  Basis Set: AUG-CC-PVTZ
    Blend: AUG-CC-PVTZ
  Basis Set: (AUG-CC-PVTZ AUX)
    Blend: AUG-CC-PVTZ-JKFIT

    Orbital Energies [Eh]
    ---------------------

    Doubly Occupied:

       1A    -20.597848     2A    -11.270644     3A    -11.270545
       4A    -11.230045     5A    -11.229335     6A    -11.224332
       7A    -11.223467     8A    -11.218775     9A    -11.215891
      10A    -11.215288    11A    -11.214425    12A     -1.422225
      13A     -1.100135    14A     -1.077848    15A     -1.035861
      16A     -0.990661    17A     -0.933547    18A     -0.925663
      19A     -0.869747    20A     -0.814604    21A     -0.745786
      22A     -0.722994    23A     -0.655958    24A     -0.625065
      25A     -0.611518    26A     -0.609125    27A     -0.585464
      28A     -0.583421    29A     -0.567795    30A     -0.556365
      31A     -0.550093    32A     -0.533475    33A     -0.527635
      34A     -0.524951    35A     -0.521939    36A     -0.504958
      37A     -0.494858    38A     -0.492845    39A     -0.480256
      40A     -0.469132    41A     -0.362611    42A     -0.279021

  @DF-RHF Final Energy:  -463.00928855906125

   => Energetics <=

    Nuclear Repulsion Energy =            629.0345224703879694
    One-Electron Energy =               -1875.9153222720688063
    Two-Electron Energy =                 783.8715112426197038
    Total Energy =                       -463.0092885590612468
  Basis Set: (AUG-CC-PVTZ AUX)
    Blend: AUG-CC-PVTZ-RI
    Molecular point group: c1

    Geometry (in Angstrom), charge = 0, multiplicity = 1:

       Center              X                  Y                   Z               Mass
    ------------   -----------------  -----------------  -----------------  -----------------
         O            0.059203680132     1.038049763535     0.510370018387    15.994914619570
         C           -0.741444219868    -1.042574136465     0.126368718387    12.000000000000
         C            0.688755780132    -1.097420136465     0.061709718387    12.000000000000
         C           -1.071105219868     0.259446863535     0.394525718387    12.000000000000
         C            1.140450780132     0.173579863535     0.302700718387    12.000000000000
         C           -2.342628519868     1.020112763535     0.522601818387    12.000000000000
         C            2.485291780132     0.808284863535     0.340319718387    12.000000000000
         C           -1.682627219868    -2.185747136465    -0.089196281613    12.000000000000
         C            1.512889780132    -2.325274136465    -0.176850281613    12.000000000000
         C           -2.848263219868     1.553118863535    -0.825282281613    12.000000000000
         C            2.813471780132     1.570645863535    -0.951629281613    12.000000000000
         H            3.233985780132     0.026533863535     0.518786718387     1.007825032230
         H            2.530963780132     1.492452863535     1.196820718387     1.007825032230
         H           -2.215554219868     1.818692863535     1.233830718387     1.007825032230
         H           -3.112621219868     0.327886863535     0.948501718387     1.007825032230
         H           -1.422595219868    -3.042529136465     0.543501718387     1.007825032230
         H           -2.711619219868    -1.894050136465     0.145106718387     1.007825032230
         H           -1.664636219868    -2.530093136465    -1.131687281613     1.007825032230
         H            2.514375780132    -2.067249136465    -0.539392281613     1.007825032230
         H            1.631092780132    -2.920419136465     0.737930718387     1.007825032230
         H            1.043372780132    -2.968065136465    -0.929270281613     1.007825032230
         H            2.813245780132     0.889415863535    -1.806942281613     1.007825032230
         H            3.797489780132     2.044928863535    -0.886103281613     1.007825032230
         H            2.064232780132     2.347528863535    -1.131969281613     1.007825032230
         H           -2.099027219868     2.226093863535    -1.254328281613     1.007825032230
         H           -3.782516219868     2.108534863535    -0.701379281613     1.007825032230
         H           -3.021505219868     0.737712863535    -1.534029281613     1.007825032230

  Basis Set: AUG-CC-PVTZ
    Blend: AUG-CC-PVTZ
  Basis Set: (AUG-CC-PVTZ AUX)
    Blend: AUG-CC-PVTZ-JKFIT
	 Reference Energy          =    -463.0092885590612468 [Eh]
	 Singles Energy            =      -0.0000000000000000 [Eh]
	 Same-Spin Energy          =      -0.4972157789464141 [Eh]
	 Opposite-Spin Energy      =      -1.6679846344203777 [Eh]
	 Correlation Energy        =      -2.1652004133667919 [Eh]
	 Total Energy              =    -465.1744889724280370 [Eh]

	 ================> DF-SCS-MP2 Energies <==================
	-----------------------------------------------------------
	 SCS Same-Spin Scale       =       0.3333333333333333 [-]
	 SCS Opposite-Spin Scale   =       1.2000000000000000 [-]
	 SCS Same-Spin Energy      =      -0.1657385929821380 [Eh]
	 SCS Opposite-Spin Energy  =      -2.0015815613044530 [Eh]
	 SCS Correlation Energy    =      -2.1673201542865907 [Eh]
	 SCS Total Energy          =    -465.1766087133478322 [Eh]
	-----------------------------------------------------------

  Dipole Moment: [D]
     X:     0.0212      Y:    -0.7214      Z:    -0.2306     Total:     0.7577

*** Psi4 exiting successfully. Buy a developer a beer!
