                               Psi4 1.3.2 release

  ==> Input File <==

--------------------------------------------------------------------------
#psi4
#
memory 32 gb

molecule  {
0 1
  O        0.0723890     1.0222580     0.5077940
  C       -0.7418240    -1.0387750     0.1269710
  C        0.6883760    -1.0936210     0.0623120
  C       -1.0248968     0.2738771     0.3965216
  C        1.1400710     0.1773790     0.3033030
  C       -2.3562760     1.0018630     0.5198060
  C        2.4849120     0.8120840     0.3409220
  C       -1.6418428    -2.2133258    -0.0955930
  C        1.5125100    -2.3214750    -0.1762480
  C       -2.8486430     1.5569180    -0.8246800
  C        2.8130920     1.5744450    -0.9510270
  H        3.2336060     0.0303330     0.5193890
  H        2.5305840     1.4962520     1.1974230
  H       -2.2159340     1.8224920     1.2344330
  H       -3.1130010     0.3316860     0.9491040
  H       -1.4229750    -3.0387300     0.5441040
  H       -2.7119990    -1.8902510     0.1457090
  H       -1.6650160    -2.5262940    -1.1310850
  H        2.5139960    -2.0634500    -0.5387900
  H        1.6307130    -2.9166200     0.7385330
  H        1.0429930    -2.9642660    -0.9286680
  H        2.8128660     0.8932150    -1.8063400
  H        3.7971100     2.0487280    -0.8855010
  H        2.0638530     2.3513280    -1.1313670
  H       -2.0994070     2.2298930    -1.2537260
  H       -3.7828960     2.1123340    -0.7007770
  H       -3.0218850     0.7415120    -1.5334270
units angstrom
no_reorient  #important for SAPT in psi4, default
symmetry c1  #important for SAPT in psi4, default
}

set PROPERTIES_ORIGIN ["COM"]
properties('MP2/aug-cc-pvtz', properties = ['dipole'])
--------------------------------------------------------------------------

    Molecular point group: c1
  Charge       = 0
  Multiplicity = 1
  Basis Set: AUG-CC-PVTZ
    Blend: AUG-CC-PVTZ
  Basis Set: (AUG-CC-PVTZ AUX)
    Blend: AUG-CC-PVTZ-JKFIT

    Orbital Energies [Eh]
    ---------------------

    Doubly Occupied:

       1A    -20.605714     2A    -11.271634     3A    -11.266939
       4A    -11.230572     5A    -11.229541     6A    -11.223769
       7A    -11.223028     8A    -11.216219     9A    -11.214963
      10A    -11.214283    11A    -11.211986    12A     -1.449893
      13A     -1.100463    14A     -1.076267    15A     -1.033581
      16A     -0.988526    17A     -0.935237    18A     -0.929822
      19A     -0.867161    20A     -0.814755    21A     -0.757780
      22A     -0.721188    23A     -0.662239    24A     -0.634873
      25A     -0.610158    26A     -0.607309    27A     -0.588598
      28A     -0.582213    29A     -0.575379    30A     -0.559880
      31A     -0.544068    32A     -0.535445    33A     -0.532484
      34A     -0.523907    35A     -0.519515    36A     -0.505479
      37A     -0.493763    38A     -0.488503    39A     -0.484570
      40A     -0.457816    41A     -0.362292    42A     -0.278879

  @DF-RHF Final Energy:  -463.00836266637236

   => Energetics <=

    Nuclear Repulsion Energy =            630.1373561614597065
    One-Electron Energy =               -1878.0300555132985210
    Two-Electron Energy =                 784.8843366854665646
    Total Energy =                       -463.0083626663723635
  Basis Set: (AUG-CC-PVTZ AUX)
    Blend: AUG-CC-PVTZ-RI
    Molecular point group: c1

    Geometry (in Angstrom), charge = 0, multiplicity = 1:

       Center              X                  Y                   Z               Mass
    ------------   -----------------  -----------------  -----------------  -----------------
         O            0.065466727966     1.023894712516     0.508236147238    15.994914619570
         C           -0.748746272034    -1.037138287484     0.127413147238    12.000000000000
         C            0.681453727966    -1.091984287484     0.062754147238    12.000000000000
         C           -1.031819072034     0.275513812516     0.396963747238    12.000000000000
         C            1.133148727966     0.179015712516     0.303745147238    12.000000000000
         C           -2.363198272034     1.003499712516     0.520248147238    12.000000000000
         C            2.477989727966     0.813720712516     0.341364147238    12.000000000000
         C           -1.648765072034    -2.211689087484    -0.095150852762    12.000000000000
         C            1.505587727966    -2.319838287484    -0.175805852762    12.000000000000
         C           -2.855565272034     1.558554712516    -0.824237852762    12.000000000000
         C            2.806169727966     1.576081712516    -0.950584852762    12.000000000000
         H            3.226683727966     0.031969712516     0.519831147238     1.007825032230
         H            2.523661727966     1.497888712516     1.197865147238     1.007825032230
         H           -2.222856272034     1.824128712516     1.234875147238     1.007825032230
         H           -3.119923272034     0.333322712516     0.949546147238     1.007825032230
         H           -1.429897272034    -3.037093287484     0.544546147238     1.007825032230
         H           -2.718921272034    -1.888614287484     0.146151147238     1.007825032230
         H           -1.671938272034    -2.524657287484    -1.130642852762     1.007825032230
         H            2.507073727966    -2.061813287484    -0.538347852762     1.007825032230
         H            1.623790727966    -2.914983287484     0.738975147238     1.007825032230
         H            1.036070727966    -2.962629287484    -0.928225852762     1.007825032230
         H            2.805943727966     0.894851712516    -1.805897852762     1.007825032230
         H            3.790187727966     2.050364712516    -0.885058852762     1.007825032230
         H            2.056930727966     2.352964712516    -1.130924852762     1.007825032230
         H           -2.106329272034     2.231529712516    -1.253283852762     1.007825032230
         H           -3.789818272034     2.113970712516    -0.700334852762     1.007825032230
         H           -3.028807272034     0.743148712516    -1.532984852762     1.007825032230

  Basis Set: AUG-CC-PVTZ
    Blend: AUG-CC-PVTZ
  Basis Set: (AUG-CC-PVTZ AUX)
    Blend: AUG-CC-PVTZ-JKFIT
	 Reference Energy          =    -463.0083626663723635 [Eh]
	 Singles Energy            =      -0.0000000000000000 [Eh]
	 Same-Spin Energy          =      -0.4967809211358520 [Eh]
	 Opposite-Spin Energy      =      -1.6661868276366387 [Eh]
	 Correlation Energy        =      -2.1629677487724908 [Eh]
	 Total Energy              =    -465.1713304151448369 [Eh]

	 ================> DF-SCS-MP2 Energies <==================
	-----------------------------------------------------------
	 SCS Same-Spin Scale       =       0.3333333333333333 [-]
	 SCS Opposite-Spin Scale   =       1.2000000000000000 [-]
	 SCS Same-Spin Energy      =      -0.1655936403786173 [Eh]
	 SCS Opposite-Spin Energy  =      -1.9994241931639665 [Eh]
	 SCS Correlation Energy    =      -2.1650178335425840 [Eh]
	 SCS Total Energy          =    -465.1733804999149697 [Eh]
	-----------------------------------------------------------

  Dipole Moment: [D]
     X:     0.0595      Y:    -0.6503      Z:    -0.2076     Total:     0.6853

*** Psi4 exiting successfully. Buy a developer a beer!
