                               Psi4 1.3.2 release

  ==> Input File <==

--------------------------------------------------------------------------
#psi4
#
memory 32 gb

molecule  {
0 1
  O        0.0723890     1.0222580     0.5077940
  C       -0.7418240    -1.0387750     0.1269710
  C        0.6912155    -1.0871054     0.0371535
  C       -1.0714850     0.2632460     0.3951280
  C        1.1400710     0.1773790     0.3033030
  C       -2.3562760     1.0018630     0.5198060
  C        2.4849120     0.8120840     0.3409220
  C       -1.6830070    -2.1819480    -0.0885940
  C        1.5125100    -2.3214750    -0.1762480
  C       -2.8486430     1.5569180    -0.8246800
  C        2.8130920     1.5744450    -0.9510270
  H        3.2336060     0.0303330     0.5193890
  H        2.5305840     1.4962520     1.1974230
  H       -2.2159340     1.8224920     1.2344330
  H       -3.1130010     0.3316860     0.9491040
  H       -1.4229750    -3.0387300     0.5441040
  H       -2.7119990    -1.8902510     0.1457090
  H       -1.6650160    -2.5262940    -1.1310850
  H        2.5139960    -2.0634500    -0.5387900
  H        1.6412212    -2.9292909     0.7287310
  H        1.0429930    -2.9642660    -0.9286680
  H        2.8128660     0.8932150    -1.8063400
  H        3.7971100     2.0487280    -0.8855010
  H        2.0638530     2.3513280    -1.1313670
  H       -2.0994070     2.2298930    -1.2537260
  H       -3.7828960     2.1123340    -0.7007770
  H       -3.0218850     0.7415120    -1.5334270
units angstrom
no_reorient  #important for SAPT in psi4, default
symmetry c1  #important for SAPT in psi4, default
}

set PROPERTIES_ORIGIN ["COM"]
properties('MP2/aug-cc-pvtz', properties = ['dipole'])
--------------------------------------------------------------------------

    Molecular point group: c1
  Charge       = 0
  Multiplicity = 1
  Basis Set: AUG-CC-PVTZ
    Blend: AUG-CC-PVTZ
  Basis Set: (AUG-CC-PVTZ AUX)
    Blend: AUG-CC-PVTZ-JKFIT

    Orbital Energies [Eh]
    ---------------------

    Doubly Occupied:

       1A    -20.598707     2A    -11.269817     3A    -11.269722
       4A    -11.230176     5A    -11.230048     6A    -11.223164
       7A    -11.222782     8A    -11.216385     9A    -11.215550
      10A    -11.215371    11A    -11.214739    12A     -1.429887
      13A     -1.098368    14A     -1.079122    15A     -1.036220
      16A     -0.990067    17A     -0.932309    18A     -0.927717
      19A     -0.870164    20A     -0.815897    21A     -0.749902
      22A     -0.721239    23A     -0.658292    24A     -0.627173
      25A     -0.610976    26A     -0.609956    27A     -0.586894
      28A     -0.583724    29A     -0.567101    30A     -0.555814
      31A     -0.549089    32A     -0.533219    33A     -0.527860
      34A     -0.524044    35A     -0.521824    36A     -0.505427
      37A     -0.495300    38A     -0.492692    39A     -0.483967
      40A     -0.466587    41A     -0.360586    42A     -0.279694

  @DF-RHF Final Energy:  -463.01175452122027

   => Energetics <=

    Nuclear Repulsion Energy =            629.5587336795067586
    One-Electron Energy =               -1876.9458354408782270
    Two-Electron Energy =                 784.3753472401511999
    Total Energy =                       -463.0117545212202685
  Basis Set: (AUG-CC-PVTZ AUX)
    Blend: AUG-CC-PVTZ-RI
    Molecular point group: c1

    Geometry (in Angstrom), charge = 0, multiplicity = 1:

       Center              X                  Y                   Z               Mass
    ------------   -----------------  -----------------  -----------------  -----------------
         O            0.072095465869     1.021828072286     0.509843534274    15.994914619570
         C           -0.742117534131    -1.039204927714     0.129020534274    12.000000000000
         C            0.690921965869    -1.087535327714     0.039203034274    12.000000000000
         C           -1.071778534131     0.262816072286     0.397177534274    12.000000000000
         C            1.139777465869     0.176949072286     0.305352534274    12.000000000000
         C           -2.356569534131     1.001433072286     0.521855534274    12.000000000000
         C            2.484618465869     0.811654072286     0.342971534274    12.000000000000
         C           -1.683300534131    -2.182377927714    -0.086544465726    12.000000000000
         C            1.512216465869    -2.321904927714    -0.174198465726    12.000000000000
         C           -2.848936534131     1.556488072286    -0.822630465726    12.000000000000
         C            2.812798465869     1.574015072286    -0.948977465726    12.000000000000
         H            3.233312465869     0.029903072286     0.521438534274     1.007825032230
         H            2.530290465869     1.495822072286     1.199472534274     1.007825032230
         H           -2.216227534131     1.822062072286     1.236482534274     1.007825032230
         H           -3.113294534131     0.331256072286     0.951153534274     1.007825032230
         H           -1.423268534131    -3.039159927714     0.546153534274     1.007825032230
         H           -2.712292534131    -1.890680927714     0.147758534274     1.007825032230
         H           -1.665309534131    -2.526723927714    -1.129035465726     1.007825032230
         H            2.513702465869    -2.063879927714    -0.536740465726     1.007825032230
         H            1.640927665869    -2.929720827714     0.730780534274     1.007825032230
         H            1.042699465869    -2.964695927714    -0.926618465726     1.007825032230
         H            2.812572465869     0.892785072286    -1.804290465726     1.007825032230
         H            3.796816465869     2.048298072286    -0.883451465726     1.007825032230
         H            2.063559465869     2.350898072286    -1.129317465726     1.007825032230
         H           -2.099700534131     2.229463072286    -1.251676465726     1.007825032230
         H           -3.783189534131     2.111904072286    -0.698727465726     1.007825032230
         H           -3.022178534131     0.741082072286    -1.531377465726     1.007825032230

  Basis Set: AUG-CC-PVTZ
    Blend: AUG-CC-PVTZ
  Basis Set: (AUG-CC-PVTZ AUX)
    Blend: AUG-CC-PVTZ-JKFIT
	 Reference Energy          =    -463.0117545212202685 [Eh]
	 Singles Energy            =      -0.0000000000000000 [Eh]
	 Same-Spin Energy          =      -0.4970239414602441 [Eh]
	 Opposite-Spin Energy      =      -1.6670405289590220 [Eh]
	 Correlation Energy        =      -2.1640644704192660 [Eh]
	 Total Energy              =    -465.1758189916395168 [Eh]

	 ================> DF-SCS-MP2 Energies <==================
	-----------------------------------------------------------
	 SCS Same-Spin Scale       =       0.3333333333333333 [-]
	 SCS Opposite-Spin Scale   =       1.2000000000000000 [-]
	 SCS Same-Spin Energy      =      -0.1656746471534147 [Eh]
	 SCS Opposite-Spin Energy  =      -2.0004486347508261 [Eh]
	 SCS Correlation Energy    =      -2.1661232819042406 [Eh]
	 SCS Total Energy          =    -465.1778778031244883 [Eh]
	-----------------------------------------------------------

  Dipole Moment: [D]
     X:    -0.0334      Y:    -0.6470      Z:    -0.1998     Total:     0.6780

*** Psi4 exiting successfully. Buy a developer a beer!
