                               Psi4 1.3.2 release

  ==> Input File <==

--------------------------------------------------------------------------
#psi4
#
memory 32 gb

molecule  {
0 1
  O        0.0723890     1.0222580     0.5077940
  C       -0.7418240    -1.0387750     0.1269710
  C        0.6813669    -1.1154033     0.1373208
  C       -1.0714850     0.2632460     0.3951280
  C        1.1400710     0.1773790     0.3033030
  C       -2.3562760     1.0018630     0.5198060
  C        2.4849120     0.8120840     0.3409220
  C       -1.6830070    -2.1819480    -0.0885940
  C        1.5125100    -2.3214750    -0.1762480
  C       -2.8486430     1.5569180    -0.8246800
  C        2.8130920     1.5744450    -0.9510270
  H        3.2336060     0.0303330     0.5193890
  H        2.5305840     1.4962520     1.1974230
  H       -2.2159340     1.8224920     1.2344330
  H       -3.1130010     0.3316860     0.9491040
  H       -1.4229750    -3.0387300     0.5441040
  H       -2.7119990    -1.8902510     0.1457090
  H       -1.6650160    -2.5262940    -1.1310850
  H        2.5139960    -2.0634500    -0.5387900
  H        1.5989852    -2.8775353     0.7662555
  H        1.0429930    -2.9642660    -0.9286680
  H        2.8128660     0.8932150    -1.8063400
  H        3.7971100     2.0487280    -0.8855010
  H        2.0638530     2.3513280    -1.1313670
  H       -2.0994070     2.2298930    -1.2537260
  H       -3.7828960     2.1123340    -0.7007770
  H       -3.0218850     0.7415120    -1.5334270
units angstrom
no_reorient  #important for SAPT in psi4, default
symmetry c1  #important for SAPT in psi4, default
}

set PROPERTIES_ORIGIN ["COM"]
properties('MP2/aug-cc-pvtz', properties = ['dipole'])
--------------------------------------------------------------------------

    Molecular point group: c1
  Charge       = 0
  Multiplicity = 1
  Basis Set: AUG-CC-PVTZ
    Blend: AUG-CC-PVTZ
  Basis Set: (AUG-CC-PVTZ AUX)
    Blend: AUG-CC-PVTZ-JKFIT

    Orbital Energies [Eh]
    ---------------------

    Doubly Occupied:

       1A    -20.598915     2A    -11.269966     3A    -11.269282
       4A    -11.230057     5A    -11.230013     6A    -11.223168
       7A    -11.223008     8A    -11.216658     9A    -11.215329
      10A    -11.215012    11A    -11.214722    12A     -1.429456
      13A     -1.099425    14A     -1.078265    15A     -1.036291
      16A     -0.990155    17A     -0.932001    18A     -0.927226
      19A     -0.870162    20A     -0.814538    21A     -0.748040
      22A     -0.722541    23A     -0.657298    24A     -0.627947
      25A     -0.611297    26A     -0.609211    27A     -0.586847
      28A     -0.583519    29A     -0.571133    30A     -0.557829
      31A     -0.549115    32A     -0.534104    33A     -0.527645
      34A     -0.523349    35A     -0.518209    36A     -0.505214
      37A     -0.495213    38A     -0.491741    39A     -0.483631
      40A     -0.468136    41A     -0.360467    42A     -0.276541

  @DF-RHF Final Energy:  -463.00849067080929

   => Energetics <=

    Nuclear Repulsion Energy =            629.4979096176060693
    One-Electron Energy =               -1876.8274520937316083
    Two-Electron Energy =                 784.3210518053161877
    Total Energy =                       -463.0084906708092376
  Basis Set: (AUG-CC-PVTZ AUX)
    Blend: AUG-CC-PVTZ-RI
    Molecular point group: c1

    Geometry (in Angstrom), charge = 0, multiplicity = 1:

       Center              X                  Y                   Z               Mass
    ------------   -----------------  -----------------  -----------------  -----------------
         O            0.073152194612     1.023717462197     0.501693226674    15.994914619570
         C           -0.741060805388    -1.037315537803     0.120870226674    12.000000000000
         C            0.682130094612    -1.113943837803     0.131220026674    12.000000000000
         C           -1.070721805388     0.264705462197     0.389027226674    12.000000000000
         C            1.140834194612     0.178838462197     0.297202226674    12.000000000000
         C           -2.355512805388     1.003322462197     0.513705226674    12.000000000000
         C            2.485675194612     0.813543462197     0.334821226674    12.000000000000
         C           -1.682243805388    -2.180488537803    -0.094694773326    12.000000000000
         C            1.513273194612    -2.320015537803    -0.182348773326    12.000000000000
         C           -2.847879805388     1.558377462197    -0.830780773326    12.000000000000
         C            2.813855194612     1.575904462197    -0.957127773326    12.000000000000
         H            3.234369194612     0.031792462197     0.513288226674     1.007825032230
         H            2.531347194612     1.497711462197     1.191322226674     1.007825032230
         H           -2.215170805388     1.823951462197     1.228332226674     1.007825032230
         H           -3.112237805388     0.333145462197     0.943003226674     1.007825032230
         H           -1.422211805388    -3.037270537803     0.538003226674     1.007825032230
         H           -2.711235805388    -1.888791537803     0.139608226674     1.007825032230
         H           -1.664252805388    -2.524834537803    -1.137185773326     1.007825032230
         H            2.514759194612    -2.061990537803    -0.544890773326     1.007825032230
         H            1.599748394612    -2.876075837803     0.760154726674     1.007825032230
         H            1.043756194612    -2.962806537803    -0.934768773326     1.007825032230
         H            2.813629194612     0.894674462197    -1.812440773326     1.007825032230
         H            3.797873194612     2.050187462197    -0.891601773326     1.007825032230
         H            2.064616194612     2.352787462197    -1.137467773326     1.007825032230
         H           -2.098643805388     2.231352462197    -1.259826773326     1.007825032230
         H           -3.782132805388     2.113793462197    -0.706877773326     1.007825032230
         H           -3.021121805388     0.742971462197    -1.539527773326     1.007825032230

  Basis Set: AUG-CC-PVTZ
    Blend: AUG-CC-PVTZ
  Basis Set: (AUG-CC-PVTZ AUX)
    Blend: AUG-CC-PVTZ-JKFIT
	 Reference Energy          =    -463.0084906708092944 [Eh]
	 Singles Energy            =      -0.0000000000000000 [Eh]
	 Same-Spin Energy          =      -0.4975480264984876 [Eh]
	 Opposite-Spin Energy      =      -1.6679104152281541 [Eh]
	 Correlation Energy        =      -2.1654584417266416 [Eh]
	 Total Energy              =    -465.1739491125359223 [Eh]

	 ================> DF-SCS-MP2 Energies <==================
	-----------------------------------------------------------
	 SCS Same-Spin Scale       =       0.3333333333333333 [-]
	 SCS Opposite-Spin Scale   =       1.2000000000000000 [-]
	 SCS Same-Spin Energy      =      -0.1658493421661625 [Eh]
	 SCS Opposite-Spin Energy  =      -2.0014924982737847 [Eh]
	 SCS Correlation Energy    =      -2.1673418404399474 [Eh]
	 SCS Total Energy          =    -465.1758325112492685 [Eh]
	-----------------------------------------------------------

  Dipole Moment: [D]
     X:    -0.0275      Y:    -0.6494      Z:    -0.2640     Total:     0.7016

*** Psi4 exiting successfully. Buy a developer a beer!
