                               Psi4 1.3.2 release

  ==> Input File <==

--------------------------------------------------------------------------
#psi4
#
memory 32 gb

molecule  {
0 1
  O        0.0723890     1.0222580     0.5077940
  C       -0.7418240    -1.0387750     0.1269710
  C        0.6883760    -1.0936210     0.0623120
  C       -1.0714850     0.2632460     0.3951280
  C        1.1400710     0.1773790     0.3033030
  C       -2.3562760     1.0018630     0.5198060
  C        2.4849120     0.8120840     0.3409220
  C       -1.6830070    -2.1819480    -0.0885940
  C        1.5125100    -2.3214750    -0.1762480
  C       -2.8486430     1.5569180    -0.8246800
  C        2.7697221     1.6048912    -0.9429661
  H        3.2148354     0.0205810     0.5513088
  H        2.5305840     1.4962520     1.1974230
  H       -2.2159340     1.8224920     1.2344330
  H       -3.1130010     0.3316860     0.9491040
  H       -1.4229750    -3.0387300     0.5441040
  H       -2.7119990    -1.8902510     0.1457090
  H       -1.6650160    -2.5262940    -1.1310850
  H        2.5139960    -2.0634500    -0.5387900
  H        1.6307130    -2.9166200     0.7385330
  H        1.0429930    -2.9642660    -0.9286680
  H        2.8128660     0.8932150    -1.8063400
  H        3.7971100     2.0487280    -0.8855010
  H        2.0638530     2.3513280    -1.1313670
  H       -2.0994070     2.2298930    -1.2537260
  H       -3.7828960     2.1123340    -0.7007770
  H       -3.0218850     0.7415120    -1.5334270
units angstrom
no_reorient  #important for SAPT in psi4, default
symmetry c1  #important for SAPT in psi4, default
}

set PROPERTIES_ORIGIN ["COM"]
properties('MP2/aug-cc-pvtz', properties = ['dipole'])
--------------------------------------------------------------------------

    Molecular point group: c1
  Charge       = 0
  Multiplicity = 1
  Basis Set: AUG-CC-PVTZ
    Blend: AUG-CC-PVTZ
  Basis Set: (AUG-CC-PVTZ AUX)
    Blend: AUG-CC-PVTZ-JKFIT

    Orbital Energies [Eh]
    ---------------------

    Doubly Occupied:

       1A    -20.598380     2A    -11.269346     3A    -11.268998
       4A    -11.230332     5A    -11.230043     6A    -11.223094
       7A    -11.222805     8A    -11.215925     9A    -11.215881
      10A    -11.215491    11A    -11.214924    12A     -1.429563
      13A     -1.098607    14A     -1.079163    15A     -1.036379
      16A     -0.989997    17A     -0.932241    18A     -0.927308
      19A     -0.870933    20A     -0.816296    21A     -0.749439
      22A     -0.721580    23A     -0.657831    24A     -0.627122
      25A     -0.612322    26A     -0.608544    27A     -0.588480
      28A     -0.582442    29A     -0.567549    30A     -0.556079
      31A     -0.550581    32A     -0.530970    33A     -0.529096
      34A     -0.524051    35A     -0.521929    36A     -0.510555
      37A     -0.493959    38A     -0.488710    39A     -0.484176
      40A     -0.465627    41A     -0.360661    42A     -0.278598

  @DF-RHF Final Energy:  -463.00835837406862

   => Energetics <=

    Nuclear Repulsion Energy =            629.8474547563728265
    One-Electron Energy =               -1877.5196152107614580
    Two-Electron Energy =                 784.6638020803200106
    Total Energy =                       -463.0083583740686208
  Basis Set: (AUG-CC-PVTZ AUX)
    Blend: AUG-CC-PVTZ-RI
    Molecular point group: c1

    Geometry (in Angstrom), charge = 0, multiplicity = 1:

       Center              X                  Y                   Z               Mass
    ------------   -----------------  -----------------  -----------------  -----------------
         O            0.075934673504     1.019920967889     0.506946605922    15.994914619570
         C           -0.738278326496    -1.041112032111     0.126123605922    12.000000000000
         C            0.691921673504    -1.095958032111     0.061464605922    12.000000000000
         C           -1.067939326496     0.260908967889     0.394280605922    12.000000000000
         C            1.143616673504     0.175041967889     0.302455605922    12.000000000000
         C           -2.352730326496     0.999525967889     0.518958605922    12.000000000000
         C            2.488457673504     0.809746967889     0.340074605922    12.000000000000
         C           -1.679461326496    -2.184285032111    -0.089441394078    12.000000000000
         C            1.516055673504    -2.323812032111    -0.177095394078    12.000000000000
         C           -2.845097326496     1.554580967889    -0.825527394078    12.000000000000
         C            2.773267773504     1.602554167889    -0.943813494078    12.000000000000
         H            3.218381073504     0.018243967889     0.550461405922     1.007825032230
         H            2.534129673504     1.493914967889     1.196575605922     1.007825032230
         H           -2.212388326496     1.820154967889     1.233585605922     1.007825032230
         H           -3.109455326496     0.329348967889     0.948256605922     1.007825032230
         H           -1.419429326496    -3.041067032111     0.543256605922     1.007825032230
         H           -2.708453326496    -1.892588032111     0.144861605922     1.007825032230
         H           -1.661470326496    -2.528631032111    -1.131932394078     1.007825032230
         H            2.517541673504    -2.065787032111    -0.539637394078     1.007825032230
         H            1.634258673504    -2.918957032111     0.737685605922     1.007825032230
         H            1.046538673504    -2.966603032111    -0.929515394078     1.007825032230
         H            2.816411673504     0.890877967889    -1.807187394078     1.007825032230
         H            3.800655673504     2.046390967889    -0.886348394078     1.007825032230
         H            2.067398673504     2.348990967889    -1.132214394078     1.007825032230
         H           -2.095861326496     2.227555967889    -1.254573394078     1.007825032230
         H           -3.779350326496     2.109996967889    -0.701624394078     1.007825032230
         H           -3.018339326496     0.739174967889    -1.534274394078     1.007825032230

  Basis Set: AUG-CC-PVTZ
    Blend: AUG-CC-PVTZ
  Basis Set: (AUG-CC-PVTZ AUX)
    Blend: AUG-CC-PVTZ-JKFIT
	 Reference Energy          =    -463.0083583740686208 [Eh]
	 Singles Energy            =      -0.0000000000000000 [Eh]
	 Same-Spin Energy          =      -0.4971763122581894 [Eh]
	 Opposite-Spin Energy      =      -1.6673111315398446 [Eh]
	 Correlation Energy        =      -2.1644874437980341 [Eh]
	 Total Energy              =    -465.1728458178666301 [Eh]

	 ================> DF-SCS-MP2 Energies <==================
	-----------------------------------------------------------
	 SCS Same-Spin Scale       =       0.3333333333333333 [-]
	 SCS Opposite-Spin Scale   =       1.2000000000000000 [-]
	 SCS Same-Spin Energy      =      -0.1657254374193965 [Eh]
	 SCS Opposite-Spin Energy  =      -2.0007733578478133 [Eh]
	 SCS Correlation Energy    =      -2.1664987952672097 [Eh]
	 SCS Total Energy          =    -465.1748571693358372 [Eh]
	-----------------------------------------------------------

  Dipole Moment: [D]
     X:    -0.0348      Y:    -0.6400      Z:    -0.2046     Total:     0.6729

*** Psi4 exiting successfully. Buy a developer a beer!
