                               Psi4 1.3.2 release

  ==> Input File <==

--------------------------------------------------------------------------
#psi4
#
memory 32 gb

molecule  {
0 1
  O        0.0723890     1.0222580     0.5077940
  C       -0.7418240    -1.0387750     0.1269710
  C        0.6883760    -1.0936210     0.0623120
  C       -1.0714850     0.2632460     0.3951280
  C        1.1294404     0.2006851     0.2990751
  C       -2.3562760     1.0018630     0.5198060
  C        2.4849120     0.8120840     0.3409220
  C       -1.6830070    -2.1819480    -0.0885940
  C        1.5125100    -2.3214750    -0.1762480
  C       -2.8486430     1.5569180    -0.8246800
  C        2.8130920     1.5744450    -0.9510270
  H        3.2473747     0.0436266     0.5188311
  H        2.5305840     1.4962520     1.1974230
  H       -2.2159340     1.8224920     1.2344330
  H       -3.1130010     0.3316860     0.9491040
  H       -1.4229750    -3.0387300     0.5441040
  H       -2.7119990    -1.8902510     0.1457090
  H       -1.6650160    -2.5262940    -1.1310850
  H        2.5139960    -2.0634500    -0.5387900
  H        1.6307130    -2.9166200     0.7385330
  H        1.0429930    -2.9642660    -0.9286680
  H        2.8128660     0.8932150    -1.8063400
  H        3.7971100     2.0487280    -0.8855010
  H        2.0638530     2.3513280    -1.1313670
  H       -2.0994070     2.2298930    -1.2537260
  H       -3.7828960     2.1123340    -0.7007770
  H       -3.0218850     0.7415120    -1.5334270
units angstrom
no_reorient  #important for SAPT in psi4, default
symmetry c1  #important for SAPT in psi4, default
}

set PROPERTIES_ORIGIN ["COM"]
properties('MP2/aug-cc-pvtz', properties = ['dipole'])
--------------------------------------------------------------------------

    Molecular point group: c1
  Charge       = 0
  Multiplicity = 1
  Basis Set: AUG-CC-PVTZ
    Blend: AUG-CC-PVTZ
  Basis Set: (AUG-CC-PVTZ AUX)
    Blend: AUG-CC-PVTZ-JKFIT

    Orbital Energies [Eh]
    ---------------------

    Doubly Occupied:

       1A    -20.602403     2A    -11.271416     3A    -11.268659
       4A    -11.230106     5A    -11.229939     6A    -11.223313
       7A    -11.222353     8A    -11.216495     9A    -11.215445
      10A    -11.215284    11A    -11.214564    12A     -1.438703
      13A     -1.097649    14A     -1.078925    15A     -1.036378
      16A     -0.989056    17A     -0.932040    18A     -0.928653
      19A     -0.869771    20A     -0.815117    21A     -0.752518
      22A     -0.721520    23A     -0.660703    24A     -0.630247
      25A     -0.611087    26A     -0.609708    27A     -0.588740
      28A     -0.583207    29A     -0.568392    30A     -0.555450
      31A     -0.549450    32A     -0.533290    33A     -0.528521
      34A     -0.526311    35A     -0.520734    36A     -0.505730
      37A     -0.495320    38A     -0.491725    39A     -0.484706
      40A     -0.464571    41A     -0.359305    42A     -0.276526

  @DF-RHF Final Energy:  -463.01125168144495

   => Energetics <=

    Nuclear Repulsion Energy =            629.6804610989662478
    One-Electron Energy =               -1877.1553680211657138
    Two-Electron Energy =                 784.4636552407544059
    Total Energy =                       -463.0112516814449464
  Basis Set: (AUG-CC-PVTZ AUX)
    Blend: AUG-CC-PVTZ-RI
    Molecular point group: c1

    Geometry (in Angstrom), charge = 0, multiplicity = 1:

       Center              X                  Y                   Z               Mass
    ------------   -----------------  -----------------  -----------------  -----------------
         O            0.073136453685     1.020331533364     0.508131179303    15.994914619570
         C           -0.741076546315    -1.040701466636     0.127308179303    12.000000000000
         C            0.689123453685    -1.095547466636     0.062649179303    12.000000000000
         C           -1.070737546315     0.261319533364     0.395465179303    12.000000000000
         C            1.130187853685     0.198758633364     0.299412279303    12.000000000000
         C           -2.355528546315     0.999936533364     0.520143179303    12.000000000000
         C            2.485659453685     0.810157533364     0.341259179303    12.000000000000
         C           -1.682259546315    -2.183874466636    -0.088256820697    12.000000000000
         C            1.513257453685    -2.323401466636    -0.175910820697    12.000000000000
         C           -2.847895546315     1.554991533364    -0.824342820697    12.000000000000
         C            2.813839453685     1.572518533364    -0.950689820697    12.000000000000
         H            3.248122153685     0.041700133364     0.519168279303     1.007825032230
         H            2.531331453685     1.494325533364     1.197760179303     1.007825032230
         H           -2.215186546315     1.820565533364     1.234770179303     1.007825032230
         H           -3.112253546315     0.329759533364     0.949441179303     1.007825032230
         H           -1.422227546315    -3.040656466636     0.544441179303     1.007825032230
         H           -2.711251546315    -1.892177466636     0.146046179303     1.007825032230
         H           -1.664268546315    -2.528220466636    -1.130747820697     1.007825032230
         H            2.514743453685    -2.065376466636    -0.538452820697     1.007825032230
         H            1.631460453685    -2.918546466636     0.738870179303     1.007825032230
         H            1.043740453685    -2.966192466636    -0.928330820697     1.007825032230
         H            2.813613453685     0.891288533364    -1.806002820697     1.007825032230
         H            3.797857453685     2.046801533364    -0.885163820697     1.007825032230
         H            2.064600453685     2.349401533364    -1.131029820697     1.007825032230
         H           -2.098659546315     2.227966533364    -1.253388820697     1.007825032230
         H           -3.782148546315     2.110407533364    -0.700439820697     1.007825032230
         H           -3.021137546315     0.739585533364    -1.533089820697     1.007825032230

  Basis Set: AUG-CC-PVTZ
    Blend: AUG-CC-PVTZ
  Basis Set: (AUG-CC-PVTZ AUX)
    Blend: AUG-CC-PVTZ-JKFIT
	 Reference Energy          =    -463.0112516814449464 [Eh]
	 Singles Energy            =      -0.0000000000000000 [Eh]
	 Same-Spin Energy          =      -0.4973584874886471 [Eh]
	 Opposite-Spin Energy      =      -1.6671181037960676 [Eh]
	 Correlation Energy        =      -2.1644765912847146 [Eh]
	 Total Energy              =    -465.1757282727296570 [Eh]

	 ================> DF-SCS-MP2 Energies <==================
	-----------------------------------------------------------
	 SCS Same-Spin Scale       =       0.3333333333333333 [-]
	 SCS Opposite-Spin Scale   =       1.2000000000000000 [-]
	 SCS Same-Spin Energy      =      -0.1657861624962157 [Eh]
	 SCS Opposite-Spin Energy  =      -2.0005417245552812 [Eh]
	 SCS Correlation Energy    =      -2.1663278870514970 [Eh]
	 SCS Total Energy          =    -465.1775795684964692 [Eh]
	-----------------------------------------------------------

  Dipole Moment: [D]
     X:    -0.0526      Y:    -0.6182      Z:    -0.1968     Total:     0.6509

*** Psi4 exiting successfully. Buy a developer a beer!
