                               Psi4 1.3.2 release

  ==> Input File <==

--------------------------------------------------------------------------
#psi4
#
memory 32 gb

molecule  {
0 1
  O        0.0723890     1.0222580     0.5077940
  C       -0.7418240    -1.0387750     0.1269710
  C        0.6899413    -1.0203516     0.0782915
  C       -1.0714850     0.2632460     0.3951280
  C        1.1400710     0.1773790     0.3033030
  C       -2.3562760     1.0018630     0.5198060
  C        2.4849120     0.8120840     0.3409220
  C       -1.7425355    -2.1326993    -0.0756229
  C        1.5125100    -2.3214750    -0.1762480
  C       -2.8486430     1.5569180    -0.8246800
  C        2.8130920     1.5744450    -0.9510270
  H        3.2336060     0.0303330     0.5193890
  H        2.5305840     1.4962520     1.1974230
  H       -2.2159340     1.8224920     1.2344330
  H       -3.1130010     0.3316860     0.9491040
  H       -1.4229750    -3.0387300     0.5441040
  H       -2.7119990    -1.8902510     0.1457090
  H       -1.6650160    -2.5262940    -1.1310850
  H        2.5139960    -2.0634500    -0.5387900
  H        1.6307130    -2.9166200     0.7385330
  H        1.0429930    -2.9642660    -0.9286680
  H        2.8128660     0.8932150    -1.8063400
  H        3.7971100     2.0487280    -0.8855010
  H        2.0638530     2.3513280    -1.1313670
  H       -2.0994070     2.2298930    -1.2537260
  H       -3.7828960     2.1123340    -0.7007770
  H       -3.0218850     0.7415120    -1.5334270
units angstrom
no_reorient  #important for SAPT in psi4, default
symmetry c1  #important for SAPT in psi4, default
}

set PROPERTIES_ORIGIN ["COM"]
properties('MP2/aug-cc-pvtz', properties = ['dipole'])
--------------------------------------------------------------------------

    Molecular point group: c1
  Charge       = 0
  Multiplicity = 1
  Basis Set: AUG-CC-PVTZ
    Blend: AUG-CC-PVTZ
  Basis Set: (AUG-CC-PVTZ AUX)
    Blend: AUG-CC-PVTZ-JKFIT

    Orbital Energies [Eh]
    ---------------------

    Doubly Occupied:

       1A    -20.592934     2A    -11.268988     3A    -11.259446
       4A    -11.230229     5A    -11.230162     6A    -11.226048
       7A    -11.224996     8A    -11.216042     9A    -11.214866
      10A    -11.214658    11A    -11.211512    12A     -1.429746
      13A     -1.099761    14A     -1.081375    15A     -1.036186
      16A     -0.989563    17A     -0.932631    18A     -0.927981
      19A     -0.870842    20A     -0.820551    21A     -0.752213
      22A     -0.721062    23A     -0.659010    24A     -0.627900
      25A     -0.610732    26A     -0.609763    27A     -0.588301
      28A     -0.584666    29A     -0.565892    30A     -0.558143
      31A     -0.541148    32A     -0.535223    33A     -0.525488
      34A     -0.519997    35A     -0.512720    36A     -0.505647
      37A     -0.497621    38A     -0.494106    39A     -0.484071
      40A     -0.466669    41A     -0.365472    42A     -0.286819

  @DF-RHF Final Energy:  -463.00060926826706

   => Energetics <=

    Nuclear Repulsion Energy =            630.6323645986307156
    One-Electron Energy =               -1879.0835913909386363
    Two-Electron Energy =                 785.4506175240408083
    Total Energy =                       -463.0006092682669987
  Basis Set: (AUG-CC-PVTZ AUX)
    Blend: AUG-CC-PVTZ-RI
    Molecular point group: c1

    Geometry (in Angstrom), charge = 0, multiplicity = 1:

       Center              X                  Y                   Z               Mass
    ------------   -----------------  -----------------  -----------------  -----------------
         O            0.076961507591     1.012593264325     0.505510196106    15.994914619570
         C           -0.737251492409    -1.048439735675     0.124687196106    12.000000000000
         C            0.694513807591    -1.030016335675     0.076007696106    12.000000000000
         C           -1.066912492409     0.253581264325     0.392844196106    12.000000000000
         C            1.144643507591     0.167714264325     0.301019196106    12.000000000000
         C           -2.351703492409     0.992198264325     0.517522196106    12.000000000000
         C            2.489484507591     0.802419264325     0.338638196106    12.000000000000
         C           -1.737962992409    -2.142364035675    -0.077906703894    12.000000000000
         C            1.517082507591    -2.331139735675    -0.178531803894    12.000000000000
         C           -2.844070492409     1.547253264325    -0.826963803894    12.000000000000
         C            2.817664507591     1.564780264325    -0.953310803894    12.000000000000
         H            3.238178507591     0.020668264325     0.517105196106     1.007825032230
         H            2.535156507591     1.486587264325     1.195139196106     1.007825032230
         H           -2.211361492409     1.812827264325     1.232149196106     1.007825032230
         H           -3.108428492409     0.322021264325     0.946820196106     1.007825032230
         H           -1.418402492409    -3.048394735675     0.541820196106     1.007825032230
         H           -2.707426492409    -1.899915735675     0.143425196106     1.007825032230
         H           -1.660443492409    -2.535958735675    -1.133368803894     1.007825032230
         H            2.518568507591    -2.073114735675    -0.541073803894     1.007825032230
         H            1.635285507591    -2.926284735675     0.736249196106     1.007825032230
         H            1.047565507591    -2.973930735675    -0.930951803894     1.007825032230
         H            2.817438507591     0.883550264325    -1.808623803894     1.007825032230
         H            3.801682507591     2.039063264325    -0.887784803894     1.007825032230
         H            2.068425507591     2.341663264325    -1.133650803894     1.007825032230
         H           -2.094834492409     2.220228264325    -1.256009803894     1.007825032230
         H           -3.778323492409     2.102669264325    -0.703060803894     1.007825032230
         H           -3.017312492409     0.731847264325    -1.535710803894     1.007825032230

  Basis Set: AUG-CC-PVTZ
    Blend: AUG-CC-PVTZ
  Basis Set: (AUG-CC-PVTZ AUX)
    Blend: AUG-CC-PVTZ-JKFIT
	 Reference Energy          =    -463.0006092682670555 [Eh]
	 Singles Energy            =      -0.0000000000000000 [Eh]
	 Same-Spin Energy          =      -0.4955901289411329 [Eh]
	 Opposite-Spin Energy      =      -1.6651687574887275 [Eh]
	 Correlation Energy        =      -2.1607588864298606 [Eh]
	 Total Energy              =    -465.1613681546969019 [Eh]

	 ================> DF-SCS-MP2 Energies <==================
	-----------------------------------------------------------
	 SCS Same-Spin Scale       =       0.3333333333333333 [-]
	 SCS Opposite-Spin Scale   =       1.2000000000000000 [-]
	 SCS Same-Spin Energy      =      -0.1651967096470443 [Eh]
	 SCS Opposite-Spin Energy  =      -1.9982025089864730 [Eh]
	 SCS Correlation Energy    =      -2.1633992186335171 [Eh]
	 SCS Total Energy          =    -465.1640084869005705 [Eh]
	-----------------------------------------------------------

  Dipole Moment: [D]
     X:    -0.0677      Y:    -0.6166      Z:    -0.2213     Total:     0.6586

*** Psi4 exiting successfully. Buy a developer a beer!
