                               Psi4 1.3.2 release

  ==> Input File <==

--------------------------------------------------------------------------
#psi4
#
memory 32 gb

molecule  {
0 1
  O        0.0723890     1.0222580     0.5077940
  C       -0.7418240    -1.0387750     0.1269710
  C        0.6883760    -1.0936210     0.0623120
  C       -1.0298295     0.2058031     0.3822698
  C        1.0931761     0.1234127     0.2941291
  C       -2.3562760     1.0018630     0.5198060
  C        2.4849120     0.8120840     0.3409220
  C       -1.6830070    -2.1819480    -0.0885940
  C        1.5125100    -2.3214750    -0.1762480
  C       -2.8486430     1.5569180    -0.8246800
  C        2.8130920     1.5744450    -0.9510270
  H        3.2336060     0.0303330     0.5193890
  H        2.5305840     1.4962520     1.1974230
  H       -2.2159340     1.8224920     1.2344330
  H       -3.1130010     0.3316860     0.9491040
  H       -1.4229750    -3.0387300     0.5441040
  H       -2.7119990    -1.8902510     0.1457090
  H       -1.6650160    -2.5262940    -1.1310850
  H        2.5139960    -2.0634500    -0.5387900
  H        1.6307130    -2.9166200     0.7385330
  H        1.0429930    -2.9642660    -0.9286680
  H        2.8128660     0.8932150    -1.8063400
  H        3.7971100     2.0487280    -0.8855010
  H        2.0638530     2.3513280    -1.1313670
  H       -2.0994070     2.2298930    -1.2537260
  H       -3.7828960     2.1123340    -0.7007770
  H       -3.0218850     0.7415120    -1.5334270
units angstrom
no_reorient  #important for SAPT in psi4, default
symmetry c1  #important for SAPT in psi4, default
}

set PROPERTIES_ORIGIN ["COM"]
properties('MP2/aug-cc-pvtz', properties = ['dipole'])
--------------------------------------------------------------------------

    Molecular point group: c1
  Charge       = 0
  Multiplicity = 1
  Basis Set: AUG-CC-PVTZ
    Blend: AUG-CC-PVTZ
  Basis Set: (AUG-CC-PVTZ AUX)
    Blend: AUG-CC-PVTZ-JKFIT

    Orbital Energies [Eh]
    ---------------------

    Doubly Occupied:

       1A    -20.596639     2A    -11.263870     3A    -11.263711
       4A    -11.231146     5A    -11.230975     6A    -11.225269
       7A    -11.224941     8A    -11.214159     9A    -11.213395
      10A    -11.208605    11A    -11.207540    12A     -1.434645
      13A     -1.116352    14A     -1.069268    15A     -1.026917
      16A     -0.994432    17A     -0.944684    18A     -0.924546
      19A     -0.859416    20A     -0.818558    21A     -0.752610
      22A     -0.723353    23A     -0.657144    24A     -0.633194
      25A     -0.605260    26A     -0.604370    27A     -0.584931
      28A     -0.578307    29A     -0.568449    30A     -0.557682
      31A     -0.551618    32A     -0.534367    33A     -0.532566
      34A     -0.531313    35A     -0.516403    36A     -0.503714
      37A     -0.490962    38A     -0.488893    39A     -0.470989
      40A     -0.464611    41A     -0.375332    42A     -0.296221

  @DF-RHF Final Energy:  -463.00298580373351

   => Energetics <=

    Nuclear Repulsion Energy =            631.0502870287142514
    One-Electron Energy =               -1879.9238340771337334
    Two-Electron Energy =                 785.8705612446858595
    Total Energy =                       -463.0029858037335089
  Basis Set: (AUG-CC-PVTZ AUX)
    Blend: AUG-CC-PVTZ-RI
    Molecular point group: c1

    Geometry (in Angstrom), charge = 0, multiplicity = 1:

       Center              X                  Y                   Z               Mass
    ------------   -----------------  -----------------  -----------------  -----------------
         O            0.072802388992     1.031046626640     0.509531967977    15.994914619570
         C           -0.741410611008    -1.029986373360     0.128708967977    12.000000000000
         C            0.688789388992    -1.084832373360     0.064049967977    12.000000000000
         C           -1.029416111008     0.214591726640     0.384007767977    12.000000000000
         C            1.093589488992     0.132201326640     0.295867067977    12.000000000000
         C           -2.355862611008     1.010651626640     0.521543967977    12.000000000000
         C            2.485325388992     0.820872626640     0.342659967977    12.000000000000
         C           -1.682593611008    -2.173159373360    -0.086856032023    12.000000000000
         C            1.512923388992    -2.312686373360    -0.174510032023    12.000000000000
         C           -2.848229611008     1.565706626640    -0.822942032023    12.000000000000
         C            2.813505388992     1.583233626640    -0.949289032023    12.000000000000
         H            3.234019388992     0.039121626640     0.521126967977     1.007825032230
         H            2.530997388992     1.505040626640     1.199160967977     1.007825032230
         H           -2.215520611008     1.831280626640     1.236170967977     1.007825032230
         H           -3.112587611008     0.340474626640     0.950841967977     1.007825032230
         H           -1.422561611008    -3.029941373360     0.545841967977     1.007825032230
         H           -2.711585611008    -1.881462373360     0.147446967977     1.007825032230
         H           -1.664602611008    -2.517505373360    -1.129347032023     1.007825032230
         H            2.514409388992    -2.054661373360    -0.537052032023     1.007825032230
         H            1.631126388992    -2.907831373360     0.740270967977     1.007825032230
         H            1.043406388992    -2.955477373360    -0.926930032023     1.007825032230
         H            2.813279388992     0.902003626640    -1.804602032023     1.007825032230
         H            3.797523388992     2.057516626640    -0.883763032023     1.007825032230
         H            2.064266388992     2.360116626640    -1.129629032023     1.007825032230
         H           -2.098993611008     2.238681626640    -1.251988032023     1.007825032230
         H           -3.782482611008     2.121122626640    -0.699039032023     1.007825032230
         H           -3.021471611008     0.750300626640    -1.531689032023     1.007825032230

  Basis Set: AUG-CC-PVTZ
    Blend: AUG-CC-PVTZ
  Basis Set: (AUG-CC-PVTZ AUX)
    Blend: AUG-CC-PVTZ-JKFIT
	 Reference Energy          =    -463.0029858037335089 [Eh]
	 Singles Energy            =      -0.0000000000000000 [Eh]
	 Same-Spin Energy          =      -0.4938857653805948 [Eh]
	 Opposite-Spin Energy      =      -1.6634270127869391 [Eh]
	 Correlation Energy        =      -2.1573127781675341 [Eh]
	 Total Energy              =    -465.1602985819010314 [Eh]

	 ================> DF-SCS-MP2 Energies <==================
	-----------------------------------------------------------
	 SCS Same-Spin Scale       =       0.3333333333333333 [-]
	 SCS Opposite-Spin Scale   =       1.2000000000000000 [-]
	 SCS Same-Spin Energy      =      -0.1646285884601983 [Eh]
	 SCS Opposite-Spin Energy  =      -1.9961124153443268 [Eh]
	 SCS Correlation Energy    =      -2.1607410038045249 [Eh]
	 SCS Total Energy          =    -465.1637268075380121 [Eh]
	-----------------------------------------------------------

  Dipole Moment: [D]
     X:    -0.0447      Y:    -0.8651      Z:    -0.2494     Total:     0.9014

*** Psi4 exiting successfully. Buy a developer a beer!
