                               Psi4 1.3.2 release

  ==> Input File <==

--------------------------------------------------------------------------
#psi4
#
memory 32 gb

molecule  {
0 1
  O        0.0723890     1.0222580     0.5077940
  C       -0.7418240    -1.0387750     0.1269710
  C        0.7109562    -1.1008100     0.0590912
  C       -1.0714850     0.2632460     0.3951280
  C        1.1400710     0.1773790     0.3033030
  C       -2.3562760     1.0018630     0.5198060
  C        2.4956449     0.7891521     0.3351783
  C       -1.6830070    -2.1819480    -0.0885940
  C        1.5125100    -2.3214750    -0.1762480
  C       -2.8486430     1.5569180    -0.8246800
  C        2.8130920     1.5744450    -0.9510270
  H        3.2336060     0.0303330     0.5193890
  H        2.5305840     1.4962520     1.1974230
  H       -2.2159340     1.8224920     1.2344330
  H       -3.1130010     0.3316860     0.9491040
  H       -1.4229750    -3.0387300     0.5441040
  H       -2.7119990    -1.8902510     0.1457090
  H       -1.6650160    -2.5262940    -1.1310850
  H        2.5139960    -2.0634500    -0.5387900
  H        1.6307130    -2.9166200     0.7385330
  H        1.0429930    -2.9642660    -0.9286680
  H        2.8128660     0.8932150    -1.8063400
  H        3.7971100     2.0487280    -0.8855010
  H        2.0638530     2.3513280    -1.1313670
  H       -2.0994070     2.2298930    -1.2537260
  H       -3.7828960     2.1123340    -0.7007770
  H       -3.0218850     0.7415120    -1.5334270
units angstrom
no_reorient  #important for SAPT in psi4, default
symmetry c1  #important for SAPT in psi4, default
}

set PROPERTIES_ORIGIN ["COM"]
properties('MP2/aug-cc-pvtz', properties = ['dipole'])
--------------------------------------------------------------------------

    Molecular point group: c1
  Charge       = 0
  Multiplicity = 1
  Basis Set: AUG-CC-PVTZ
    Blend: AUG-CC-PVTZ
  Basis Set: (AUG-CC-PVTZ AUX)
    Blend: AUG-CC-PVTZ-JKFIT

    Orbital Energies [Eh]
    ---------------------

    Doubly Occupied:

       1A    -20.598964     2A    -11.270461     3A    -11.269782
       4A    -11.230288     5A    -11.229439     6A    -11.222862
       7A    -11.222487     8A    -11.217174     9A    -11.216149
      10A    -11.215526    11A    -11.214766    12A     -1.429375
      13A     -1.097170    14A     -1.079118    15A     -1.035622
      16A     -0.991851    17A     -0.932219    18A     -0.927611
      19A     -0.869850    20A     -0.815840    21A     -0.750701
      22A     -0.717999    23A     -0.658209    24A     -0.627375
      25A     -0.612131    26A     -0.608945    27A     -0.587933
      28A     -0.583439    29A     -0.568358    30A     -0.556740
      31A     -0.551195    32A     -0.532908    33A     -0.530878
      34A     -0.524316    35A     -0.520987    36A     -0.506597
      37A     -0.494692    38A     -0.492005    39A     -0.485325
      40A     -0.461986    41A     -0.357677    42A     -0.280124

  @DF-RHF Final Energy:  -463.01106580176014

   => Energetics <=

    Nuclear Repulsion Energy =            629.2997194317201775
    One-Electron Energy =               -1876.4274236796825335
    Two-Electron Energy =                 784.1166384462021597
    Total Energy =                       -463.0110658017601963
  Basis Set: (AUG-CC-PVTZ AUX)
    Blend: AUG-CC-PVTZ-RI
    Molecular point group: c1

    Geometry (in Angstrom), charge = 0, multiplicity = 1:

       Center              X                  Y                   Z               Mass
    ------------   -----------------  -----------------  -----------------  -----------------
         O            0.069761173834     1.024634196574     0.508501129946    15.994914619570
         C           -0.744451826166    -1.036398803426     0.127678129946    12.000000000000
         C            0.708328373834    -1.098433803426     0.059798329946    12.000000000000
         C           -1.074112826166     0.265622196574     0.395835129946    12.000000000000
         C            1.137443173834     0.179755196574     0.304010129946    12.000000000000
         C           -2.358903826166     1.004239196574     0.520513129946    12.000000000000
         C            2.493017073834     0.791528296574     0.335885429946    12.000000000000
         C           -1.685634826166    -2.179571803426    -0.087886870054    12.000000000000
         C            1.509882173834    -2.319098803426    -0.175540870054    12.000000000000
         C           -2.851270826166     1.559294196574    -0.823972870054    12.000000000000
         C            2.810464173834     1.576821196574    -0.950319870054    12.000000000000
         H            3.230978173834     0.032709196574     0.520096129946     1.007825032230
         H            2.527956173834     1.498628196574     1.198130129946     1.007825032230
         H           -2.218561826166     1.824868196574     1.235140129946     1.007825032230
         H           -3.115628826166     0.334062196574     0.949811129946     1.007825032230
         H           -1.425602826166    -3.036353803426     0.544811129946     1.007825032230
         H           -2.714626826166    -1.887874803426     0.146416129946     1.007825032230
         H           -1.667643826166    -2.523917803426    -1.130377870054     1.007825032230
         H            2.511368173834    -2.061073803426    -0.538082870054     1.007825032230
         H            1.628085173834    -2.914243803426     0.739240129946     1.007825032230
         H            1.040365173834    -2.961889803426    -0.927960870054     1.007825032230
         H            2.810238173834     0.895591196574    -1.805632870054     1.007825032230
         H            3.794482173834     2.051104196574    -0.884793870054     1.007825032230
         H            2.061225173834     2.353704196574    -1.130659870054     1.007825032230
         H           -2.102034826166     2.232269196574    -1.253018870054     1.007825032230
         H           -3.785523826166     2.114710196574    -0.700069870054     1.007825032230
         H           -3.024512826166     0.743888196574    -1.532719870054     1.007825032230

  Basis Set: AUG-CC-PVTZ
    Blend: AUG-CC-PVTZ
  Basis Set: (AUG-CC-PVTZ AUX)
    Blend: AUG-CC-PVTZ-JKFIT
	 Reference Energy          =    -463.0110658017601395 [Eh]
	 Singles Energy            =      -0.0000000000000000 [Eh]
	 Same-Spin Energy          =      -0.4968569986510509 [Eh]
	 Opposite-Spin Energy      =      -1.6669331329388739 [Eh]
	 Correlation Energy        =      -2.1637901315899248 [Eh]
	 Total Energy              =    -465.1748559333500452 [Eh]

	 ================> DF-SCS-MP2 Energies <==================
	-----------------------------------------------------------
	 SCS Same-Spin Scale       =       0.3333333333333333 [-]
	 SCS Opposite-Spin Scale   =       1.2000000000000000 [-]
	 SCS Same-Spin Energy      =      -0.1656189995503503 [Eh]
	 SCS Opposite-Spin Energy  =      -2.0003197595266484 [Eh]
	 SCS Correlation Energy    =      -2.1659387590769987 [Eh]
	 SCS Total Energy          =    -465.1770045608371333 [Eh]
	-----------------------------------------------------------

  Dipole Moment: [D]
     X:    -0.0223      Y:    -0.6761      Z:    -0.2213     Total:     0.7117

*** Psi4 exiting successfully. Buy a developer a beer!
