                               Psi4 1.3.2 release

  ==> Input File <==

--------------------------------------------------------------------------
#psi4
#
memory 32 gb

molecule  {
0 1
  O        0.0723890     1.0222580     0.5077940
  C       -0.7418240    -1.0387750     0.1269710
  C        0.6883760    -1.0936210     0.0623120
  C       -1.0714850     0.2632460     0.3951280
  C        1.1730358     0.2701368     0.3208906
  C       -2.3562760     1.0018630     0.5198060
  C        2.4849120     0.8120840     0.3409220
  C       -1.6830070    -2.1819480    -0.0885940
  C        1.5125100    -2.3214750    -0.1762480
  C       -2.8486430     1.5569180    -0.8246800
  C        2.8130920     1.5744450    -0.9510270
  H        3.2336060     0.0303330     0.5193890
  H        2.5305840     1.4962520     1.1974230
  H       -2.2159340     1.8224920     1.2344330
  H       -3.1130010     0.3316860     0.9491040
  H       -1.4229750    -3.0387300     0.5441040
  H       -2.7119990    -1.8902510     0.1457090
  H       -1.6650160    -2.5262940    -1.1310850
  H        2.5139960    -2.0634500    -0.5387900
  H        1.6307130    -2.9166200     0.7385330
  H        1.0429930    -2.9642660    -0.9286680
  H        2.8128660     0.8932150    -1.8063400
  H        3.7971100     2.0487280    -0.8855010
  H        2.0638530     2.3513280    -1.1313670
  H       -2.0994070     2.2298930    -1.2537260
  H       -3.7828960     2.1123340    -0.7007770
  H       -3.0218850     0.7415120    -1.5334270
units angstrom
no_reorient  #important for SAPT in psi4, default
symmetry c1  #important for SAPT in psi4, default
}

set PROPERTIES_ORIGIN ["COM"]
properties('MP2/aug-cc-pvtz', properties = ['dipole'])
--------------------------------------------------------------------------

    Molecular point group: c1
  Charge       = 0
  Multiplicity = 1
  Basis Set: AUG-CC-PVTZ
    Blend: AUG-CC-PVTZ
  Basis Set: (AUG-CC-PVTZ AUX)
    Blend: AUG-CC-PVTZ-JKFIT

    Orbital Energies [Eh]
    ---------------------

    Doubly Occupied:

       1A    -20.605311     2A    -11.277976     3A    -11.268220
       4A    -11.230258     5A    -11.228349     6A    -11.223474
       7A    -11.221763     8A    -11.219842     9A    -11.216792
      10A    -11.216660    11A    -11.214946    12A     -1.440089
      13A     -1.093091    14A     -1.085593    15A     -1.040629
      16A     -0.986094    17A     -0.933692    18A     -0.923461
      19A     -0.875802    20A     -0.815367    21A     -0.750019
      22A     -0.719048    23A     -0.664084    24A     -0.629092
      25A     -0.615239    26A     -0.613137    27A     -0.593935
      28A     -0.581830    29A     -0.568464    30A     -0.554221
      31A     -0.548596    32A     -0.534613    33A     -0.530365
      34A     -0.526379    35A     -0.518459    36A     -0.507940
      37A     -0.499573    38A     -0.492777    39A     -0.483664
      40A     -0.458560    41A     -0.353497    42A     -0.264949

  @DF-RHF Final Energy:  -462.99399837229959

   => Energetics <=

    Nuclear Repulsion Energy =            629.0847666151979638
    One-Electron Energy =               -1875.9058257286781100
    Two-Electron Energy =                 783.8270607411807305
    Total Energy =                       -462.9939983722995294
  Basis Set: (AUG-CC-PVTZ AUX)
    Blend: AUG-CC-PVTZ-RI
    Molecular point group: c1

    Geometry (in Angstrom), charge = 0, multiplicity = 1:

       Center              X                  Y                   Z               Mass
    ------------   -----------------  -----------------  -----------------  -----------------
         O            0.069788649491     1.014940906514     0.506406566714    15.994914619570
         C           -0.744424350509    -1.046092093486     0.125583566714    12.000000000000
         C            0.685775649491    -1.100938093486     0.060924566714    12.000000000000
         C           -1.074085350509     0.255928906514     0.393740566714    12.000000000000
         C            1.170435449491     0.262819706514     0.319503166714    12.000000000000
         C           -2.358876350509     0.994545906514     0.518418566714    12.000000000000
         C            2.482311649491     0.804766906514     0.339534566714    12.000000000000
         C           -1.685607350509    -2.189265093486    -0.089981433286    12.000000000000
         C            1.509909649491    -2.328792093486    -0.177635433286    12.000000000000
         C           -2.851243350509     1.549600906514    -0.826067433286    12.000000000000
         C            2.810491649491     1.567127906514    -0.952414433286    12.000000000000
         H            3.231005649491     0.023015906514     0.518001566714     1.007825032230
         H            2.527983649491     1.488934906514     1.196035566714     1.007825032230
         H           -2.218534350509     1.815174906514     1.233045566714     1.007825032230
         H           -3.115601350509     0.324368906514     0.947716566714     1.007825032230
         H           -1.425575350509    -3.046047093486     0.542716566714     1.007825032230
         H           -2.714599350509    -1.897568093486     0.144321566714     1.007825032230
         H           -1.667616350509    -2.533611093486    -1.132472433286     1.007825032230
         H            2.511395649491    -2.070767093486    -0.540177433286     1.007825032230
         H            1.628112649491    -2.923937093486     0.737145566714     1.007825032230
         H            1.040392649491    -2.971583093486    -0.930055433286     1.007825032230
         H            2.810265649491     0.885897906514    -1.807727433286     1.007825032230
         H            3.794509649491     2.041410906514    -0.886888433286     1.007825032230
         H            2.061252649491     2.344010906514    -1.132754433286     1.007825032230
         H           -2.102007350509     2.222575906514    -1.255113433286     1.007825032230
         H           -3.785496350509     2.105016906514    -0.702164433286     1.007825032230
         H           -3.024485350509     0.734194906514    -1.534814433286     1.007825032230

  Basis Set: AUG-CC-PVTZ
    Blend: AUG-CC-PVTZ
  Basis Set: (AUG-CC-PVTZ AUX)
    Blend: AUG-CC-PVTZ-JKFIT
	 Reference Energy          =    -462.9939983722995862 [Eh]
	 Singles Energy            =      -0.0000000000000000 [Eh]
	 Same-Spin Energy          =      -0.5000134628413537 [Eh]
	 Opposite-Spin Energy      =      -1.6704264749516438 [Eh]
	 Correlation Energy        =      -2.1704399377929975 [Eh]
	 Total Energy              =    -465.1644383100925779 [Eh]

	 ================> DF-SCS-MP2 Energies <==================
	-----------------------------------------------------------
	 SCS Same-Spin Scale       =       0.3333333333333333 [-]
	 SCS Opposite-Spin Scale   =       1.2000000000000000 [-]
	 SCS Same-Spin Energy      =      -0.1666711542804512 [Eh]
	 SCS Opposite-Spin Energy  =      -2.0045117699419723 [Eh]
	 SCS Correlation Energy    =      -2.1711829242224234 [Eh]
	 SCS Total Energy          =    -465.1651812965220074 [Eh]
	-----------------------------------------------------------

  Dipole Moment: [D]
     X:    -0.0370      Y:    -0.5038      Z:    -0.1799     Total:     0.5362

*** Psi4 exiting successfully. Buy a developer a beer!
