                               Psi4 1.3.2 release

  ==> Input File <==

--------------------------------------------------------------------------
#psi4
#
memory 32 gb

molecule  {
0 1
  O        0.0723890     1.0222580     0.5077940
  C       -0.7418240    -1.0387750     0.1269710
  C        0.6771371    -1.0898812     0.0639500
  C       -1.0714850     0.2632460     0.3951280
  C        1.1400710     0.1773790     0.3033030
  C       -2.3562760     1.0018630     0.5198060
  C        2.4793917     0.8234779     0.3437897
  C       -1.6830070    -2.1819480    -0.0885940
  C        1.5125100    -2.3214750    -0.1762480
  C       -2.8486430     1.5569180    -0.8246800
  C        2.8130920     1.5744450    -0.9510270
  H        3.2336060     0.0303330     0.5193890
  H        2.5305840     1.4962520     1.1974230
  H       -2.2159340     1.8224920     1.2344330
  H       -3.1130010     0.3316860     0.9491040
  H       -1.4229750    -3.0387300     0.5441040
  H       -2.7119990    -1.8902510     0.1457090
  H       -1.6650160    -2.5262940    -1.1310850
  H        2.5139960    -2.0634500    -0.5387900
  H        1.6307130    -2.9166200     0.7385330
  H        1.0429930    -2.9642660    -0.9286680
  H        2.8128660     0.8932150    -1.8063400
  H        3.7971100     2.0487280    -0.8855010
  H        2.0638530     2.3513280    -1.1313670
  H       -2.0994070     2.2298930    -1.2537260
  H       -3.7828960     2.1123340    -0.7007770
  H       -3.0218850     0.7415120    -1.5334270
units angstrom
no_reorient  #important for SAPT in psi4, default
symmetry c1  #important for SAPT in psi4, default
}

set PROPERTIES_ORIGIN ["COM"]
properties('MP2/aug-cc-pvtz', properties = ['dipole'])
--------------------------------------------------------------------------

    Molecular point group: c1
  Charge       = 0
  Multiplicity = 1
  Basis Set: AUG-CC-PVTZ
    Blend: AUG-CC-PVTZ
  Basis Set: (AUG-CC-PVTZ AUX)
    Blend: AUG-CC-PVTZ-JKFIT

    Orbital Energies [Eh]
    ---------------------

    Doubly Occupied:

       1A    -20.598507     2A    -11.269576     3A    -11.269007
       4A    -11.230333     5A    -11.230056     6A    -11.223383
       7A    -11.223075     8A    -11.215909     9A    -11.215485
      10A    -11.214658    11A    -11.214484    12A     -1.429924
      13A     -1.099770    14A     -1.078744    15A     -1.036516
      16A     -0.989211    17A     -0.932531    18A     -0.927451
      19A     -0.870328    20A     -0.815523    21A     -0.748783
      22A     -0.723716    23A     -0.658102    24A     -0.627328
      25A     -0.611305    26A     -0.609341    27A     -0.586319
      28A     -0.583768    29A     -0.567489    30A     -0.555332
      31A     -0.548988    32A     -0.533898    33A     -0.527244
      34A     -0.523392    35A     -0.521023    36A     -0.505601
      37A     -0.495256    38A     -0.492529    39A     -0.482411
      40A     -0.469524    41A     -0.362309    42A     -0.278359

  @DF-RHF Final Energy:  -463.01133673762990

   => Energetics <=

    Nuclear Repulsion Energy =            629.7237224230356105
    One-Electron Energy =               -1877.2771405485007108
    Two-Electron Energy =                 784.5420813878353101
    Total Energy =                       -463.0113367376299038
  Basis Set: (AUG-CC-PVTZ AUX)
    Blend: AUG-CC-PVTZ-RI
    Molecular point group: c1

    Geometry (in Angstrom), charge = 0, multiplicity = 1:

       Center              X                  Y                   Z               Mass
    ------------   -----------------  -----------------  -----------------  -----------------
         O            0.073711128773     1.021064286050     0.507438532801    15.994914619570
         C           -0.740501871227    -1.039968713950     0.126615532801    12.000000000000
         C            0.678459228773    -1.091074913950     0.063594532801    12.000000000000
         C           -1.070162871227     0.262052286050     0.394772532801    12.000000000000
         C            1.141393128773     0.176185286050     0.302947532801    12.000000000000
         C           -2.354953871227     1.000669286050     0.519450532801    12.000000000000
         C            2.480713828773     0.822284186050     0.343434232801    12.000000000000
         C           -1.681684871227    -2.183141713950    -0.088949467199    12.000000000000
         C            1.513832128773    -2.322668713950    -0.176603467199    12.000000000000
         C           -2.847320871227     1.555724286050    -0.825035467199    12.000000000000
         C            2.814414128773     1.573251286050    -0.951382467199    12.000000000000
         H            3.234928128773     0.029139286050     0.519033532801     1.007825032230
         H            2.531906128773     1.495058286050     1.197067532801     1.007825032230
         H           -2.214611871227     1.821298286050     1.234077532801     1.007825032230
         H           -3.111678871227     0.330492286050     0.948748532801     1.007825032230
         H           -1.421652871227    -3.039923713950     0.543748532801     1.007825032230
         H           -2.710676871227    -1.891444713950     0.145353532801     1.007825032230
         H           -1.663693871227    -2.527487713950    -1.131440467199     1.007825032230
         H            2.515318128773    -2.064643713950    -0.539145467199     1.007825032230
         H            1.632035128773    -2.917813713950     0.738177532801     1.007825032230
         H            1.044315128773    -2.965459713950    -0.929023467199     1.007825032230
         H            2.814188128773     0.892021286050    -1.806695467199     1.007825032230
         H            3.798432128773     2.047534286050    -0.885856467199     1.007825032230
         H            2.065175128773     2.350134286050    -1.131722467199     1.007825032230
         H           -2.098084871227     2.228699286050    -1.254081467199     1.007825032230
         H           -3.781573871227     2.111140286050    -0.701132467199     1.007825032230
         H           -3.020562871227     0.740318286050    -1.533782467199     1.007825032230

  Basis Set: AUG-CC-PVTZ
    Blend: AUG-CC-PVTZ
  Basis Set: (AUG-CC-PVTZ AUX)
    Blend: AUG-CC-PVTZ-JKFIT
	 Reference Energy          =    -463.0113367376299038 [Eh]
	 Singles Energy            =      -0.0000000000000000 [Eh]
	 Same-Spin Energy          =      -0.4972530025582177 [Eh]
	 Opposite-Spin Energy      =      -1.6672884476532812 [Eh]
	 Correlation Energy        =      -2.1645414502114990 [Eh]
	 Total Energy              =    -465.1758781878414197 [Eh]

	 ================> DF-SCS-MP2 Energies <==================
	-----------------------------------------------------------
	 SCS Same-Spin Scale       =       0.3333333333333333 [-]
	 SCS Opposite-Spin Scale   =       1.2000000000000000 [-]
	 SCS Same-Spin Energy      =      -0.1657510008527392 [Eh]
	 SCS Opposite-Spin Energy  =      -2.0007461371839375 [Eh]
	 SCS Correlation Energy    =      -2.1664971380366769 [Eh]
	 SCS Total Energy          =    -465.1778338756665789 [Eh]
	-----------------------------------------------------------

  Dipole Moment: [D]
     X:    -0.0366      Y:    -0.6412      Z:    -0.2143     Total:     0.6771

*** Psi4 exiting successfully. Buy a developer a beer!
