                               Psi4 1.3.2 release

  ==> Input File <==

--------------------------------------------------------------------------
#psi4
#
memory 32 gb

molecule  {
0 1
  O        0.0723890     1.0222580     0.5077940
  C       -0.7418240    -1.0387750     0.1269710
  C        0.6883760    -1.0936210     0.0623120
  C       -1.0714850     0.2632460     0.3951280
  C        1.1625792     0.1694615     0.3016863
  C       -2.3562760     1.0018630     0.5198060
  C        2.4849120     0.8120840     0.3409220
  C       -1.6830070    -2.1819480    -0.0885940
  C        1.5342139    -2.3071423    -0.1736062
  C       -2.8486430     1.5569180    -0.8246800
  C        2.8130920     1.5744450    -0.9510270
  H        3.2336060     0.0303330     0.5193890
  H        2.5305840     1.4962520     1.1974230
  H       -2.2159340     1.8224920     1.2344330
  H       -3.1130010     0.3316860     0.9491040
  H       -1.4229750    -3.0387300     0.5441040
  H       -2.7119990    -1.8902510     0.1457090
  H       -1.6650160    -2.5262940    -1.1310850
  H        2.5139960    -2.0634500    -0.5387900
  H        1.6307130    -2.9166200     0.7385330
  H        1.0429930    -2.9642660    -0.9286680
  H        2.8128660     0.8932150    -1.8063400
  H        3.7971100     2.0487280    -0.8855010
  H        2.0638530     2.3513280    -1.1313670
  H       -2.0994070     2.2298930    -1.2537260
  H       -3.7828960     2.1123340    -0.7007770
  H       -3.0218850     0.7415120    -1.5334270
units angstrom
no_reorient  #important for SAPT in psi4, default
symmetry c1  #important for SAPT in psi4, default
}

set PROPERTIES_ORIGIN ["COM"]
properties('MP2/aug-cc-pvtz', properties = ['dipole'])
--------------------------------------------------------------------------

    Molecular point group: c1
  Charge       = 0
  Multiplicity = 1
  Basis Set: AUG-CC-PVTZ
    Blend: AUG-CC-PVTZ
  Basis Set: (AUG-CC-PVTZ AUX)
    Blend: AUG-CC-PVTZ-JKFIT

    Orbital Energies [Eh]
    ---------------------

    Doubly Occupied:

       1A    -20.595044     2A    -11.270885     3A    -11.268822
       4A    -11.230345     5A    -11.229745     6A    -11.223118
       7A    -11.222961     8A    -11.217939     9A    -11.215734
      10A    -11.215300    11A    -11.214978    12A     -1.420412
      13A     -1.098263    14A     -1.080342    15A     -1.037445
      16A     -0.990964    17A     -0.931153    18A     -0.926554
      19A     -0.871746    20A     -0.816105    21A     -0.745353
      22A     -0.722368    23A     -0.656390    24A     -0.623679
      25A     -0.612399    26A     -0.610312    27A     -0.587511
      28A     -0.583985    29A     -0.565448    30A     -0.555866
      31A     -0.551150    32A     -0.534384    33A     -0.526352
      34A     -0.521767    35A     -0.519063    36A     -0.504865
      37A     -0.495896    38A     -0.494369    39A     -0.483221
      40A     -0.470217    41A     -0.360299    42A     -0.279065

  @DF-RHF Final Energy:  -463.00964625613005

   => Energetics <=

    Nuclear Repulsion Energy =            629.3119673621736183
    One-Electron Energy =               -1876.4796041978538597
    Two-Electron Energy =                 784.1579905795501872
    Total Energy =                       -463.0096462561300541
  Basis Set: (AUG-CC-PVTZ AUX)
    Blend: AUG-CC-PVTZ-RI
    Molecular point group: c1

    Geometry (in Angstrom), charge = 0, multiplicity = 1:

       Center              X                  Y                   Z               Mass
    ------------   -----------------  -----------------  -----------------  -----------------
         O            0.068901405881     1.021752045192     0.507713100040    15.994914619570
         C           -0.745311594119    -1.039280954808     0.126890100040    12.000000000000
         C            0.684888405881    -1.094126954808     0.062231100040    12.000000000000
         C           -1.074972594119     0.262740045192     0.395047100040    12.000000000000
         C            1.159091605881     0.168955545192     0.301605400040    12.000000000000
         C           -2.359763594119     1.001357045192     0.519725100040    12.000000000000
         C            2.481424405881     0.811578045192     0.340841100040    12.000000000000
         C           -1.686494594119    -2.182453954808    -0.088674899960    12.000000000000
         C            1.530726305881    -2.307648254808    -0.173687099960    12.000000000000
         C           -2.852130594119     1.556412045192    -0.824760899960    12.000000000000
         C            2.809604405881     1.573939045192    -0.951107899960    12.000000000000
         H            3.230118405881     0.029827045192     0.519308100040     1.007825032230
         H            2.527096405881     1.495746045192     1.197342100040     1.007825032230
         H           -2.219421594119     1.821986045192     1.234352100040     1.007825032230
         H           -3.116488594119     0.331180045192     0.949023100040     1.007825032230
         H           -1.426462594119    -3.039235954808     0.544023100040     1.007825032230
         H           -2.715486594119    -1.890756954808     0.145628100040     1.007825032230
         H           -1.668503594119    -2.526799954808    -1.131165899960     1.007825032230
         H            2.510508405881    -2.063955954808    -0.538870899960     1.007825032230
         H            1.627225405881    -2.917125954808     0.738452100040     1.007825032230
         H            1.039505405881    -2.964771954808    -0.928748899960     1.007825032230
         H            2.809378405881     0.892709045192    -1.806420899960     1.007825032230
         H            3.793622405881     2.048222045192    -0.885581899960     1.007825032230
         H            2.060365405881     2.350822045192    -1.131447899960     1.007825032230
         H           -2.102894594119     2.229387045192    -1.253806899960     1.007825032230
         H           -3.786383594119     2.111828045192    -0.700857899960     1.007825032230
         H           -3.025372594119     0.741006045192    -1.533507899960     1.007825032230

  Basis Set: AUG-CC-PVTZ
    Blend: AUG-CC-PVTZ
  Basis Set: (AUG-CC-PVTZ AUX)
    Blend: AUG-CC-PVTZ-JKFIT
	 Reference Energy          =    -463.0096462561300541 [Eh]
	 Singles Energy            =      -0.0000000000000000 [Eh]
	 Same-Spin Energy          =      -0.4973654516592905 [Eh]
	 Opposite-Spin Energy      =      -1.6678012637765198 [Eh]
	 Correlation Energy        =      -2.1651667154358103 [Eh]
	 Total Energy              =    -465.1748129715658706 [Eh]

	 ================> DF-SCS-MP2 Energies <==================
	-----------------------------------------------------------
	 SCS Same-Spin Scale       =       0.3333333333333333 [-]
	 SCS Opposite-Spin Scale   =       1.2000000000000000 [-]
	 SCS Same-Spin Energy      =      -0.1657884838864301 [Eh]
	 SCS Opposite-Spin Energy  =      -2.0013615165318237 [Eh]
	 SCS Correlation Energy    =      -2.1671500004182538 [Eh]
	 SCS Total Energy          =    -465.1767962565483003 [Eh]
	-----------------------------------------------------------

  Dipole Moment: [D]
     X:     0.0096      Y:    -0.6534      Z:    -0.2231     Total:     0.6905

*** Psi4 exiting successfully. Buy a developer a beer!
