                               Psi4 1.3.2 release

  ==> Input File <==

--------------------------------------------------------------------------
#psi4
#
memory 32 gb

molecule  {
0 1
  O        0.0723890     1.0222580     0.5077940
  C       -0.7418240    -1.0387750     0.1269710
  C        0.6883760    -1.0936210     0.0623120
  C       -1.0714850     0.2632460     0.3951280
  C        1.1400710     0.1773790     0.3033030
  C       -2.3562760     1.0018630     0.5198060
  C        2.4849120     0.8120840     0.3409220
  C       -1.6830070    -2.1819480    -0.0885940
  C        1.5125100    -2.3214750    -0.1762480
  C       -2.8472827     1.6062432    -0.8037464
  C        2.8130920     1.5744450    -0.9510270
  H        3.2336060     0.0303330     0.5193890
  H        2.5305840     1.4962520     1.1974230
  H       -2.2273030     1.8471006     1.2073806
  H       -3.1130010     0.3316860     0.9491040
  H       -1.4229750    -3.0387300     0.5441040
  H       -2.7119990    -1.8902510     0.1457090
  H       -1.6650160    -2.5262940    -1.1310850
  H        2.5139960    -2.0634500    -0.5387900
  H        1.6307130    -2.9166200     0.7385330
  H        1.0429930    -2.9642660    -0.9286680
  H        2.8128660     0.8932150    -1.8063400
  H        3.7971100     2.0487280    -0.8855010
  H        2.0638530     2.3513280    -1.1313670
  H       -2.0994070     2.2298930    -1.2537260
  H       -3.7828960     2.1123340    -0.7007770
  H       -3.0218850     0.7415120    -1.5334270
units angstrom
no_reorient  #important for SAPT in psi4, default
symmetry c1  #important for SAPT in psi4, default
}

set PROPERTIES_ORIGIN ["COM"]
properties('MP2/aug-cc-pvtz', properties = ['dipole'])
--------------------------------------------------------------------------

    Molecular point group: c1
  Charge       = 0
  Multiplicity = 1
  Basis Set: AUG-CC-PVTZ
    Blend: AUG-CC-PVTZ
  Basis Set: (AUG-CC-PVTZ AUX)
    Blend: AUG-CC-PVTZ-JKFIT

    Orbital Energies [Eh]
    ---------------------

    Doubly Occupied:

       1A    -20.598837     2A    -11.270199     3A    -11.269877
       4A    -11.230202     5A    -11.230181     6A    -11.223291
       7A    -11.223047     8A    -11.216630     9A    -11.215649
      10A    -11.215431    11A    -11.214877    12A     -1.429915
      13A     -1.099018    14A     -1.078864    15A     -1.036414
      16A     -0.990466    17A     -0.932563    18A     -0.927935
      19A     -0.870086    20A     -0.815312    21A     -0.749676
      22A     -0.721950    23A     -0.658730    24A     -0.627662
      25A     -0.612560    26A     -0.607938    27A     -0.590529
      28A     -0.582432    29A     -0.567793    30A     -0.556121
      31A     -0.549534    32A     -0.536955    33A     -0.528910
      34A     -0.524194    35A     -0.519725    36A     -0.507188
      37A     -0.496948    38A     -0.489534    39A     -0.478816
      40A     -0.466025    41A     -0.360975    42A     -0.279376

  @DF-RHF Final Energy:  -463.00870529161773

   => Energetics <=

    Nuclear Repulsion Energy =            629.3574604968708854
    One-Electron Energy =               -1876.5275964224185827
    Two-Electron Energy =                 784.1614306339298537
    Total Energy =                       -463.0087052916177299
  Basis Set: (AUG-CC-PVTZ AUX)
    Blend: AUG-CC-PVTZ-RI
    Molecular point group: c1

    Geometry (in Angstrom), charge = 0, multiplicity = 1:

       Center              X                  Y                   Z               Mass
    ------------   -----------------  -----------------  -----------------  -----------------
         O            0.072357093266     1.018204051802     0.506321844755    15.994914619570
         C           -0.741855906734    -1.042828948198     0.125498844755    12.000000000000
         C            0.688344093266    -1.097674948198     0.060839844755    12.000000000000
         C           -1.071516906734     0.259192051802     0.393655844755    12.000000000000
         C            1.140039093266     0.173325051802     0.301830844755    12.000000000000
         C           -2.356307906734     0.997809051802     0.518333844755    12.000000000000
         C            2.484880093266     0.808030051802     0.339449844755    12.000000000000
         C           -1.683038906734    -2.186001948198    -0.090066155245    12.000000000000
         C            1.512478093266    -2.325528948198    -0.177720155245    12.000000000000
         C           -2.847314606734     1.602189251802    -0.805218555245    12.000000000000
         C            2.813060093266     1.570391051802    -0.952499155245    12.000000000000
         H            3.233574093266     0.026279051802     0.517916844755     1.007825032230
         H            2.530552093266     1.492198051802     1.195950844755     1.007825032230
         H           -2.227334906734     1.843046651802     1.205908444755     1.007825032230
         H           -3.113032906734     0.327632051802     0.947631844755     1.007825032230
         H           -1.423006906734    -3.042783948198     0.542631844755     1.007825032230
         H           -2.712030906734    -1.894304948198     0.144236844755     1.007825032230
         H           -1.665047906734    -2.530347948198    -1.132557155245     1.007825032230
         H            2.513964093266    -2.067503948198    -0.540262155245     1.007825032230
         H            1.630681093266    -2.920673948198     0.737060844755     1.007825032230
         H            1.042961093266    -2.968319948198    -0.930140155245     1.007825032230
         H            2.812834093266     0.889161051802    -1.807812155245     1.007825032230
         H            3.797078093266     2.044674051802    -0.886973155245     1.007825032230
         H            2.063821093266     2.347274051802    -1.132839155245     1.007825032230
         H           -2.099438906734     2.225839051802    -1.255198155245     1.007825032230
         H           -3.782927906734     2.108280051802    -0.702249155245     1.007825032230
         H           -3.021916906734     0.737458051802    -1.534899155245     1.007825032230

  Basis Set: AUG-CC-PVTZ
    Blend: AUG-CC-PVTZ
  Basis Set: (AUG-CC-PVTZ AUX)
    Blend: AUG-CC-PVTZ-JKFIT
	 Reference Energy          =    -463.0087052916177299 [Eh]
	 Singles Energy            =      -0.0000000000000000 [Eh]
	 Same-Spin Energy          =      -0.4971312244757621 [Eh]
	 Opposite-Spin Energy      =      -1.6672500829177346 [Eh]
	 Correlation Energy        =      -2.1643813073934965 [Eh]
	 Total Energy              =    -465.1730865990112420 [Eh]

	 ================> DF-SCS-MP2 Energies <==================
	-----------------------------------------------------------
	 SCS Same-Spin Scale       =       0.3333333333333333 [-]
	 SCS Opposite-Spin Scale   =       1.2000000000000000 [-]
	 SCS Same-Spin Energy      =      -0.1657104081585873 [Eh]
	 SCS Opposite-Spin Energy  =      -2.0007000995012816 [Eh]
	 SCS Correlation Energy    =      -2.1664105076598688 [Eh]
	 SCS Total Energy          =    -465.1751157992775916 [Eh]
	-----------------------------------------------------------

  Dipole Moment: [D]
     X:    -0.0115      Y:    -0.6374      Z:    -0.2090     Total:     0.6709

*** Psi4 exiting successfully. Buy a developer a beer!
