                               Psi4 1.3.2 release

  ==> Input File <==

--------------------------------------------------------------------------
#psi4
#
memory 32 gb

molecule  {
0 1
  O        0.0723890     1.0222580     0.5077940
  C       -0.7288814    -1.0530529     0.1445975
  C        0.6883760    -1.0936210     0.0623120
  C       -1.0714850     0.2632460     0.3951280
  C        1.1400710     0.1773790     0.3033030
  C       -2.3562760     1.0018630     0.5198060
  C        2.4849120     0.8120840     0.3409220
  C       -1.6830070    -2.1819480    -0.0885940
  C        1.5125100    -2.3214750    -0.1762480
  C       -2.8486430     1.5569180    -0.8246800
  C        2.8130920     1.5744450    -0.9510270
  H        3.2336060     0.0303330     0.5193890
  H        2.5305840     1.4962520     1.1974230
  H       -2.2159340     1.8224920     1.2344330
  H       -3.1130010     0.3316860     0.9491040
  H       -1.4083120    -3.0287573     0.5512930
  H       -2.7119990    -1.8902510     0.1457090
  H       -1.6650160    -2.5262940    -1.1310850
  H        2.5139960    -2.0634500    -0.5387900
  H        1.6307130    -2.9166200     0.7385330
  H        1.0429930    -2.9642660    -0.9286680
  H        2.8128660     0.8932150    -1.8063400
  H        3.7971100     2.0487280    -0.8855010
  H        2.0638530     2.3513280    -1.1313670
  H       -2.0994070     2.2298930    -1.2537260
  H       -3.7828960     2.1123340    -0.7007770
  H       -3.0218850     0.7415120    -1.5334270
units angstrom
no_reorient  #important for SAPT in psi4, default
symmetry c1  #important for SAPT in psi4, default
}

set PROPERTIES_ORIGIN ["COM"]
properties('MP2/aug-cc-pvtz', properties = ['dipole'])
--------------------------------------------------------------------------

    Molecular point group: c1
  Charge       = 0
  Multiplicity = 1
  Basis Set: AUG-CC-PVTZ
    Blend: AUG-CC-PVTZ
  Basis Set: (AUG-CC-PVTZ AUX)
    Blend: AUG-CC-PVTZ-JKFIT

    Orbital Energies [Eh]
    ---------------------

    Doubly Occupied:

       1A    -20.599622     2A    -11.270929     3A    -11.269249
       4A    -11.230515     5A    -11.229968     6A    -11.223134
       7A    -11.222764     8A    -11.216183     9A    -11.215633
      10A    -11.215000    11A    -11.214569    12A     -1.429937
      13A     -1.099862    14A     -1.078397    15A     -1.036471
      16A     -0.989759    17A     -0.932214    18A     -0.927141
      19A     -0.870411    20A     -0.814761    21A     -0.748239
      22A     -0.723953    23A     -0.657849    24A     -0.627222
      25A     -0.610963    26A     -0.610073    27A     -0.586759
      28A     -0.583858    29A     -0.568264    30A     -0.556001
      31A     -0.550508    32A     -0.534084    33A     -0.527257
      34A     -0.524245    35A     -0.519821    36A     -0.505379
      37A     -0.495465    38A     -0.491805    39A     -0.483834
      40A     -0.468751    41A     -0.361473    42A     -0.276453

  @DF-RHF Final Energy:  -463.01034303024983

   => Energetics <=

    Nuclear Repulsion Energy =            629.5451823703029959
    One-Electron Energy =               -1876.9134986928791022
    Two-Electron Energy =                 784.3579732923261645
    Total Energy =                       -463.0103430302498282
  Basis Set: (AUG-CC-PVTZ AUX)
    Blend: AUG-CC-PVTZ-RI
    Molecular point group: c1

    Geometry (in Angstrom), charge = 0, multiplicity = 1:

       Center              X                  Y                   Z               Mass
    ------------   -----------------  -----------------  -----------------  -----------------
         O            0.071270956162     1.023318349971     0.506355869578    15.994914619570
         C           -0.729999443838    -1.051992550029     0.143159369578    12.000000000000
         C            0.687257956162    -1.092560650029     0.060873869578    12.000000000000
         C           -1.072603043838     0.264306349971     0.393689869578    12.000000000000
         C            1.138952956162     0.178439349971     0.301864869578    12.000000000000
         C           -2.357394043838     1.002923349971     0.518367869578    12.000000000000
         C            2.483793956162     0.813144349971     0.339483869578    12.000000000000
         C           -1.684125043838    -2.180887650029    -0.090032130422    12.000000000000
         C            1.511391956162    -2.320414650029    -0.177686130422    12.000000000000
         C           -2.849761043838     1.557978349971    -0.826118130422    12.000000000000
         C            2.811973956162     1.575505349971    -0.952465130422    12.000000000000
         H            3.232487956162     0.031393349971     0.517950869578     1.007825032230
         H            2.529465956162     1.497312349971     1.195984869578     1.007825032230
         H           -2.217052043838     1.823552349971     1.232994869578     1.007825032230
         H           -3.114119043838     0.332746349971     0.947665869578     1.007825032230
         H           -1.409430043838    -3.027696950029     0.549854869578     1.007825032230
         H           -2.713117043838    -1.889190650029     0.144270869578     1.007825032230
         H           -1.666134043838    -2.525233650029    -1.132523130422     1.007825032230
         H            2.512877956162    -2.062389650029    -0.540228130422     1.007825032230
         H            1.629594956162    -2.915559650029     0.737094869578     1.007825032230
         H            1.041874956162    -2.963205650029    -0.930106130422     1.007825032230
         H            2.811747956162     0.894275349971    -1.807778130422     1.007825032230
         H            3.795991956162     2.049788349971    -0.886939130422     1.007825032230
         H            2.062734956162     2.352388349971    -1.132805130422     1.007825032230
         H           -2.100525043838     2.230953349971    -1.255164130422     1.007825032230
         H           -3.784014043838     2.113394349971    -0.702215130422     1.007825032230
         H           -3.023003043838     0.742572349971    -1.534865130422     1.007825032230

  Basis Set: AUG-CC-PVTZ
    Blend: AUG-CC-PVTZ
  Basis Set: (AUG-CC-PVTZ AUX)
    Blend: AUG-CC-PVTZ-JKFIT
	 Reference Energy          =    -463.0103430302498282 [Eh]
	 Singles Energy            =      -0.0000000000000000 [Eh]
	 Same-Spin Energy          =      -0.4975910378245085 [Eh]
	 Opposite-Spin Energy      =      -1.6677690254078144 [Eh]
	 Correlation Energy        =      -2.1653600632323227 [Eh]
	 Total Energy              =    -465.1757030934821273 [Eh]

	 ================> DF-SCS-MP2 Energies <==================
	-----------------------------------------------------------
	 SCS Same-Spin Scale       =       0.3333333333333333 [-]
	 SCS Opposite-Spin Scale   =       1.2000000000000000 [-]
	 SCS Same-Spin Energy      =      -0.1658636792748361 [Eh]
	 SCS Opposite-Spin Energy  =      -2.0013228304893773 [Eh]
	 SCS Correlation Energy    =      -2.1671865097642136 [Eh]
	 SCS Total Energy          =    -465.1775295400140635 [Eh]
	-----------------------------------------------------------

  Dipole Moment: [D]
     X:    -0.0332      Y:    -0.6387      Z:    -0.2261     Total:     0.6783

*** Psi4 exiting successfully. Buy a developer a beer!
