                               Psi4 1.3.2 release

  ==> Input File <==

--------------------------------------------------------------------------
#psi4
#
memory 32 gb

molecule  {
0 1
  O        0.0723890     1.0222580     0.5077940
  C       -0.7353166    -1.0458707     0.1357928
  C        0.6883760    -1.0936210     0.0623120
  C       -1.0714850     0.2632460     0.3951280
  C        1.1400710     0.1773790     0.3033030
  C       -2.3562760     1.0018630     0.5198060
  C        2.4849120     0.8120840     0.3409220
  C       -1.6830070    -2.1819480    -0.0885940
  C        1.5125100    -2.3214750    -0.1762480
  C       -2.8486430     1.5569180    -0.8246800
  C        2.8130920     1.5744450    -0.9510270
  H        3.2336060     0.0303330     0.5193890
  H        2.5305840     1.4962520     1.1974230
  H       -2.2159340     1.8224920     1.2344330
  H       -3.1130010     0.3316860     0.9491040
  H       -1.4156333    -3.0337761     0.5477227
  H       -2.7119990    -1.8902510     0.1457090
  H       -1.6650160    -2.5262940    -1.1310850
  H        2.5139960    -2.0634500    -0.5387900
  H        1.6307130    -2.9166200     0.7385330
  H        1.0429930    -2.9642660    -0.9286680
  H        2.8128660     0.8932150    -1.8063400
  H        3.7971100     2.0487280    -0.8855010
  H        2.0638530     2.3513280    -1.1313670
  H       -2.0994070     2.2298930    -1.2537260
  H       -3.7828960     2.1123340    -0.7007770
  H       -3.0218850     0.7415120    -1.5334270
units angstrom
no_reorient  #important for SAPT in psi4, default
symmetry c1  #important for SAPT in psi4, default
}

set PROPERTIES_ORIGIN ["COM"]
properties('MP2/aug-cc-pvtz', properties = ['dipole'])
--------------------------------------------------------------------------

    Molecular point group: c1
  Charge       = 0
  Multiplicity = 1
  Basis Set: AUG-CC-PVTZ
    Blend: AUG-CC-PVTZ
  Basis Set: (AUG-CC-PVTZ AUX)
    Blend: AUG-CC-PVTZ-JKFIT

    Orbital Energies [Eh]
    ---------------------

    Doubly Occupied:

       1A    -20.599122     2A    -11.270262     3A    -11.269360
       4A    -11.230318     5A    -11.229979     6A    -11.223164
       7A    -11.222826     8A    -11.216137     9A    -11.215559
      10A    -11.215126    11A    -11.214619    12A     -1.429821
      13A     -1.099303    14A     -1.078642    15A     -1.036343
      16A     -0.989916    17A     -0.932261    18A     -0.927379
      19A     -0.870281    20A     -0.815166    21A     -0.748827
      22A     -0.722868    23A     -0.657937    24A     -0.627266
      25A     -0.610980    26A     -0.609905    27A     -0.586781
      28A     -0.583787    29A     -0.567979    30A     -0.555849
      31A     -0.550126    32A     -0.533753    33A     -0.527494
      34A     -0.524083    35A     -0.520698    36A     -0.505361
      37A     -0.495365    38A     -0.492188    39A     -0.483848
      40A     -0.468043    41A     -0.361097    42A     -0.277709

  @DF-RHF Final Energy:  -463.01132056228539

   => Energetics <=

    Nuclear Repulsion Energy =            629.5636626740156316
    One-Electron Energy =               -1876.9549082994449236
    Two-Electron Energy =                 784.3799250631439008
    Total Energy =                       -463.0113205622853911
  Basis Set: (AUG-CC-PVTZ AUX)
    Blend: AUG-CC-PVTZ-RI
    Molecular point group: c1

    Geometry (in Angstrom), charge = 0, multiplicity = 1:

       Center              X                  Y                   Z               Mass
    ------------   -----------------  -----------------  -----------------  -----------------
         O            0.071827102135     1.022785032417     0.507074082535    15.994914619570
         C           -0.735878497865    -1.045343667583     0.135072882535    12.000000000000
         C            0.687814102135    -1.093093967583     0.061592082535    12.000000000000
         C           -1.072046897865     0.263773032417     0.394408082535    12.000000000000
         C            1.139509102135     0.177906032417     0.302583082535    12.000000000000
         C           -2.356837897865     1.002390032417     0.519086082535    12.000000000000
         C            2.484350102135     0.812611032417     0.340202082535    12.000000000000
         C           -1.683568897865    -2.181420967583    -0.089313917465    12.000000000000
         C            1.511948102135    -2.320947967583    -0.176967917465    12.000000000000
         C           -2.849204897865     1.557445032417    -0.825399917465    12.000000000000
         C            2.812530102135     1.574972032417    -0.951746917465    12.000000000000
         H            3.233044102135     0.030860032417     0.518669082535     1.007825032230
         H            2.530022102135     1.496779032417     1.196703082535     1.007825032230
         H           -2.216495897865     1.823019032417     1.233713082535     1.007825032230
         H           -3.113562897865     0.332213032417     0.948384082535     1.007825032230
         H           -1.416195197865    -3.033249067583     0.547002782535     1.007825032230
         H           -2.712560897865    -1.889723967583     0.144989082535     1.007825032230
         H           -1.665577897865    -2.525766967583    -1.131804917465     1.007825032230
         H            2.513434102135    -2.062922967583    -0.539509917465     1.007825032230
         H            1.630151102135    -2.916092967583     0.737813082535     1.007825032230
         H            1.042431102135    -2.963738967583    -0.929387917465     1.007825032230
         H            2.812304102135     0.893742032417    -1.807059917465     1.007825032230
         H            3.796548102135     2.049255032417    -0.886220917465     1.007825032230
         H            2.063291102135     2.351855032417    -1.132086917465     1.007825032230
         H           -2.099968897865     2.230420032417    -1.254445917465     1.007825032230
         H           -3.783457897865     2.112861032417    -0.701496917465     1.007825032230
         H           -3.022446897865     0.742039032417    -1.534146917465     1.007825032230

  Basis Set: AUG-CC-PVTZ
    Blend: AUG-CC-PVTZ
  Basis Set: (AUG-CC-PVTZ AUX)
    Blend: AUG-CC-PVTZ-JKFIT
	 Reference Energy          =    -463.0113205622853911 [Eh]
	 Singles Energy            =      -0.0000000000000000 [Eh]
	 Same-Spin Energy          =      -0.4973385704135913 [Eh]
	 Opposite-Spin Energy      =      -1.6674333786409972 [Eh]
	 Correlation Energy        =      -2.1647719490545887 [Eh]
	 Total Energy              =    -465.1760925113399594 [Eh]

	 ================> DF-SCS-MP2 Energies <==================
	-----------------------------------------------------------
	 SCS Same-Spin Scale       =       0.3333333333333333 [-]
	 SCS Opposite-Spin Scale   =       1.2000000000000000 [-]
	 SCS Same-Spin Energy      =      -0.1657795234711971 [Eh]
	 SCS Opposite-Spin Energy  =      -2.0009200543691965 [Eh]
	 SCS Correlation Energy    =      -2.1666995778403937 [Eh]
	 SCS Total Energy          =    -465.1780201401257955 [Eh]
	-----------------------------------------------------------

  Dipole Moment: [D]
     X:    -0.0321      Y:    -0.6459      Z:    -0.2212     Total:     0.6835

*** Psi4 exiting successfully. Buy a developer a beer!
