                               Psi4 1.3.2 release

  ==> Input File <==

--------------------------------------------------------------------------
#psi4
#
memory 32 gb

molecule  {
0 1
  O        0.0723890     1.0222580     0.5077940
  C       -0.7423504    -1.0510210     0.1245059
  C        0.6883760    -1.0936210     0.0623120
  C       -1.0714850     0.2632460     0.3951280
  C        1.1513343     0.1735473     0.3021039
  C       -2.3562760     1.0018630     0.5198060
  C        2.4849120     0.8120840     0.3409220
  C       -1.6830070    -2.1819480    -0.0885940
  C        1.5125100    -2.3214750    -0.1762480
  C       -2.8486430     1.5569180    -0.8246800
  C        2.8130920     1.5744450    -0.9510270
  H        3.2336060     0.0303330     0.5193890
  H        2.5305840     1.4962520     1.1974230
  H       -2.2159340     1.8224920     1.2344330
  H       -3.1130010     0.3316860     0.9491040
  H       -1.4229750    -3.0387300     0.5441040
  H       -2.7119990    -1.8902510     0.1457090
  H       -1.6650160    -2.5262940    -1.1310850
  H        2.5139960    -2.0634500    -0.5387900
  H        1.6307130    -2.9166200     0.7385330
  H        1.0429930    -2.9642660    -0.9286680
  H        2.8128660     0.8932150    -1.8063400
  H        3.7971100     2.0487280    -0.8855010
  H        2.0638530     2.3513280    -1.1313670
  H       -2.0994070     2.2298930    -1.2537260
  H       -3.7828960     2.1123340    -0.7007770
  H       -3.0218850     0.7415120    -1.5334270
units angstrom
no_reorient  #important for SAPT in psi4, default
symmetry c1  #important for SAPT in psi4, default
}

set PROPERTIES_ORIGIN ["COM"]
properties('MP2/aug-cc-pvtz', properties = ['dipole'])
--------------------------------------------------------------------------

    Molecular point group: c1
  Charge       = 0
  Multiplicity = 1
  Basis Set: AUG-CC-PVTZ
    Blend: AUG-CC-PVTZ
  Basis Set: (AUG-CC-PVTZ AUX)
    Blend: AUG-CC-PVTZ-JKFIT

    Orbital Energies [Eh]
    ---------------------

    Doubly Occupied:

       1A    -20.597810     2A    -11.271881     3A    -11.269184
       4A    -11.230247     5A    -11.229860     6A    -11.222824
       7A    -11.222586     8A    -11.217353     9A    -11.215985
      10A    -11.215624    11A    -11.214719    12A     -1.425079
      13A     -1.098577    14A     -1.079286    15A     -1.036885
      16A     -0.991049    17A     -0.931507    18A     -0.926989
      19A     -0.870858    20A     -0.815106    21A     -0.747043
      22A     -0.722147    23A     -0.657153    24A     -0.625582
      25A     -0.611673    26A     -0.610169    27A     -0.586995
      28A     -0.583860    29A     -0.567777    30A     -0.556152
      31A     -0.550587    32A     -0.533621    33A     -0.527833
      34A     -0.523219    35A     -0.521440    36A     -0.505184
      37A     -0.495442    38A     -0.493355    39A     -0.483547
      40A     -0.467627    41A     -0.359800    42A     -0.277533

  @DF-RHF Final Energy:  -463.01027424964531

   => Energetics <=

    Nuclear Repulsion Energy =            629.2891132228155584
    One-Electron Energy =               -1876.4164800339976864
    Two-Electron Energy =                 784.1170925615368787
    Total Energy =                       -463.0102742496452493
  Basis Set: (AUG-CC-PVTZ AUX)
    Blend: AUG-CC-PVTZ-RI
    Molecular point group: c1

    Geometry (in Angstrom), charge = 0, multiplicity = 1:

       Center              X                  Y                   Z               Mass
    ------------   -----------------  -----------------  -----------------  -----------------
         O            0.071542098072     1.023526398307     0.508083015616    15.994914619570
         C           -0.743197301928    -1.049752601693     0.124794915616    12.000000000000
         C            0.687529098072    -1.092352601693     0.062601015616    12.000000000000
         C           -1.072331901928     0.264514398307     0.395417015616    12.000000000000
         C            1.150487398072     0.174815698307     0.302392915616    12.000000000000
         C           -2.357122901928     1.003131398307     0.520095015616    12.000000000000
         C            2.484065098072     0.813352398307     0.341211015616    12.000000000000
         C           -1.683853901928    -2.180679601693    -0.088304984384    12.000000000000
         C            1.511663098072    -2.320206601693    -0.175958984384    12.000000000000
         C           -2.849489901928     1.558186398307    -0.824390984384    12.000000000000
         C            2.812245098072     1.575713398307    -0.950737984384    12.000000000000
         H            3.232759098072     0.031601398307     0.519678015616     1.007825032230
         H            2.529737098072     1.497520398307     1.197712015616     1.007825032230
         H           -2.216780901928     1.823760398307     1.234722015616     1.007825032230
         H           -3.113847901928     0.332954398307     0.949393015616     1.007825032230
         H           -1.423821901928    -3.037461601693     0.544393015616     1.007825032230
         H           -2.712845901928    -1.888982601693     0.145998015616     1.007825032230
         H           -1.665862901928    -2.525025601693    -1.130795984384     1.007825032230
         H            2.513149098072    -2.062181601693    -0.538500984384     1.007825032230
         H            1.629866098072    -2.915351601693     0.738822015616     1.007825032230
         H            1.042146098072    -2.962997601693    -0.928378984384     1.007825032230
         H            2.812019098072     0.894483398307    -1.806050984384     1.007825032230
         H            3.796263098072     2.049996398307    -0.885211984384     1.007825032230
         H            2.063006098072     2.352596398307    -1.131077984384     1.007825032230
         H           -2.100253901928     2.231161398307    -1.253436984384     1.007825032230
         H           -3.783742901928     2.113602398307    -0.700487984384     1.007825032230
         H           -3.022731901928     0.742780398307    -1.533137984384     1.007825032230

  Basis Set: AUG-CC-PVTZ
    Blend: AUG-CC-PVTZ
  Basis Set: (AUG-CC-PVTZ AUX)
    Blend: AUG-CC-PVTZ-JKFIT
	 Reference Energy          =    -463.0102742496453061 [Eh]
	 Singles Energy            =      -0.0000000000000000 [Eh]
	 Same-Spin Energy          =      -0.4975515797784699 [Eh]
	 Opposite-Spin Energy      =      -1.6679160384512590 [Eh]
	 Correlation Energy        =      -2.1654676182297288 [Eh]
	 Total Energy              =    -465.1757418678750469 [Eh]

	 ================> DF-SCS-MP2 Energies <==================
	-----------------------------------------------------------
	 SCS Same-Spin Scale       =       0.3333333333333333 [-]
	 SCS Opposite-Spin Scale   =       1.2000000000000000 [-]
	 SCS Same-Spin Energy      =      -0.1658505265928233 [Eh]
	 SCS Opposite-Spin Energy  =      -2.0014992461415106 [Eh]
	 SCS Correlation Energy    =      -2.1673497727343340 [Eh]
	 SCS Total Energy          =    -465.1776240223796322 [Eh]
	-----------------------------------------------------------

  Dipole Moment: [D]
     X:    -0.0184      Y:    -0.6579      Z:    -0.2196     Total:     0.6939

*** Psi4 exiting successfully. Buy a developer a beer!
