                               Psi4 1.3.2 release

  ==> Input File <==

--------------------------------------------------------------------------
#psi4
#
memory 32 gb

molecule  {
0 1
  O        0.0723890     1.0222580     0.5077940
  C       -0.7418240    -1.0387750     0.1269710
  C        0.6883760    -1.0936210     0.0623120
  C       -1.0714850     0.2632460     0.3951280
  C        1.1440213     0.1681214     0.3272352
  C       -2.3562760     1.0018630     0.5198060
  C        2.4849120     0.8120840     0.3409220
  C       -1.6830070    -2.1819480    -0.0885940
  C        1.5125100    -2.3214750    -0.1762480
  C       -2.8486430     1.5569180    -0.8246800
  C        2.8368990     1.5811824    -0.9407259
  H        3.2336060     0.0303330     0.5193890
  H        2.5305840     1.4962520     1.1974230
  H       -2.2159340     1.8224920     1.2344330
  H       -3.1130010     0.3316860     0.9491040
  H       -1.4229750    -3.0387300     0.5441040
  H       -2.7119990    -1.8902510     0.1457090
  H       -1.6650160    -2.5262940    -1.1310850
  H        2.5139960    -2.0634500    -0.5387900
  H        1.6307130    -2.9166200     0.7385330
  H        1.0429930    -2.9642660    -0.9286680
  H        2.8128660     0.8932150    -1.8063400
  H        3.7971100     2.0487280    -0.8855010
  H        2.0638530     2.3513280    -1.1313670
  H       -2.0994070     2.2298930    -1.2537260
  H       -3.7828960     2.1123340    -0.7007770
  H       -3.0218850     0.7415120    -1.5334270
units angstrom
no_reorient  #important for SAPT in psi4, default
symmetry c1  #important for SAPT in psi4, default
}

set PROPERTIES_ORIGIN ["COM"]
properties('MP2/aug-cc-pvtz', properties = ['dipole'])
--------------------------------------------------------------------------

    Molecular point group: c1
  Charge       = 0
  Multiplicity = 1
  Basis Set: AUG-CC-PVTZ
    Blend: AUG-CC-PVTZ
  Basis Set: (AUG-CC-PVTZ AUX)
    Blend: AUG-CC-PVTZ-JKFIT

    Orbital Energies [Eh]
    ---------------------

    Doubly Occupied:

       1A    -20.597846     2A    -11.270252     3A    -11.269377
       4A    -11.230279     5A    -11.229803     6A    -11.223302
       7A    -11.223057     8A    -11.216794     9A    -11.215641
      10A    -11.215296    11A    -11.214916    12A     -1.427619
      13A     -1.099159    14A     -1.078566    15A     -1.035959
      16A     -0.990467    17A     -0.932582    18A     -0.927770
      19A     -0.870712    20A     -0.815628    21A     -0.748566
      22A     -0.721763    23A     -0.657427    24A     -0.626730
      25A     -0.609916    26A     -0.609599    27A     -0.587725
      28A     -0.582803    29A     -0.567776    30A     -0.556015
      31A     -0.549521    32A     -0.537911    33A     -0.527830
      34A     -0.523454    35A     -0.521075    36A     -0.503898
      37A     -0.494535    38A     -0.492595    39A     -0.481473
      40A     -0.467929    41A     -0.361128    42A     -0.279801

  @DF-RHF Final Energy:  -463.01077479351193

   => Energetics <=

    Nuclear Repulsion Energy =            629.2491862444570643
    One-Electron Energy =               -1876.3309365191457800
    Two-Electron Energy =                 784.0709754811766743
    Total Energy =                       -463.0107747935119278
  Basis Set: (AUG-CC-PVTZ AUX)
    Blend: AUG-CC-PVTZ-RI
    Molecular point group: c1

    Geometry (in Angstrom), charge = 0, multiplicity = 1:

       Center              X                  Y                   Z               Mass
    ------------   -----------------  -----------------  -----------------  -----------------
         O            0.070199443290     1.022456914499     0.505093470153    15.994914619570
         C           -0.744013556710    -1.038576085501     0.124270470153    12.000000000000
         C            0.686186443290    -1.093422085501     0.059611470153    12.000000000000
         C           -1.073674556710     0.263444914499     0.392427470153    12.000000000000
         C            1.141831743290     0.168320314499     0.324534670153    12.000000000000
         C           -2.358465556710     1.002061914499     0.517105470153    12.000000000000
         C            2.482722443290     0.812282914499     0.338221470153    12.000000000000
         C           -1.685196556710    -2.181749085501    -0.091294529847    12.000000000000
         C            1.510320443290    -2.321276085501    -0.178948529847    12.000000000000
         C           -2.850832556710     1.557116914499    -0.827380529847    12.000000000000
         C            2.834709443290     1.581381314499    -0.943426429847    12.000000000000
         H            3.231416443290     0.030531914499     0.516688470153     1.007825032230
         H            2.528394443290     1.496450914499     1.194722470153     1.007825032230
         H           -2.218123556710     1.822690914499     1.231732470153     1.007825032230
         H           -3.115190556710     0.331884914499     0.946403470153     1.007825032230
         H           -1.425164556710    -3.038531085501     0.541403470153     1.007825032230
         H           -2.714188556710    -1.890052085501     0.143008470153     1.007825032230
         H           -1.667205556710    -2.526095085501    -1.133785529847     1.007825032230
         H            2.511806443290    -2.063251085501    -0.541490529847     1.007825032230
         H            1.628523443290    -2.916421085501     0.735832470153     1.007825032230
         H            1.040803443290    -2.964067085501    -0.931368529847     1.007825032230
         H            2.810676443290     0.893413914499    -1.809040529847     1.007825032230
         H            3.794920443290     2.048926914499    -0.888201529847     1.007825032230
         H            2.061663443290     2.351526914499    -1.134067529847     1.007825032230
         H           -2.101596556710     2.230091914499    -1.256426529847     1.007825032230
         H           -3.785085556710     2.112532914499    -0.703477529847     1.007825032230
         H           -3.024074556710     0.741710914499    -1.536127529847     1.007825032230

  Basis Set: AUG-CC-PVTZ
    Blend: AUG-CC-PVTZ
  Basis Set: (AUG-CC-PVTZ AUX)
    Blend: AUG-CC-PVTZ-JKFIT
	 Reference Energy          =    -463.0107747935119278 [Eh]
	 Singles Energy            =      -0.0000000000000000 [Eh]
	 Same-Spin Energy          =      -0.4970829937035955 [Eh]
	 Opposite-Spin Energy      =      -1.6671978688360247 [Eh]
	 Correlation Energy        =      -2.1642808625396204 [Eh]
	 Total Energy              =    -465.1750556560515406 [Eh]

	 ================> DF-SCS-MP2 Energies <==================
	-----------------------------------------------------------
	 SCS Same-Spin Scale       =       0.3333333333333333 [-]
	 SCS Opposite-Spin Scale   =       1.2000000000000000 [-]
	 SCS Same-Spin Energy      =      -0.1656943312345318 [Eh]
	 SCS Opposite-Spin Energy  =      -2.0006374426032294 [Eh]
	 SCS Correlation Energy    =      -2.1663317738377614 [Eh]
	 SCS Total Energy          =    -465.1771065673497105 [Eh]
	-----------------------------------------------------------

  Dipole Moment: [D]
     X:    -0.0345      Y:    -0.6625      Z:    -0.2284     Total:     0.7016

*** Psi4 exiting successfully. Buy a developer a beer!
