                               Psi4 1.3.2 release

  ==> Input File <==

--------------------------------------------------------------------------
#psi4
#
memory 32 gb

molecule  {
0 1
  O        0.0723890     1.0222580     0.5077940
  C       -0.7418240    -1.0387750     0.1269710
  C        0.6883760    -1.0936210     0.0623120
  C       -1.0714850     0.2632460     0.3951280
  C        1.1306821     0.2063002     0.2316042
  C       -2.3562760     1.0018630     0.5198060
  C        2.4849120     0.8120840     0.3409220
  C       -1.6830070    -2.1819480    -0.0885940
  C        1.5125100    -2.3214750    -0.1762480
  C       -2.8486430     1.5569180    -0.8246800
  C        2.7411003     1.5528481    -0.9795570
  H        3.2336060     0.0303330     0.5193890
  H        2.5305840     1.4962520     1.1974230
  H       -2.2159340     1.8224920     1.2344330
  H       -3.1130010     0.3316860     0.9491040
  H       -1.4229750    -3.0387300     0.5441040
  H       -2.7119990    -1.8902510     0.1457090
  H       -1.6650160    -2.5262940    -1.1310850
  H        2.5139960    -2.0634500    -0.5387900
  H        1.6307130    -2.9166200     0.7385330
  H        1.0429930    -2.9642660    -0.9286680
  H        2.8128660     0.8932150    -1.8063400
  H        3.7971100     2.0487280    -0.8855010
  H        2.0638530     2.3513280    -1.1313670
  H       -2.0994070     2.2298930    -1.2537260
  H       -3.7828960     2.1123340    -0.7007770
  H       -3.0218850     0.7415120    -1.5334270
units angstrom
no_reorient  #important for SAPT in psi4, default
symmetry c1  #important for SAPT in psi4, default
}

set PROPERTIES_ORIGIN ["COM"]
properties('MP2/aug-cc-pvtz', properties = ['dipole'])
--------------------------------------------------------------------------

    Molecular point group: c1
  Charge       = 0
  Multiplicity = 1
  Basis Set: AUG-CC-PVTZ
    Blend: AUG-CC-PVTZ
  Basis Set: (AUG-CC-PVTZ AUX)
    Blend: AUG-CC-PVTZ-JKFIT

    Orbital Energies [Eh]
    ---------------------

    Doubly Occupied:

       1A    -20.600780     2A    -11.270329     3A    -11.268678
       4A    -11.230849     5A    -11.230030     6A    -11.223173
       7A    -11.222733     8A    -11.216144     9A    -11.215390
      10A    -11.215317    11A    -11.215146    12A     -1.434718
      13A     -1.097686    14A     -1.080256    15A     -1.037435
      16A     -0.989265    17A     -0.931820    18A     -0.927097
      19A     -0.869190    20A     -0.815975    21A     -0.751038
      22A     -0.722057    23A     -0.659478    24A     -0.629433
      25A     -0.617574    26A     -0.609624    27A     -0.588688
      28A     -0.583385    29A     -0.568015    30A     -0.555483
      31A     -0.550760    32A     -0.529436    33A     -0.525704
      34A     -0.523564    35A     -0.522382    36A     -0.509409
      37A     -0.503606    38A     -0.487403    39A     -0.481791
      40A     -0.460818    41A     -0.359269    42A     -0.276368

  @DF-RHF Final Energy:  -463.00218401107645

   => Energetics <=

    Nuclear Repulsion Energy =            630.4652414055971121
    One-Electron Energy =               -1878.7202543812632030
    Two-Electron Energy =                 785.2528289645895256
    Total Energy =                       -463.0021840110764515
  Basis Set: (AUG-CC-PVTZ AUX)
    Blend: AUG-CC-PVTZ-RI
    Molecular point group: c1

    Geometry (in Angstrom), charge = 0, multiplicity = 1:

       Center              X                  Y                   Z               Mass
    ------------   -----------------  -----------------  -----------------  -----------------
         O            0.078808789916     1.021680330811     0.515700517082    15.994914619570
         C           -0.735404210084    -1.039352669189     0.134877517082    12.000000000000
         C            0.694795789916    -1.094198669189     0.070218517082    12.000000000000
         C           -1.065065210084     0.262668330811     0.403034517082    12.000000000000
         C            1.137101889916     0.205722530811     0.239510717082    12.000000000000
         C           -2.349856210084     1.001285330811     0.527712517082    12.000000000000
         C            2.491331789916     0.811506330811     0.348828517082    12.000000000000
         C           -1.676587210084    -2.182525669189    -0.080687482918    12.000000000000
         C            1.518929789916    -2.322052669189    -0.168341482918    12.000000000000
         C           -2.842223210084     1.556340330811    -0.816773482918    12.000000000000
         C            2.747520089916     1.552270430811    -0.971650482918    12.000000000000
         H            3.240025789916     0.029755330811     0.527295517082     1.007825032230
         H            2.537003789916     1.495674330811     1.205329517082     1.007825032230
         H           -2.209514210084     1.821914330811     1.242339517082     1.007825032230
         H           -3.106581210084     0.331108330811     0.957010517082     1.007825032230
         H           -1.416555210084    -3.039307669189     0.552010517082     1.007825032230
         H           -2.705579210084    -1.890828669189     0.153615517082     1.007825032230
         H           -1.658596210084    -2.526871669189    -1.123178482918     1.007825032230
         H            2.520415789916    -2.064027669189    -0.530883482918     1.007825032230
         H            1.637132789916    -2.917197669189     0.746439517082     1.007825032230
         H            1.049412789916    -2.964843669189    -0.920761482918     1.007825032230
         H            2.819285789916     0.892637330811    -1.798433482918     1.007825032230
         H            3.803529789916     2.048150330811    -0.877594482918     1.007825032230
         H            2.070272789916     2.350750330811    -1.123460482918     1.007825032230
         H           -2.092987210084     2.229315330811    -1.245819482918     1.007825032230
         H           -3.776476210084     2.111756330811    -0.692870482918     1.007825032230
         H           -3.015465210084     0.740934330811    -1.525520482918     1.007825032230

  Basis Set: AUG-CC-PVTZ
    Blend: AUG-CC-PVTZ
  Basis Set: (AUG-CC-PVTZ AUX)
    Blend: AUG-CC-PVTZ-JKFIT
	 Reference Energy          =    -463.0021840110764515 [Eh]
	 Singles Energy            =      -0.0000000000000000 [Eh]
	 Same-Spin Energy          =      -0.4976394953231458 [Eh]
	 Opposite-Spin Energy      =      -1.6680427689156758 [Eh]
	 Correlation Energy        =      -2.1656822642388214 [Eh]
	 Total Energy              =    -465.1678662753152480 [Eh]

	 ================> DF-SCS-MP2 Energies <==================
	-----------------------------------------------------------
	 SCS Same-Spin Scale       =       0.3333333333333333 [-]
	 SCS Opposite-Spin Scale   =       1.2000000000000000 [-]
	 SCS Same-Spin Energy      =      -0.1658798317743819 [Eh]
	 SCS Opposite-Spin Energy  =      -2.0016513226988111 [Eh]
	 SCS Correlation Energy    =      -2.1675311544731928 [Eh]
	 SCS Total Energy          =    -465.1697151655496327 [Eh]
	-----------------------------------------------------------

  Dipole Moment: [D]
     X:    -0.0714      Y:    -0.6589      Z:    -0.1713     Total:     0.6846

*** Psi4 exiting successfully. Buy a developer a beer!
