                               Psi4 1.3.2 release

  ==> Input File <==

--------------------------------------------------------------------------
#psi4
#
memory 32 gb

molecule  {
0 1
  O        0.0723890     1.0222580     0.5077940
  C       -0.7418240    -1.0387750     0.1269710
  C        0.6883760    -1.0936210     0.0623120
  C       -1.0728483     0.2540772     0.4462044
  C        1.1400710     0.1773790     0.3033030
  C       -2.3562760     1.0018630     0.5198060
  C        2.4849120     0.8120840     0.3409220
  C       -1.6830070    -2.1819480    -0.0885940
  C        1.5125100    -2.3214750    -0.1762480
  C       -2.8913388     1.5773608    -0.7995363
  C        2.8130920     1.5744450    -0.9510270
  H        3.2336060     0.0303330     0.5193890
  H        2.5305840     1.4962520     1.1974230
  H       -2.2159340     1.8224920     1.2344330
  H       -3.1130010     0.3316860     0.9491040
  H       -1.4229750    -3.0387300     0.5441040
  H       -2.7119990    -1.8902510     0.1457090
  H       -1.6650160    -2.5262940    -1.1310850
  H        2.5139960    -2.0634500    -0.5387900
  H        1.6307130    -2.9166200     0.7385330
  H        1.0429930    -2.9642660    -0.9286680
  H        2.8128660     0.8932150    -1.8063400
  H        3.7971100     2.0487280    -0.8855010
  H        2.0638530     2.3513280    -1.1313670
  H       -2.0994070     2.2298930    -1.2537260
  H       -3.7828960     2.1123340    -0.7007770
  H       -3.0218850     0.7415120    -1.5334270
units angstrom
no_reorient  #important for SAPT in psi4, default
symmetry c1  #important for SAPT in psi4, default
}

set PROPERTIES_ORIGIN ["COM"]
properties('MP2/aug-cc-pvtz', properties = ['dipole'])
--------------------------------------------------------------------------

    Molecular point group: c1
  Charge       = 0
  Multiplicity = 1
  Basis Set: AUG-CC-PVTZ
    Blend: AUG-CC-PVTZ
  Basis Set: (AUG-CC-PVTZ AUX)
    Blend: AUG-CC-PVTZ-JKFIT

    Orbital Energies [Eh]
    ---------------------

    Doubly Occupied:

       1A    -20.598412     2A    -11.270771     3A    -11.270106
       4A    -11.230447     5A    -11.229688     6A    -11.223509
       7A    -11.223229     8A    -11.217605     9A    -11.216158
      10A    -11.216099    11A    -11.215026    12A     -1.428629
      13A     -1.098952    14A     -1.078374    15A     -1.035814
      16A     -0.990540    17A     -0.932515    18A     -0.928657
      19A     -0.871416    20A     -0.815507    21A     -0.748863
      22A     -0.721735    23A     -0.657450    24A     -0.626970
      25A     -0.611647    26A     -0.607657    27A     -0.588581
      28A     -0.582551    29A     -0.568135    30A     -0.556131
      31A     -0.549332    32A     -0.542300    33A     -0.529015
      34A     -0.523875    35A     -0.520522    36A     -0.503816
      37A     -0.494084    38A     -0.490819    39A     -0.478397
      40A     -0.467120    41A     -0.360706    42A     -0.279944

  @DF-RHF Final Energy:  -463.00723293606660

   => Energetics <=

    Nuclear Repulsion Energy =            628.9213059653378650
    One-Electron Energy =               -1875.6548757974239834
    Two-Electron Energy =                 783.7263368960195749
    Total Energy =                       -463.0072329360666572
  Basis Set: (AUG-CC-PVTZ AUX)
    Blend: AUG-CC-PVTZ-RI
    Molecular point group: c1

    Geometry (in Angstrom), charge = 0, multiplicity = 1:

       Center              X                  Y                   Z               Mass
    ------------   -----------------  -----------------  -----------------  -----------------
         O            0.075864682231     1.021368758604     0.501781340133    15.994914619570
         C           -0.738348317769    -1.039664241396     0.120958340133    12.000000000000
         C            0.691851682231    -1.094510241396     0.056299340133    12.000000000000
         C           -1.069372617769     0.253187958604     0.440191740133    12.000000000000
         C            1.143546682231     0.176489758604     0.297290340133    12.000000000000
         C           -2.352800317769     1.000973758604     0.513793340133    12.000000000000
         C            2.488387682231     0.811194758604     0.334909340133    12.000000000000
         C           -1.679531317769    -2.182837241396    -0.094606659867    12.000000000000
         C            1.515985682231    -2.322364241396    -0.182260659867    12.000000000000
         C           -2.887863117769     1.576471558604    -0.805548959867    12.000000000000
         C            2.816567682231     1.573555758604    -0.957039659867    12.000000000000
         H            3.237081682231     0.029443758604     0.513376340133     1.007825032230
         H            2.534059682231     1.495362758604     1.191410340133     1.007825032230
         H           -2.212458317769     1.821602758604     1.228420340133     1.007825032230
         H           -3.109525317769     0.330796758604     0.943091340133     1.007825032230
         H           -1.419499317769    -3.039619241396     0.538091340133     1.007825032230
         H           -2.708523317769    -1.891140241396     0.139696340133     1.007825032230
         H           -1.661540317769    -2.527183241396    -1.137097659867     1.007825032230
         H            2.517471682231    -2.064339241396    -0.544802659867     1.007825032230
         H            1.634188682231    -2.917509241396     0.732520340133     1.007825032230
         H            1.046468682231    -2.965155241396    -0.934680659867     1.007825032230
         H            2.816341682231     0.892325758604    -1.812352659867     1.007825032230
         H            3.800585682231     2.047838758604    -0.891513659867     1.007825032230
         H            2.067328682231     2.350438758604    -1.137379659867     1.007825032230
         H           -2.095931317769     2.229003758604    -1.259738659867     1.007825032230
         H           -3.779420317769     2.111444758604    -0.706789659867     1.007825032230
         H           -3.018409317769     0.740622758604    -1.539439659867     1.007825032230

  Basis Set: AUG-CC-PVTZ
    Blend: AUG-CC-PVTZ
  Basis Set: (AUG-CC-PVTZ AUX)
    Blend: AUG-CC-PVTZ-JKFIT
	 Reference Energy          =    -463.0072329360666004 [Eh]
	 Singles Energy            =      -0.0000000000000000 [Eh]
	 Same-Spin Energy          =      -0.4972509719067241 [Eh]
	 Opposite-Spin Energy      =      -1.6674942924512064 [Eh]
	 Correlation Energy        =      -2.1647452643579306 [Eh]
	 Total Energy              =    -465.1719782004245189 [Eh]

	 ================> DF-SCS-MP2 Energies <==================
	-----------------------------------------------------------
	 SCS Same-Spin Scale       =       0.3333333333333333 [-]
	 SCS Opposite-Spin Scale   =       1.2000000000000000 [-]
	 SCS Same-Spin Energy      =      -0.1657503239689080 [Eh]
	 SCS Opposite-Spin Energy  =      -2.0009931509414476 [Eh]
	 SCS Correlation Energy    =      -2.1667434749103558 [Eh]
	 SCS Total Energy          =    -465.1739764109769339 [Eh]
	-----------------------------------------------------------

  Dipole Moment: [D]
     X:    -0.0034      Y:    -0.6682      Z:    -0.2394     Total:     0.7098

*** Psi4 exiting successfully. Buy a developer a beer!
