                               Psi4 1.3.2 release

  ==> Input File <==

--------------------------------------------------------------------------
#psi4
#
memory 32 gb

molecule  {
0 1
  O        0.0723890     1.0222580     0.5077940
  C       -0.7418240    -1.0387750     0.1269710
  C        0.6883760    -1.0936210     0.0623120
  C       -1.0714850     0.2632460     0.3951280
  C        1.1400710     0.1773790     0.3033030
  C       -2.3562760     1.0018630     0.5198060
  C        2.4849120     0.8120840     0.3409220
  C       -1.6830070    -2.1819480    -0.0885940
  C        1.5675289    -2.4034462    -0.1921742
  C       -2.8486430     1.5569180    -0.8246800
  C        2.8130920     1.5744450    -0.9510270
  H        3.2336060     0.0303330     0.5193890
  H        2.5305840     1.4962520     1.1974230
  H       -2.2159340     1.8224920     1.2344330
  H       -3.1130010     0.3316860     0.9491040
  H       -1.4229750    -3.0387300     0.5441040
  H       -2.7119990    -1.8902510     0.1457090
  H       -1.6650160    -2.5262940    -1.1310850
  H        2.5139960    -2.0634500    -0.5387900
  H        1.6307130    -2.9166200     0.7385330
  H        1.0429930    -2.9642660    -0.9286680
  H        2.8128660     0.8932150    -1.8063400
  H        3.7971100     2.0487280    -0.8855010
  H        2.0638530     2.3513280    -1.1313670
  H       -2.0994070     2.2298930    -1.2537260
  H       -3.7828960     2.1123340    -0.7007770
  H       -3.0218850     0.7415120    -1.5334270
units angstrom
no_reorient  #important for SAPT in psi4, default
symmetry c1  #important for SAPT in psi4, default
}

set PROPERTIES_ORIGIN ["COM"]
properties('MP2/aug-cc-pvtz', properties = ['dipole'])
--------------------------------------------------------------------------

    Molecular point group: c1
  Charge       = 0
  Multiplicity = 1
  Basis Set: AUG-CC-PVTZ
    Blend: AUG-CC-PVTZ
  Basis Set: (AUG-CC-PVTZ AUX)
    Blend: AUG-CC-PVTZ-JKFIT

    Orbital Energies [Eh]
    ---------------------

    Doubly Occupied:

       1A    -20.598053     2A    -11.269034     3A    -11.268698
       4A    -11.229778     5A    -11.229676     6A    -11.223067
       7A    -11.221578     8A    -11.219564     9A    -11.215192
      10A    -11.215184    11A    -11.214410    12A     -1.429049
      13A     -1.093187    14A     -1.077205    15A     -1.035489
      16A     -0.985773    17A     -0.935071    18A     -0.927758
      19A     -0.869764    20A     -0.815484    21A     -0.748376
      22A     -0.718730    23A     -0.655759    24A     -0.625593
      25A     -0.611370    26A     -0.607365    27A     -0.587487
      28A     -0.585111    29A     -0.577875    30A     -0.560359
      31A     -0.554601    32A     -0.536368    33A     -0.527424
      34A     -0.521714    35A     -0.507628    36A     -0.504395
      37A     -0.495530    38A     -0.489195    39A     -0.481933
      40A     -0.466906    41A     -0.362483    42A     -0.278885

  @DF-RHF Final Energy:  -463.00498741919353

   => Energetics <=

    Nuclear Repulsion Energy =            627.7118650622314817
    One-Electron Energy =               -1873.2775049497324744
    Two-Electron Energy =                 782.5606524683074667
    Total Energy =                       -463.0049874191935260
  Basis Set: (AUG-CC-PVTZ AUX)
    Blend: AUG-CC-PVTZ-RI
    Molecular point group: c1

    Geometry (in Angstrom), charge = 0, multiplicity = 1:

       Center              X                  Y                   Z               Mass
    ------------   -----------------  -----------------  -----------------  -----------------
         O            0.068048911128     1.028724409098     0.509050303866    15.994914619570
         C           -0.746164088872    -1.032308590902     0.128227303866    12.000000000000
         C            0.684035911128    -1.087154590902     0.063568303866    12.000000000000
         C           -1.075825088872     0.269712409098     0.396384303866    12.000000000000
         C            1.135730911128     0.183845409098     0.304559303866    12.000000000000
         C           -2.360616088872     1.008329409098     0.521062303866    12.000000000000
         C            2.480571911128     0.818550409098     0.342178303866    12.000000000000
         C           -1.687347088872    -2.175481590902    -0.087337696134    12.000000000000
         C            1.563188811128    -2.396979790902    -0.190917896134    12.000000000000
         C           -2.852983088872     1.563384409098    -0.823423696134    12.000000000000
         C            2.808751911128     1.580911409098    -0.949770696134    12.000000000000
         H            3.229265911128     0.036799409098     0.520645303866     1.007825032230
         H            2.526243911128     1.502718409098     1.198679303866     1.007825032230
         H           -2.220274088872     1.828958409098     1.235689303866     1.007825032230
         H           -3.117341088872     0.338152409098     0.950360303866     1.007825032230
         H           -1.427315088872    -3.032263590902     0.545360303866     1.007825032230
         H           -2.716339088872    -1.883784590902     0.146965303866     1.007825032230
         H           -1.669356088872    -2.519827590902    -1.129828696134     1.007825032230
         H            2.509655911128    -2.056983590902    -0.537533696134     1.007825032230
         H            1.626372911128    -2.910153590902     0.739789303866     1.007825032230
         H            1.038652911128    -2.957799590902    -0.927411696134     1.007825032230
         H            2.808525911128     0.899681409098    -1.805083696134     1.007825032230
         H            3.792769911128     2.055194409098    -0.884244696134     1.007825032230
         H            2.059512911128     2.357794409098    -1.130110696134     1.007825032230
         H           -2.103747088872     2.236359409098    -1.252469696134     1.007825032230
         H           -3.787236088872     2.118800409098    -0.699520696134     1.007825032230
         H           -3.026225088872     0.747978409098    -1.532170696134     1.007825032230

  Basis Set: AUG-CC-PVTZ
    Blend: AUG-CC-PVTZ
  Basis Set: (AUG-CC-PVTZ AUX)
    Blend: AUG-CC-PVTZ-JKFIT
	 Reference Energy          =    -463.0049874191935260 [Eh]
	 Singles Energy            =      -0.0000000000000000 [Eh]
	 Same-Spin Energy          =      -0.4965785323330653 [Eh]
	 Opposite-Spin Energy      =      -1.6669950709041035 [Eh]
	 Correlation Energy        =      -2.1635736032371686 [Eh]
	 Total Energy              =    -465.1685610224307084 [Eh]

	 ================> DF-SCS-MP2 Energies <==================
	-----------------------------------------------------------
	 SCS Same-Spin Scale       =       0.3333333333333333 [-]
	 SCS Opposite-Spin Scale   =       1.2000000000000000 [-]
	 SCS Same-Spin Energy      =      -0.1655261774443551 [Eh]
	 SCS Opposite-Spin Energy  =      -2.0003940850849240 [Eh]
	 SCS Correlation Energy    =      -2.1659202625292791 [Eh]
	 SCS Total Energy          =    -465.1709076817227810 [Eh]
	-----------------------------------------------------------

  Dipole Moment: [D]
     X:    -0.0224      Y:    -0.6738      Z:    -0.2137     Total:     0.7072

*** Psi4 exiting successfully. Buy a developer a beer!
