                               Psi4 1.4a3.dev225

  ==> Input File <==

--------------------------------------------------------------------------
#psi4
#
memory 32 gb

molecule  {
0 1
  O        0.0000040    -0.9323440    -0.5200900
  C       -0.7186120     1.1388030    -0.0293360
  C        0.7186000     1.1388090    -0.0293300
  C       -1.1092540    -0.1401520    -0.3350070
  C        1.1035594    -0.1214963    -0.3305395
  C       -2.4197690    -0.8327410    -0.4659430
  C        2.4197760    -0.8327180    -0.4659420
  C       -1.5881550     2.3237520     0.2504950
  C        1.5881310     2.3237650     0.2505070
  C       -2.6404590    -1.8837440     0.6266770
  C        2.6404800    -1.8837320     0.6266650
  H        3.2127060    -0.0780420    -0.4310990
  H        2.4812700    -1.3082390    -1.4528680
  H       -2.4812630    -1.3082740    -1.4528630
  H       -3.2127060    -0.0780720    -0.4311050
  H       -1.4004860     3.1330380    -0.4637010
  H       -2.6480190     2.0627510     0.1871390
  H       -1.4034730     2.7248980     1.2531230
  H        2.6479980     2.0627640     0.1871950
  H        1.4004870     3.1330370    -0.4637120
  H        1.4034130     2.7249310     1.2531200
  H        2.6185650    -1.4170920     1.6153140
  H        3.6057420    -2.3837880     0.5012060
  H        1.8526560    -2.6398250     0.5898280
  H       -1.8526300    -2.6398320     0.5898440
  H       -3.6057190    -2.3838080     0.5012310
  H       -2.6185400    -1.4170920     1.6153210
units angstrom
no_reorient  #important for SAPT in psi4, default
symmetry c1  #important for SAPT in psi4, default
}

set PROPERTIES_ORIGIN ["COM"]
properties('MP2/aug-cc-pvtz', properties = ['dipole'])
--------------------------------------------------------------------------

    Molecular point group: c1
  Charge       = 0
  Multiplicity = 1
  Basis Set: AUG-CC-PVTZ
    Blend: AUG-CC-PVTZ
  Basis Set: (AUG-CC-PVTZ AUX)
    Blend: AUG-CC-PVTZ-JKFIT

    Orbital Energies [Eh]
    ---------------------

    Doubly Occupied:

       1A    -20.596053     2A    -11.271199     3A    -11.269278
       4A    -11.230438     5A    -11.229931     6A    -11.223093
       7A    -11.222423     8A    -11.216907     9A    -11.215317
      10A    -11.213523    11A    -11.213181    12A     -1.428465
      13A     -1.100049    14A     -1.078093    15A     -1.035624
      16A     -0.991773    17A     -0.934545    18A     -0.925830
      19A     -0.869048    20A     -0.816367    21A     -0.751373
      22A     -0.719548    23A     -0.658746    24A     -0.627940
      25A     -0.611279    26A     -0.609820    27A     -0.585928
      28A     -0.580417    29A     -0.568636    30A     -0.555980
      31A     -0.552314    32A     -0.532555    33A     -0.530866
      34A     -0.525009    35A     -0.517787    36A     -0.505588
      37A     -0.492682    38A     -0.490671    39A     -0.483599
      40A     -0.467856    41A     -0.362570    42A     -0.282652

  @DF-RHF Final Energy:  -463.01438379967271

   => Energetics <=

    Nuclear Repulsion Energy =            630.0784131774950083
    One-Electron Energy =               -1877.9956822705125887
    Two-Electron Energy =                 784.9028852933449798
    Total Energy =                       -463.0143837996727143
  Basis Set: (AUG-CC-PVTZ AUX)
    Blend: AUG-CC-PVTZ-RI
    Molecular point group: c1

    Geometry (in Angstrom), charge = 0, multiplicity = 1:

       Center              X                  Y                   Z               Mass
    ------------   -----------------  -----------------  -----------------  -----------------
         O            0.000453422566    -0.932624086449    -0.496991740531    15.994914619570
         C           -0.718162577434     1.138522913551    -0.006237740531    12.000000000000
         C            0.719049422566     1.138528913551    -0.006231740531    12.000000000000
         C           -1.108804577434    -0.140432086449    -0.311908740531    12.000000000000
         C            1.104008822566    -0.121776386449    -0.307441240531    12.000000000000
         C           -2.419319577434    -0.833021086449    -0.442844740531    12.000000000000
         C            2.420225422566    -0.832998086449    -0.442843740531    12.000000000000
         C           -1.587705577434     2.323471913551     0.273593259469    12.000000000000
         C            1.588580422566     2.323484913551     0.273605259469    12.000000000000
         C           -2.640009577434    -1.884024086449     0.649775259469    12.000000000000
         C            2.640929422566    -1.884012086449     0.649763259469    12.000000000000
         H            3.213155422566    -0.078322086449    -0.408000740531     1.007825032230
         H            2.481719422566    -1.308519086449    -1.429769740531     1.007825032230
         H           -2.480813577434    -1.308554086449    -1.429764740531     1.007825032230
         H           -3.212256577434    -0.078352086449    -0.408006740531     1.007825032230
         H           -1.400036577434     3.132757913551    -0.440602740531     1.007825032230
         H           -2.647569577434     2.062470913551     0.210237259469     1.007825032230
         H           -1.403023577434     2.724617913551     1.276221259469     1.007825032230
         H            2.648447422566     2.062483913551     0.210293259469     1.007825032230
         H            1.400936422566     3.132756913551    -0.440613740531     1.007825032230
         H            1.403862422566     2.724650913551     1.276218259469     1.007825032230
         H            2.619014422566    -1.417372086449     1.638412259469     1.007825032230
         H            3.606191422566    -2.384068086449     0.524304259469     1.007825032230
         H            1.853105422566    -2.640105086449     0.612926259469     1.007825032230
         H           -1.852180577434    -2.640112086449     0.612942259469     1.007825032230
         H           -3.605269577434    -2.384088086449     0.524329259469     1.007825032230
         H           -2.618090577434    -1.417372086449     1.638419259469     1.007825032230

  Basis Set: AUG-CC-PVTZ
    Blend: AUG-CC-PVTZ
  Basis Set: (AUG-CC-PVTZ AUX)
    Blend: AUG-CC-PVTZ-JKFIT
	 Reference Energy          =    -463.0143837996727143 [Eh]
	 Singles Energy            =      -0.0000000000000000 [Eh]
	 Same-Spin Energy          =      -0.4964128281149204 [Eh]
	 Opposite-Spin Energy      =      -1.6662452448573088 [Eh]
	 Correlation Energy        =      -2.1626580729722291 [Eh]
	 Total Energy              =    -465.1770418726449634 [Eh]

	 ================> DF-SCS-MP2 Energies <==================
	-----------------------------------------------------------
	 SCS Same-Spin Scale       =       0.3333333333333333 [-]
	 SCS Opposite-Spin Scale   =       1.2000000000000000 [-]
	 SCS Same-Spin Energy      =      -0.1654709427049735 [Eh]
	 SCS Opposite-Spin Energy  =      -1.9994942938287705 [Eh]
	 SCS Correlation Energy    =      -2.1649652365337442 [Eh]
	 SCS Total Energy          =    -465.1793490362064745 [Eh]
	-----------------------------------------------------------

  Dipole Moment: [D]
     X:     0.0031      Y:     0.6737      Z:     0.2342     Total:     0.7132

*** Psi4 exiting successfully. Buy a developer a beer!
