                               Psi4 1.3.2 release

  ==> Input File <==

--------------------------------------------------------------------------
#psi4
#
memory 32 gb

molecule  {
0 1
  O        0.0723890     1.0222580     0.5077940
  C       -0.7650672    -1.0440886     0.1252620
  C        0.6883760    -1.0936210     0.0623120
  C       -1.0714850     0.2632460     0.3951280
  C        1.1400710     0.1773790     0.3033030
  C       -2.3691379     0.9798763     0.5148170
  C        2.4849120     0.8120840     0.3409220
  C       -1.6830070    -2.1819480    -0.0885940
  C        1.5125100    -2.3214750    -0.1762480
  C       -2.8486430     1.5569180    -0.8246800
  C        2.8130920     1.5744450    -0.9510270
  H        3.2336060     0.0303330     0.5193890
  H        2.5305840     1.4962520     1.1974230
  H       -2.2159340     1.8224920     1.2344330
  H       -3.1130010     0.3316860     0.9491040
  H       -1.4229750    -3.0387300     0.5441040
  H       -2.7119990    -1.8902510     0.1457090
  H       -1.6650160    -2.5262940    -1.1310850
  H        2.5139960    -2.0634500    -0.5387900
  H        1.6307130    -2.9166200     0.7385330
  H        1.0429930    -2.9642660    -0.9286680
  H        2.8128660     0.8932150    -1.8063400
  H        3.7971100     2.0487280    -0.8855010
  H        2.0638530     2.3513280    -1.1313670
  H       -2.0994070     2.2298930    -1.2537260
  H       -3.7828960     2.1123340    -0.7007770
  H       -3.0218850     0.7415120    -1.5334270
units angstrom
no_reorient  #important for SAPT in psi4, default
symmetry c1  #important for SAPT in psi4, default
}

set PROPERTIES_ORIGIN ["COM"]
properties('MP2/aug-cc-pvtz', properties = ['dipole'])
--------------------------------------------------------------------------

    Molecular point group: c1
  Charge       = 0
  Multiplicity = 1
  Basis Set: AUG-CC-PVTZ
    Blend: AUG-CC-PVTZ
  Basis Set: (AUG-CC-PVTZ AUX)
    Blend: AUG-CC-PVTZ-JKFIT

    Orbital Energies [Eh]
    ---------------------

    Doubly Occupied:

       1A    -20.598957     2A    -11.270562     3A    -11.269696
       4A    -11.230180     5A    -11.229720     6A    -11.222785
       7A    -11.222555     8A    -11.217512     9A    -11.215906
      10A    -11.215402    11A    -11.214739    12A     -1.429374
      13A     -1.097345    14A     -1.079152    15A     -1.035960
      16A     -0.992020    17A     -0.932117    18A     -0.927875
      19A     -0.869725    20A     -0.815560    21A     -0.750685
      22A     -0.718049    23A     -0.658408    24A     -0.627170
      25A     -0.612464    26A     -0.608567    27A     -0.588069
      28A     -0.583344    29A     -0.568371    30A     -0.556726
      31A     -0.551205    32A     -0.532896    33A     -0.531318
      34A     -0.524358    35A     -0.521354    36A     -0.506996
      37A     -0.494943    38A     -0.491542    39A     -0.484324
      40A     -0.461652    41A     -0.357716    42A     -0.280384

  @DF-RHF Final Energy:  -463.01094375257458

   => Energetics <=

    Nuclear Repulsion Energy =            629.3399333155555269
    One-Electron Energy =               -1876.5063884085504924
    Two-Electron Energy =                 784.1555113404203894
    Total Energy =                       -463.0109437525745761
  Basis Set: (AUG-CC-PVTZ AUX)
    Blend: AUG-CC-PVTZ-RI
    Molecular point group: c1

    Geometry (in Angstrom), charge = 0, multiplicity = 1:

       Center              X                  Y                   Z               Mass
    ------------   -----------------  -----------------  -----------------  -----------------
         O            0.075237230694     1.024411693456     0.508322337023    15.994914619570
         C           -0.762218969306    -1.041934906544     0.125790337023    12.000000000000
         C            0.691224230694    -1.091467306544     0.062840337023    12.000000000000
         C           -1.068636769306     0.265399693456     0.395656337023    12.000000000000
         C            1.142919230694     0.179532693456     0.303831337023    12.000000000000
         C           -2.366289669306     0.982029993456     0.515345337023    12.000000000000
         C            2.487760230694     0.814237693456     0.341450337023    12.000000000000
         C           -1.680158769306    -2.179794306544    -0.088065662977    12.000000000000
         C            1.515358230694    -2.319321306544    -0.175719662977    12.000000000000
         C           -2.845794769306     1.559071693456    -0.824151662977    12.000000000000
         C            2.815940230694     1.576598693456    -0.950498662977    12.000000000000
         H            3.236454230694     0.032486693456     0.519917337023     1.007825032230
         H            2.533432230694     1.498405693456     1.197951337023     1.007825032230
         H           -2.213085769306     1.824645693456     1.234961337023     1.007825032230
         H           -3.110152769306     0.333839693456     0.949632337023     1.007825032230
         H           -1.420126769306    -3.036576306544     0.544632337023     1.007825032230
         H           -2.709150769306    -1.888097306544     0.146237337023     1.007825032230
         H           -1.662167769306    -2.524140306544    -1.130556662977     1.007825032230
         H            2.516844230694    -2.061296306544    -0.538261662977     1.007825032230
         H            1.633561230694    -2.914466306544     0.739061337023     1.007825032230
         H            1.045841230694    -2.962112306544    -0.928139662977     1.007825032230
         H            2.815714230694     0.895368693456    -1.805811662977     1.007825032230
         H            3.799958230694     2.050881693456    -0.884972662977     1.007825032230
         H            2.066701230694     2.353481693456    -1.130838662977     1.007825032230
         H           -2.096558769306     2.232046693456    -1.253197662977     1.007825032230
         H           -3.780047769306     2.114487693456    -0.700248662977     1.007825032230
         H           -3.019036769306     0.743665693456    -1.532898662977     1.007825032230

  Basis Set: AUG-CC-PVTZ
    Blend: AUG-CC-PVTZ
  Basis Set: (AUG-CC-PVTZ AUX)
    Blend: AUG-CC-PVTZ-JKFIT
	 Reference Energy          =    -463.0109437525745761 [Eh]
	 Singles Energy            =      -0.0000000000000000 [Eh]
	 Same-Spin Energy          =      -0.4968988903914458 [Eh]
	 Opposite-Spin Energy      =      -1.6669941129186430 [Eh]
	 Correlation Energy        =      -2.1638930033100889 [Eh]
	 Total Energy              =    -465.1748367558846553 [Eh]

	 ================> DF-SCS-MP2 Energies <==================
	-----------------------------------------------------------
	 SCS Same-Spin Scale       =       0.3333333333333333 [-]
	 SCS Opposite-Spin Scale   =       1.2000000000000000 [-]
	 SCS Same-Spin Energy      =      -0.1656329634638153 [Eh]
	 SCS Opposite-Spin Energy  =      -2.0003929355023713 [Eh]
	 SCS Correlation Energy    =      -2.1660258989661867 [Eh]
	 SCS Total Energy          =    -465.1769696515407873 [Eh]
	-----------------------------------------------------------

  Dipole Moment: [D]
     X:    -0.0389      Y:    -0.6757      Z:    -0.2220     Total:     0.7123

*** Psi4 exiting successfully. Buy a developer a beer!
