                               Psi4 1.3.2 release

  ==> Input File <==

--------------------------------------------------------------------------
#psi4
#
memory 32 gb

molecule  {
0 1
  O        0.0723890     1.0222580     0.5077940
  C       -0.7418240    -1.0387750     0.1269710
  C        0.6883760    -1.0936210     0.0623120
  C       -1.0714850     0.2632460     0.3951280
  C        1.1400710     0.1773790     0.3033030
  C       -2.3562760     1.0018630     0.5198060
  C        2.5753173     0.8547513     0.3434509
  C       -1.6830070    -2.1819480    -0.0885940
  C        1.5125100    -2.3214750    -0.1762480
  C       -2.8486430     1.5569180    -0.8246800
  C        2.8130920     1.5744450    -0.9510270
  H        3.2336060     0.0303330     0.5193890
  H        2.5305840     1.4962520     1.1974230
  H       -2.2159340     1.8224920     1.2344330
  H       -3.1130010     0.3316860     0.9491040
  H       -1.4229750    -3.0387300     0.5441040
  H       -2.7119990    -1.8902510     0.1457090
  H       -1.6650160    -2.5262940    -1.1310850
  H        2.5139960    -2.0634500    -0.5387900
  H        1.6307130    -2.9166200     0.7385330
  H        1.0429930    -2.9642660    -0.9286680
  H        2.8128660     0.8932150    -1.8063400
  H        3.7971100     2.0487280    -0.8855010
  H        2.0638530     2.3513280    -1.1313670
  H       -2.0994070     2.2298930    -1.2537260
  H       -3.7828960     2.1123340    -0.7007770
  H       -3.0218850     0.7415120    -1.5334270
units angstrom
no_reorient  #important for SAPT in psi4, default
symmetry c1  #important for SAPT in psi4, default
}

set PROPERTIES_ORIGIN ["COM"]
properties('MP2/aug-cc-pvtz', properties = ['dipole'])
--------------------------------------------------------------------------

    Molecular point group: c1
  Charge       = 0
  Multiplicity = 1
  Basis Set: AUG-CC-PVTZ
    Blend: AUG-CC-PVTZ
  Basis Set: (AUG-CC-PVTZ AUX)
    Blend: AUG-CC-PVTZ-JKFIT

    Orbital Energies [Eh]
    ---------------------

    Doubly Occupied:

       1A    -20.598141     2A    -11.271855     3A    -11.268137
       4A    -11.231962     5A    -11.229409     6A    -11.222530
       7A    -11.222246     8A    -11.214928     9A    -11.214850
      10A    -11.214007    11A    -11.213748    12A     -1.427974
      13A     -1.097178    14A     -1.074078    15A     -1.037919
      16A     -0.990667    17A     -0.931267    18A     -0.925339
      19A     -0.865728    20A     -0.818204    21A     -0.746943
      22A     -0.720553    23A     -0.653757    24A     -0.625380
      25A     -0.619233    26A     -0.606360    27A     -0.587615
      28A     -0.582100    29A     -0.566777    30A     -0.555162
      31A     -0.549478    32A     -0.532992    33A     -0.530740
      34A     -0.525125    35A     -0.522832    36A     -0.510436
      37A     -0.499981    38A     -0.487698    39A     -0.481596
      40A     -0.456327    41A     -0.359823    42A     -0.278993

  @DF-RHF Final Energy:  -463.00421626484001

   => Energetics <=

    Nuclear Repulsion Energy =            627.9884453691167892
    One-Electron Energy =               -1873.8451810449053028
    Two-Electron Energy =                 782.8525194109485028
    Total Energy =                       -463.0042162648400108
  Basis Set: (AUG-CC-PVTZ AUX)
    Blend: AUG-CC-PVTZ-RI
    Molecular point group: c1

    Geometry (in Angstrom), charge = 0, multiplicity = 1:

       Center              X                  Y                   Z               Mass
    ------------   -----------------  -----------------  -----------------  -----------------
         O            0.065257453867     1.018892297160     0.507594472730    15.994914619570
         C           -0.748955546133    -1.042140702840     0.126771472730    12.000000000000
         C            0.681244453867    -1.096986702840     0.062112472730    12.000000000000
         C           -1.078616546133     0.259880297160     0.394928472730    12.000000000000
         C            1.132939453867     0.174013297160     0.303103472730    12.000000000000
         C           -2.363407546133     0.998497297160     0.519606472730    12.000000000000
         C            2.568185753867     0.851385597160     0.343251372730    12.000000000000
         C           -1.690138546133    -2.185313702840    -0.088793527270    12.000000000000
         C            1.505378453867    -2.324840702840    -0.176447527270    12.000000000000
         C           -2.855774546133     1.553552297160    -0.824879527270    12.000000000000
         C            2.805960453867     1.571079297160    -0.951226527270    12.000000000000
         H            3.226474453867     0.026967297160     0.519189472730     1.007825032230
         H            2.523452453867     1.492886297160     1.197223472730     1.007825032230
         H           -2.223065546133     1.819126297160     1.234233472730     1.007825032230
         H           -3.120132546133     0.328320297160     0.948904472730     1.007825032230
         H           -1.430106546133    -3.042095702840     0.543904472730     1.007825032230
         H           -2.719130546133    -1.893616702840     0.145509472730     1.007825032230
         H           -1.672147546133    -2.529659702840    -1.131284527270     1.007825032230
         H            2.506864453867    -2.066815702840    -0.538989527270     1.007825032230
         H            1.623581453867    -2.919985702840     0.738333472730     1.007825032230
         H            1.035861453867    -2.967631702840    -0.928867527270     1.007825032230
         H            2.805734453867     0.889849297160    -1.806539527270     1.007825032230
         H            3.789978453867     2.045362297160    -0.885700527270     1.007825032230
         H            2.056721453867     2.347962297160    -1.131566527270     1.007825032230
         H           -2.106538546133     2.226527297160    -1.253925527270     1.007825032230
         H           -3.790027546133     2.108968297160    -0.700976527270     1.007825032230
         H           -3.029016546133     0.738146297160    -1.533626527270     1.007825032230

  Basis Set: AUG-CC-PVTZ
    Blend: AUG-CC-PVTZ
  Basis Set: (AUG-CC-PVTZ AUX)
    Blend: AUG-CC-PVTZ-JKFIT
	 Reference Energy          =    -463.0042162648400108 [Eh]
	 Singles Energy            =      -0.0000000000000000 [Eh]
	 Same-Spin Energy          =      -0.4967483158975345 [Eh]
	 Opposite-Spin Energy      =      -1.6671807585969673 [Eh]
	 Correlation Energy        =      -2.1639290744945017 [Eh]
	 Total Energy              =    -465.1681453393345009 [Eh]

	 ================> DF-SCS-MP2 Energies <==================
	-----------------------------------------------------------
	 SCS Same-Spin Scale       =       0.3333333333333333 [-]
	 SCS Opposite-Spin Scale   =       1.2000000000000000 [-]
	 SCS Same-Spin Energy      =      -0.1655827719658448 [Eh]
	 SCS Opposite-Spin Energy  =      -2.0006169103163609 [Eh]
	 SCS Correlation Energy    =      -2.1661996822822056 [Eh]
	 SCS Total Energy          =    -465.1704159471221942 [Eh]
	-----------------------------------------------------------

  Dipole Moment: [D]
     X:     0.0257      Y:    -0.6078      Z:    -0.2284     Total:     0.6498

*** Psi4 exiting successfully. Buy a developer a beer!
