                               Psi4 1.3.2 release

  ==> Input File <==

--------------------------------------------------------------------------
#psi4
#
memory 32 gb

molecule  {
0 1
  O        0.1032689     1.0587823     0.5124718
  C       -0.7418240    -1.0387750     0.1269710
  C        0.6883760    -1.0936210     0.0623120
  C       -1.0714850     0.2632460     0.3951280
  C        1.1400710     0.1773790     0.3033030
  C       -2.3562760     1.0018630     0.5198060
  C        2.4620753     0.8578036     0.3500999
  C       -1.6830070    -2.1819480    -0.0885940
  C        1.5125100    -2.3214750    -0.1762480
  C       -2.8486430     1.5569180    -0.8246800
  C        2.8130920     1.5744450    -0.9510270
  H        3.2336060     0.0303330     0.5193890
  H        2.5305840     1.4962520     1.1974230
  H       -2.2159340     1.8224920     1.2344330
  H       -3.1130010     0.3316860     0.9491040
  H       -1.4229750    -3.0387300     0.5441040
  H       -2.7119990    -1.8902510     0.1457090
  H       -1.6650160    -2.5262940    -1.1310850
  H        2.5139960    -2.0634500    -0.5387900
  H        1.6307130    -2.9166200     0.7385330
  H        1.0429930    -2.9642660    -0.9286680
  H        2.8128660     0.8932150    -1.8063400
  H        3.7971100     2.0487280    -0.8855010
  H        2.0638530     2.3513280    -1.1313670
  H       -2.0994070     2.2298930    -1.2537260
  H       -3.7828960     2.1123340    -0.7007770
  H       -3.0218850     0.7415120    -1.5334270
units angstrom
no_reorient  #important for SAPT in psi4, default
symmetry c1  #important for SAPT in psi4, default
}

set PROPERTIES_ORIGIN ["COM"]
properties('MP2/aug-cc-pvtz', properties = ['dipole'])
--------------------------------------------------------------------------

    Molecular point group: c1
  Charge       = 0
  Multiplicity = 1
  Basis Set: AUG-CC-PVTZ
    Blend: AUG-CC-PVTZ
  Basis Set: (AUG-CC-PVTZ AUX)
    Blend: AUG-CC-PVTZ-JKFIT

    Orbital Energies [Eh]
    ---------------------

    Doubly Occupied:

       1A    -20.597007     2A    -11.272193     3A    -11.271266
       4A    -11.230337     5A    -11.228893     6A    -11.226132
       7A    -11.223415     8A    -11.221080     9A    -11.217109
      10A    -11.215182    11A    -11.213863    12A     -1.415270
      13A     -1.101914    14A     -1.076856    15A     -1.036159
      16A     -0.991525    17A     -0.934769    18A     -0.924236
      19A     -0.869213    20A     -0.813607    21A     -0.741985
      22A     -0.724268    23A     -0.654809    24A     -0.623181
      25A     -0.612506    26A     -0.607816    27A     -0.585693
      28A     -0.581655    29A     -0.567866    30A     -0.557002
      31A     -0.550636    32A     -0.533383    33A     -0.527991
      34A     -0.526018    35A     -0.523063    36A     -0.507288
      37A     -0.493913    38A     -0.492406    39A     -0.472722
      40A     -0.470373    41A     -0.364559    42A     -0.279543

  @DF-RHF Final Energy:  -463.00381522425630

   => Energetics <=

    Nuclear Repulsion Energy =            628.5745323805479075
    One-Electron Energy =               -1874.9992904609289326
    Two-Electron Energy =                 783.4209428561247250
    Total Energy =                       -463.0038152242563001
  Basis Set: (AUG-CC-PVTZ AUX)
    Blend: AUG-CC-PVTZ-RI
    Molecular point group: c1

    Geometry (in Angstrom), charge = 0, multiplicity = 1:

       Center              X                  Y                   Z               Mass
    ------------   -----------------  -----------------  -----------------  -----------------
         O            0.101823535706     1.051335410004     0.511255911341    15.994914619570
         C           -0.743269364294    -1.046221889996     0.125755111341    12.000000000000
         C            0.686930635706    -1.101067889996     0.061096111341    12.000000000000
         C           -1.072930364294     0.255799110004     0.393912111341    12.000000000000
         C            1.138625635706     0.169932110004     0.302087111341    12.000000000000
         C           -2.357721364294     0.994416110004     0.518590111341    12.000000000000
         C            2.460629935706     0.850356710004     0.348884011341    12.000000000000
         C           -1.684452364294    -2.189394889996    -0.089809888659    12.000000000000
         C            1.511064635706    -2.328921889996    -0.177463888659    12.000000000000
         C           -2.850088364294     1.549471110004    -0.825895888659    12.000000000000
         C            2.811646635706     1.566998110004    -0.952242888659    12.000000000000
         H            3.232160635706     0.022886110004     0.518173111341     1.007825032230
         H            2.529138635706     1.488805110004     1.196207111341     1.007825032230
         H           -2.217379364294     1.815045110004     1.233217111341     1.007825032230
         H           -3.114446364294     0.324239110004     0.947888111341     1.007825032230
         H           -1.424420364294    -3.046176889996     0.542888111341     1.007825032230
         H           -2.713444364294    -1.897697889996     0.144493111341     1.007825032230
         H           -1.666461364294    -2.533740889996    -1.132300888659     1.007825032230
         H            2.512550635706    -2.070896889996    -0.540005888659     1.007825032230
         H            1.629267635706    -2.924066889996     0.737317111341     1.007825032230
         H            1.041547635706    -2.971712889996    -0.929883888659     1.007825032230
         H            2.811420635706     0.885768110004    -1.807555888659     1.007825032230
         H            3.795664635706     2.041281110004    -0.886716888659     1.007825032230
         H            2.062407635706     2.343881110004    -1.132582888659     1.007825032230
         H           -2.100852364294     2.222446110004    -1.254941888659     1.007825032230
         H           -3.784341364294     2.104887110004    -0.701992888659     1.007825032230
         H           -3.023330364294     0.734065110004    -1.534642888659     1.007825032230

  Basis Set: AUG-CC-PVTZ
    Blend: AUG-CC-PVTZ
  Basis Set: (AUG-CC-PVTZ AUX)
    Blend: AUG-CC-PVTZ-JKFIT
	 Reference Energy          =    -463.0038152242563001 [Eh]
	 Singles Energy            =      -0.0000000000000000 [Eh]
	 Same-Spin Energy          =      -0.4974784979486725 [Eh]
	 Opposite-Spin Energy      =      -1.6691049762135346 [Eh]
	 Correlation Energy        =      -2.1665834741622070 [Eh]
	 Total Energy              =    -465.1703986984185235 [Eh]

	 ================> DF-SCS-MP2 Energies <==================
	-----------------------------------------------------------
	 SCS Same-Spin Scale       =       0.3333333333333333 [-]
	 SCS Opposite-Spin Scale   =       1.2000000000000000 [-]
	 SCS Same-Spin Energy      =      -0.1658261659828908 [Eh]
	 SCS Opposite-Spin Energy  =      -2.0029259714562415 [Eh]
	 SCS Correlation Energy    =      -2.1687521374391325 [Eh]
	 SCS Total Energy          =    -465.1725673616954282 [Eh]
	-----------------------------------------------------------

  Dipole Moment: [D]
     X:    -0.1582      Y:    -0.7808      Z:    -0.2402     Total:     0.8321

*** Psi4 exiting successfully. Buy a developer a beer!
