                               Psi4 1.3.2 release

  ==> Input File <==

--------------------------------------------------------------------------
#psi4
#
memory 32 gb

molecule  {
0 1
  O        0.0723890     1.0222580     0.5077940
  C       -0.7418240    -1.0387750     0.1269710
  C        0.6883760    -1.0936210     0.0623120
  C       -1.0714850     0.2632460     0.3951280
  C        1.1400710     0.1773790     0.3033030
  C       -2.3562760     1.0018630     0.5198060
  C        2.4849120     0.8120840     0.3409220
  C       -1.6830070    -2.1819480    -0.0885940
  C        1.5125100    -2.3214750    -0.1762480
  C       -2.8494035     1.5069165    -0.8439756
  C        2.8130920     1.5744450    -0.9510270
  H        3.2336060     0.0303330     0.5193890
  H        2.5305840     1.4962520     1.1974230
  H       -2.2047360     1.7968836     1.2606147
  H       -3.1130010     0.3316860     0.9491040
  H       -1.4229750    -3.0387300     0.5441040
  H       -2.7119990    -1.8902510     0.1457090
  H       -1.6650160    -2.5262940    -1.1310850
  H        2.5139960    -2.0634500    -0.5387900
  H        1.6307130    -2.9166200     0.7385330
  H        1.0429930    -2.9642660    -0.9286680
  H        2.8128660     0.8932150    -1.8063400
  H        3.7971100     2.0487280    -0.8855010
  H        2.0638530     2.3513280    -1.1313670
  H       -2.0994070     2.2298930    -1.2537260
  H       -3.7828960     2.1123340    -0.7007770
  H       -3.0218850     0.7415120    -1.5334270
units angstrom
no_reorient  #important for SAPT in psi4, default
symmetry c1  #important for SAPT in psi4, default
}

set PROPERTIES_ORIGIN ["COM"]
properties('MP2/aug-cc-pvtz', properties = ['dipole'])
--------------------------------------------------------------------------

    Molecular point group: c1
  Charge       = 0
  Multiplicity = 1
  Basis Set: AUG-CC-PVTZ
    Blend: AUG-CC-PVTZ
  Basis Set: (AUG-CC-PVTZ AUX)
    Blend: AUG-CC-PVTZ-JKFIT

    Orbital Energies [Eh]
    ---------------------

    Doubly Occupied:

       1A    -20.598525     2A    -11.269179     3A    -11.269102
       4A    -11.230559     5A    -11.229813     6A    -11.223141
       7A    -11.222754     8A    -11.216678     9A    -11.215950
      10A    -11.214654    11A    -11.214485    12A     -1.429595
      13A     -1.098593    14A     -1.079122    15A     -1.036336
      16A     -0.989829    17A     -0.932169    18A     -0.927569
      19A     -0.870807    20A     -0.816290    21A     -0.749235
      22A     -0.721709    23A     -0.657609    24A     -0.627542
      25A     -0.611931    26A     -0.609970    27A     -0.586175
      28A     -0.583057    29A     -0.567843    30A     -0.555576
      31A     -0.549966    32A     -0.530919    33A     -0.528752
      34A     -0.525607    35A     -0.523584    36A     -0.508205
      37A     -0.495161    38A     -0.490166    39A     -0.481010
      40A     -0.466424    41A     -0.360528    42A     -0.278555

  @DF-RHF Final Energy:  -463.00825189371653

   => Energetics <=

    Nuclear Repulsion Energy =            629.8173353413998257
    One-Electron Energy =               -1877.4618221555788296
    Two-Electron Energy =                 784.6362349204623570
    Total Energy =                       -463.0082518937165332
  Basis Set: (AUG-CC-PVTZ AUX)
    Blend: AUG-CC-PVTZ-RI
    Molecular point group: c1

    Geometry (in Angstrom), charge = 0, multiplicity = 1:

       Center              X                  Y                   Z               Mass
    ------------   -----------------  -----------------  -----------------  -----------------
         O            0.072374881922     1.026372138899     0.509142640290    15.994914619570
         C           -0.741838118078    -1.034660861101     0.128319640290    12.000000000000
         C            0.688361881922    -1.089506861101     0.063660640290    12.000000000000
         C           -1.071499118078     0.267360138899     0.396476640290    12.000000000000
         C            1.140056881922     0.181493138899     0.304651640290    12.000000000000
         C           -2.356290118078     1.005977138899     0.521154640290    12.000000000000
         C            2.484897881922     0.816198138899     0.342270640290    12.000000000000
         C           -1.683021118078    -2.177833861101    -0.087245359710    12.000000000000
         C            1.512495881922    -2.317360861101    -0.174899359710    12.000000000000
         C           -2.849417618078     1.511030638899    -0.842626959710    12.000000000000
         C            2.813077881922     1.578559138899    -0.949678359710    12.000000000000
         H            3.233591881922     0.034447138899     0.520737640290     1.007825032230
         H            2.530569881922     1.500366138899     1.198771640290     1.007825032230
         H           -2.204750118078     1.800997738899     1.261963340290     1.007825032230
         H           -3.113015118078     0.335800138899     0.950452640290     1.007825032230
         H           -1.422989118078    -3.034615861101     0.545452640290     1.007825032230
         H           -2.712013118078    -1.886136861101     0.147057640290     1.007825032230
         H           -1.665030118078    -2.522179861101    -1.129736359710     1.007825032230
         H            2.513981881922    -2.059335861101    -0.537441359710     1.007825032230
         H            1.630698881922    -2.912505861101     0.739881640290     1.007825032230
         H            1.042978881922    -2.960151861101    -0.927319359710     1.007825032230
         H            2.812851881922     0.897329138899    -1.804991359710     1.007825032230
         H            3.797095881922     2.052842138899    -0.884152359710     1.007825032230
         H            2.063838881922     2.355442138899    -1.130018359710     1.007825032230
         H           -2.099421118078     2.234007138899    -1.252377359710     1.007825032230
         H           -3.782910118078     2.116448138899    -0.699428359710     1.007825032230
         H           -3.021899118078     0.745626138899    -1.532078359710     1.007825032230

  Basis Set: AUG-CC-PVTZ
    Blend: AUG-CC-PVTZ
  Basis Set: (AUG-CC-PVTZ AUX)
    Blend: AUG-CC-PVTZ-JKFIT
	 Reference Energy          =    -463.0082518937165332 [Eh]
	 Singles Energy            =      -0.0000000000000000 [Eh]
	 Same-Spin Energy          =      -0.4971970821819286 [Eh]
	 Opposite-Spin Energy      =      -1.6673466705704110 [Eh]
	 Correlation Energy        =      -2.1645437527523397 [Eh]
	 Total Energy              =    -465.1727956464688987 [Eh]

	 ================> DF-SCS-MP2 Energies <==================
	-----------------------------------------------------------
	 SCS Same-Spin Scale       =       0.3333333333333333 [-]
	 SCS Opposite-Spin Scale   =       1.2000000000000000 [-]
	 SCS Same-Spin Energy      =      -0.1657323607273095 [Eh]
	 SCS Opposite-Spin Energy  =      -2.0008160046844932 [Eh]
	 SCS Correlation Energy    =      -2.1665483654118027 [Eh]
	 SCS Total Energy          =    -465.1748002591283466 [Eh]
	-----------------------------------------------------------

  Dipole Moment: [D]
     X:    -0.0437      Y:    -0.6675      Z:    -0.2128     Total:     0.7020

*** Psi4 exiting successfully. Buy a developer a beer!
