                               Psi4 1.3.2 release

  ==> Input File <==

--------------------------------------------------------------------------
#psi4
#
memory 32 gb

molecule  {
0 1
  O        0.0723890     1.0222580     0.5077940
  C       -0.7418240    -1.0387750     0.1269710
  C        0.6883760    -1.0936210     0.0623120
  C       -1.0647572     0.2535234     0.3929626
  C        1.1324550     0.1682197     0.3017344
  C       -2.3562760     1.0018630     0.5198060
  C        2.4849120     0.8120840     0.3409220
  C       -1.6830070    -2.1819480    -0.0885940
  C        1.5125100    -2.3214750    -0.1762480
  C       -2.8486430     1.5569180    -0.8246800
  C        2.8130920     1.5744450    -0.9510270
  H        3.2336060     0.0303330     0.5193890
  H        2.5305840     1.4962520     1.1974230
  H       -2.2159340     1.8224920     1.2344330
  H       -3.1130010     0.3316860     0.9491040
  H       -1.4229750    -3.0387300     0.5441040
  H       -2.7119990    -1.8902510     0.1457090
  H       -1.6650160    -2.5262940    -1.1310850
  H        2.5139960    -2.0634500    -0.5387900
  H        1.6307130    -2.9166200     0.7385330
  H        1.0429930    -2.9642660    -0.9286680
  H        2.8128660     0.8932150    -1.8063400
  H        3.7971100     2.0487280    -0.8855010
  H        2.0638530     2.3513280    -1.1313670
  H       -2.0994070     2.2298930    -1.2537260
  H       -3.7828960     2.1123340    -0.7007770
  H       -3.0218850     0.7415120    -1.5334270
units angstrom
no_reorient  #important for SAPT in psi4, default
symmetry c1  #important for SAPT in psi4, default
}

set PROPERTIES_ORIGIN ["COM"]
properties('MP2/aug-cc-pvtz', properties = ['dipole'])
--------------------------------------------------------------------------

    Molecular point group: c1
  Charge       = 0
  Multiplicity = 1
  Basis Set: AUG-CC-PVTZ
    Blend: AUG-CC-PVTZ
  Basis Set: (AUG-CC-PVTZ AUX)
    Blend: AUG-CC-PVTZ-JKFIT

    Orbital Energies [Eh]
    ---------------------

    Doubly Occupied:

       1A    -20.598257     2A    -11.268662     3A    -11.268489
       4A    -11.230353     5A    -11.230207     6A    -11.223517
       7A    -11.223198     8A    -11.215277     9A    -11.214997
      10A    -11.214460    11A    -11.213919    12A     -1.430451
      13A     -1.101354    14A     -1.077049    15A     -1.034575
      16A     -0.990818    17A     -0.934403    18A     -0.927026
      19A     -0.868353    20A     -0.815868    21A     -0.750248
      22A     -0.722075    23A     -0.657592    24A     -0.628158
      25A     -0.610015    26A     -0.608803    27A     -0.585369
      28A     -0.583887    29A     -0.567830    30A     -0.556099
      31A     -0.549948    32A     -0.533350    33A     -0.527913
      34A     -0.525333    35A     -0.520946    36A     -0.505106
      37A     -0.494527    38A     -0.491484    39A     -0.482882
      40A     -0.467369    41A     -0.363062    42A     -0.281768

  @DF-RHF Final Energy:  -463.01293625625715

   => Energetics <=

    Nuclear Repulsion Energy =            629.8053229705910780
    One-Electron Energy =               -1877.4465257659585404
    Two-Electron Energy =                 784.6282665391103137
    Total Energy =                       -463.0129362562571487
  Basis Set: (AUG-CC-PVTZ AUX)
    Blend: AUG-CC-PVTZ-RI
    Molecular point group: c1

    Geometry (in Angstrom), charge = 0, multiplicity = 1:

       Center              X                  Y                   Z               Mass
    ------------   -----------------  -----------------  -----------------  -----------------
         O            0.072459144446     1.023747607710     0.508088521791    15.994914619570
         C           -0.741753855554    -1.037285392290     0.127265521791    12.000000000000
         C            0.688446144446    -1.092131392290     0.062606521791    12.000000000000
         C           -1.064687055554     0.255013007710     0.393257121791    12.000000000000
         C            1.132525144446     0.169709307710     0.302028921791    12.000000000000
         C           -2.356205855554     1.003352607710     0.520100521791    12.000000000000
         C            2.484982144446     0.813573607710     0.341216521791    12.000000000000
         C           -1.682936855554    -2.180458392290    -0.088299478209    12.000000000000
         C            1.512580144446    -2.319985392290    -0.175953478209    12.000000000000
         C           -2.848572855554     1.558407607710    -0.824385478209    12.000000000000
         C            2.813162144446     1.575934607710    -0.950732478209    12.000000000000
         H            3.233676144446     0.031822607710     0.519683521791     1.007825032230
         H            2.530654144446     1.497741607710     1.197717521791     1.007825032230
         H           -2.215863855554     1.823981607710     1.234727521791     1.007825032230
         H           -3.112930855554     0.333175607710     0.949398521791     1.007825032230
         H           -1.422904855554    -3.037240392290     0.544398521791     1.007825032230
         H           -2.711928855554    -1.888761392290     0.146003521791     1.007825032230
         H           -1.664945855554    -2.524804392290    -1.130790478209     1.007825032230
         H            2.514066144446    -2.061960392290    -0.538495478209     1.007825032230
         H            1.630783144446    -2.915130392290     0.738827521791     1.007825032230
         H            1.043063144446    -2.962776392290    -0.928373478209     1.007825032230
         H            2.812936144446     0.894704607710    -1.806045478209     1.007825032230
         H            3.797180144446     2.050217607710    -0.885206478209     1.007825032230
         H            2.063923144446     2.352817607710    -1.131072478209     1.007825032230
         H           -2.099336855554     2.231382607710    -1.253431478209     1.007825032230
         H           -3.782825855554     2.113823607710    -0.700482478209     1.007825032230
         H           -3.021814855554     0.743001607710    -1.533132478209     1.007825032230

  Basis Set: AUG-CC-PVTZ
    Blend: AUG-CC-PVTZ
  Basis Set: (AUG-CC-PVTZ AUX)
    Blend: AUG-CC-PVTZ-JKFIT
	 Reference Energy          =    -463.0129362562571487 [Eh]
	 Singles Energy            =      -0.0000000000000000 [Eh]
	 Same-Spin Energy          =      -0.4964675978166352 [Eh]
	 Opposite-Spin Energy      =      -1.6663673201028368 [Eh]
	 Correlation Energy        =      -2.1628349179194721 [Eh]
	 Total Energy              =    -465.1757711741766457 [Eh]

	 ================> DF-SCS-MP2 Energies <==================
	-----------------------------------------------------------
	 SCS Same-Spin Scale       =       0.3333333333333333 [-]
	 SCS Opposite-Spin Scale   =       1.2000000000000000 [-]
	 SCS Same-Spin Energy      =      -0.1654891992722117 [Eh]
	 SCS Opposite-Spin Energy  =      -1.9996407841234041 [Eh]
	 SCS Correlation Energy    =      -2.1651299833956159 [Eh]
	 SCS Total Energy          =    -465.1780662396527646 [Eh]
	-----------------------------------------------------------

  Dipole Moment: [D]
     X:    -0.0333      Y:    -0.6862      Z:    -0.2218     Total:     0.7219

*** Psi4 exiting successfully. Buy a developer a beer!
