                               Psi4 1.3.2 release

  ==> Input File <==

--------------------------------------------------------------------------
#psi4
#
memory 32 gb

molecule  {
0 1
  O        0.0723890     1.0222580     0.5077940
  C       -0.7418240    -1.0387750     0.1269710
  C        0.6893141    -1.0690952     0.0670939
  C       -1.0482513     0.2688623     0.3953557
  C        1.1400710     0.1773790     0.3033030
  C       -2.3562760     1.0018630     0.5198060
  C        2.4849120     0.8120840     0.3409220
  C       -1.6830070    -2.1819480    -0.0885940
  C        1.5125100    -2.3214750    -0.1762480
  C       -2.8486430     1.5569180    -0.8246800
  C        2.8130920     1.5744450    -0.9510270
  H        3.2336060     0.0303330     0.5193890
  H        2.5305840     1.4962520     1.1974230
  H       -2.2159340     1.8224920     1.2344330
  H       -3.1130010     0.3316860     0.9491040
  H       -1.4229750    -3.0387300     0.5441040
  H       -2.7119990    -1.8902510     0.1457090
  H       -1.6650160    -2.5262940    -1.1310850
  H        2.5139960    -2.0634500    -0.5387900
  H        1.6307130    -2.9166200     0.7385330
  H        1.0429930    -2.9642660    -0.9286680
  H        2.8128660     0.8932150    -1.8063400
  H        3.7971100     2.0487280    -0.8855010
  H        2.0638530     2.3513280    -1.1313670
  H       -2.0994070     2.2298930    -1.2537260
  H       -3.7828960     2.1123340    -0.7007770
  H       -3.0218850     0.7415120    -1.5334270
units angstrom
no_reorient  #important for SAPT in psi4, default
symmetry c1  #important for SAPT in psi4, default
}

set PROPERTIES_ORIGIN ["COM"]
properties('MP2/aug-cc-pvtz', properties = ['dipole'])
--------------------------------------------------------------------------

    Molecular point group: c1
  Charge       = 0
  Multiplicity = 1
  Basis Set: AUG-CC-PVTZ
    Blend: AUG-CC-PVTZ
  Basis Set: (AUG-CC-PVTZ AUX)
    Blend: AUG-CC-PVTZ-JKFIT

    Orbital Energies [Eh]
    ---------------------

    Doubly Occupied:

       1A    -20.600264     2A    -11.270239     3A    -11.265009
       4A    -11.230328     5A    -11.229823     6A    -11.223796
       7A    -11.223623     8A    -11.215370     9A    -11.214593
      10A    -11.214528    11A    -11.212935    12A     -1.439395
      13A     -1.099545    14A     -1.078190    15A     -1.034867
      16A     -0.988481    17A     -0.933897    18A     -0.928617
      19A     -0.868825    20A     -0.816502    21A     -0.754444
      22A     -0.720873    23A     -0.660020    24A     -0.631045
      25A     -0.610327    26A     -0.608309    27A     -0.587482
      28A     -0.582487    29A     -0.567655    30A     -0.555007
      31A     -0.548379    32A     -0.533945    33A     -0.529333
      34A     -0.523494    35A     -0.520745    36A     -0.505611
      37A     -0.494986    38A     -0.491736    39A     -0.484124
      40A     -0.464614    41A     -0.362913    42A     -0.281636

  @DF-RHF Final Energy:  -463.01307547101612

   => Energetics <=

    Nuclear Repulsion Energy =            630.1732540095713375
    One-Electron Energy =               -1878.1566747680526532
    Two-Electron Energy =                 784.9703452874651930
    Total Energy =                       -463.0130754710161227
  Basis Set: (AUG-CC-PVTZ AUX)
    Blend: AUG-CC-PVTZ-RI
    Molecular point group: c1

    Geometry (in Angstrom), charge = 0, multiplicity = 1:

       Center              X                  Y                   Z               Mass
    ------------   -----------------  -----------------  -----------------  -----------------
         O            0.070482285568     1.019880347950     0.507398782634    15.994914619570
         C           -0.743730714432    -1.041152652050     0.126575782634    12.000000000000
         C            0.687407385568    -1.071472852050     0.066698682634    12.000000000000
         C           -1.050158014432     0.266484647950     0.394960482634    12.000000000000
         C            1.138164285568     0.175001347950     0.302907782634    12.000000000000
         C           -2.358182714432     0.999485347950     0.519410782634    12.000000000000
         C            2.483005285568     0.809706347950     0.340526782634    12.000000000000
         C           -1.684913714432    -2.184325652050    -0.088989217366    12.000000000000
         C            1.510603285568    -2.323852652050    -0.176643217366    12.000000000000
         C           -2.850549714432     1.554540347950    -0.825075217366    12.000000000000
         C            2.811185285568     1.572067347950    -0.951422217366    12.000000000000
         H            3.231699285568     0.027955347950     0.518993782634     1.007825032230
         H            2.528677285568     1.493874347950     1.197027782634     1.007825032230
         H           -2.217840714432     1.820114347950     1.234037782634     1.007825032230
         H           -3.114907714432     0.329308347950     0.948708782634     1.007825032230
         H           -1.424881714432    -3.041107652050     0.543708782634     1.007825032230
         H           -2.713905714432    -1.892628652050     0.145313782634     1.007825032230
         H           -1.666922714432    -2.528671652050    -1.131480217366     1.007825032230
         H            2.512089285568    -2.065827652050    -0.539185217366     1.007825032230
         H            1.628806285568    -2.918997652050     0.738137782634     1.007825032230
         H            1.041086285568    -2.966643652050    -0.929063217366     1.007825032230
         H            2.810959285568     0.890837347950    -1.806735217366     1.007825032230
         H            3.795203285568     2.046350347950    -0.885896217366     1.007825032230
         H            2.061946285568     2.348950347950    -1.131762217366     1.007825032230
         H           -2.101313714432     2.227515347950    -1.254121217366     1.007825032230
         H           -3.784802714432     2.109956347950    -0.701172217366     1.007825032230
         H           -3.023791714432     0.739134347950    -1.533822217366     1.007825032230

  Basis Set: AUG-CC-PVTZ
    Blend: AUG-CC-PVTZ
  Basis Set: (AUG-CC-PVTZ AUX)
    Blend: AUG-CC-PVTZ-JKFIT
	 Reference Energy          =    -463.0130754710161227 [Eh]
	 Singles Energy            =      -0.0000000000000000 [Eh]
	 Same-Spin Energy          =      -0.4962680894431896 [Eh]
	 Opposite-Spin Energy      =      -1.6656514251092895 [Eh]
	 Correlation Energy        =      -2.1619195145524790 [Eh]
	 Total Energy              =    -465.1749949855686168 [Eh]

	 ================> DF-SCS-MP2 Energies <==================
	-----------------------------------------------------------
	 SCS Same-Spin Scale       =       0.3333333333333333 [-]
	 SCS Opposite-Spin Scale   =       1.2000000000000000 [-]
	 SCS Same-Spin Energy      =      -0.1654226964810632 [Eh]
	 SCS Opposite-Spin Energy  =      -1.9987817101311474 [Eh]
	 SCS Correlation Energy    =      -2.1642044066122104 [Eh]
	 SCS Total Energy          =    -465.1772798776283366 [Eh]
	-----------------------------------------------------------

  Dipole Moment: [D]
     X:    -0.0035      Y:    -0.6438      Z:    -0.2129     Total:     0.6781

*** Psi4 exiting successfully. Buy a developer a beer!
