                               Psi4 1.3.2 release

  ==> Input File <==

--------------------------------------------------------------------------
#psi4
#
memory 32 gb

molecule  {
0 1
  O        0.0723890     1.0222580     0.5077940
  C       -0.7418240    -1.0387750     0.1269710
  C        0.6883760    -1.0936210     0.0623120
  C       -1.0714850     0.2632460     0.3951280
  C        1.1400710     0.1773790     0.3033030
  C       -2.3562760     1.0018630     0.5198060
  C        2.4849120     0.8120840     0.3409220
  C       -1.6830070    -2.1819480    -0.0885940
  C        1.6225479    -2.4854173    -0.2081004
  C       -2.8486430     1.5569180    -0.8246800
  C        2.8130920     1.5744450    -0.9510270
  H        3.2336060     0.0303330     0.5193890
  H        2.5305840     1.4962520     1.1974230
  H       -2.2159340     1.8224920     1.2344330
  H       -3.1130010     0.3316860     0.9491040
  H       -1.4229750    -3.0387300     0.5441040
  H       -2.7119990    -1.8902510     0.1457090
  H       -1.6650160    -2.5262940    -1.1310850
  H        2.5139960    -2.0634500    -0.5387900
  H        1.6307130    -2.9166200     0.7385330
  H        1.0429930    -2.9642660    -0.9286680
  H        2.8128660     0.8932150    -1.8063400
  H        3.7971100     2.0487280    -0.8855010
  H        2.0638530     2.3513280    -1.1313670
  H       -2.0994070     2.2298930    -1.2537260
  H       -3.7828960     2.1123340    -0.7007770
  H       -3.0218850     0.7415120    -1.5334270
units angstrom
no_reorient  #important for SAPT in psi4, default
symmetry c1  #important for SAPT in psi4, default
}

set PROPERTIES_ORIGIN ["COM"]
properties('MP2/aug-cc-pvtz', properties = ['dipole'])
--------------------------------------------------------------------------

    Molecular point group: c1
  Charge       = 0
  Multiplicity = 1
  Basis Set: AUG-CC-PVTZ
    Blend: AUG-CC-PVTZ
  Basis Set: (AUG-CC-PVTZ AUX)
    Blend: AUG-CC-PVTZ-JKFIT

    Orbital Energies [Eh]
    ---------------------

    Doubly Occupied:

       1A    -20.597629     2A    -11.268567     3A    -11.268294
       4A    -11.229497     5A    -11.229467     6A    -11.223470
       7A    -11.222923     8A    -11.221944     9A    -11.215105
      10A    -11.214946    11A    -11.214244    12A     -1.428567
      13A     -1.089849    14A     -1.075603    15A     -1.034947
      16A     -0.982678    17A     -0.938255    18A     -0.927726
      19A     -0.869462    20A     -0.815336    21A     -0.747500
      22A     -0.716420    23A     -0.654309    24A     -0.624887
      25A     -0.612667    26A     -0.605820    27A     -0.592615
      28A     -0.591079    29A     -0.584776    30A     -0.562537
      31A     -0.559850    32A     -0.536799    33A     -0.527189
      34A     -0.521492    35A     -0.505139    36A     -0.499261
      37A     -0.495223    38A     -0.485818    39A     -0.476448
      40A     -0.454343    41A     -0.363335    42A     -0.278688

  @DF-RHF Final Energy:  -462.98501709267975

   => Energetics <=

    Nuclear Repulsion Energy =            625.9286880518942553
    One-Electron Energy =               -1869.6980011052949067
    Two-Electron Energy =                 780.7842959607210105
    Total Energy =                       -462.9850170926797546
  Basis Set: (AUG-CC-PVTZ AUX)
    Blend: AUG-CC-PVTZ-RI
    Molecular point group: c1

    Geometry (in Angstrom), charge = 0, multiplicity = 1:

       Center              X                  Y                   Z               Mass
    ------------   -----------------  -----------------  -----------------  -----------------
         O            0.063708735607     1.035190701863     0.510306642647    15.994914619570
         C           -0.750504264393    -1.025842298137     0.129483642647    12.000000000000
         C            0.679695735607    -1.080688298137     0.064824642647    12.000000000000
         C           -1.080165264393     0.276178701863     0.397640642647    12.000000000000
         C            1.131390735607     0.190311701863     0.305815642647    12.000000000000
         C           -2.364956264393     1.014795701863     0.522318642647    12.000000000000
         C            2.476231735607     0.825016701863     0.343434642647    12.000000000000
         C           -1.691687264393    -2.169015298137    -0.086081357353    12.000000000000
         C            1.613867635607    -2.472484598137    -0.205587757353    12.000000000000
         C           -2.857323264393     1.569850701863    -0.822167357353    12.000000000000
         C            2.804411735607     1.587377701863    -0.948514357353    12.000000000000
         H            3.224925735607     0.043265701863     0.521901642647     1.007825032230
         H            2.521903735607     1.509184701863     1.199935642647     1.007825032230
         H           -2.224614264393     1.835424701863     1.236945642647     1.007825032230
         H           -3.121681264393     0.344618701863     0.951616642647     1.007825032230
         H           -1.431655264393    -3.025797298137     0.546616642647     1.007825032230
         H           -2.720679264393    -1.877318298137     0.148221642647     1.007825032230
         H           -1.673696264393    -2.513361298137    -1.128572357353     1.007825032230
         H            2.505315735607    -2.050517298137    -0.536277357353     1.007825032230
         H            1.622032735607    -2.903687298137     0.741045642647     1.007825032230
         H            1.034312735607    -2.951333298137    -0.926155357353     1.007825032230
         H            2.804185735607     0.906147701863    -1.803827357353     1.007825032230
         H            3.788429735607     2.061660701863    -0.882988357353     1.007825032230
         H            2.055172735607     2.364260701863    -1.128854357353     1.007825032230
         H           -2.108087264393     2.242825701863    -1.251213357353     1.007825032230
         H           -3.791576264393     2.125266701863    -0.698264357353     1.007825032230
         H           -3.030565264393     0.754444701863    -1.530914357353     1.007825032230

  Basis Set: AUG-CC-PVTZ
    Blend: AUG-CC-PVTZ
  Basis Set: (AUG-CC-PVTZ AUX)
    Blend: AUG-CC-PVTZ-JKFIT
	 Reference Energy          =    -462.9850170926797546 [Eh]
	 Singles Energy            =      -0.0000000000000000 [Eh]
	 Same-Spin Energy          =      -0.4967615028506956 [Eh]
	 Opposite-Spin Energy      =      -1.6680572341947140 [Eh]
	 Correlation Energy        =      -2.1648187370454095 [Eh]
	 Total Energy              =    -465.1498358297251912 [Eh]

	 ================> DF-SCS-MP2 Energies <==================
	-----------------------------------------------------------
	 SCS Same-Spin Scale       =       0.3333333333333333 [-]
	 SCS Opposite-Spin Scale   =       1.2000000000000000 [-]
	 SCS Same-Spin Energy      =      -0.1655871676168985 [Eh]
	 SCS Opposite-Spin Energy  =      -2.0016686810336566 [Eh]
	 SCS Correlation Energy    =      -2.1672558486505551 [Eh]
	 SCS Total Energy          =    -465.1522729413302955 [Eh]
	-----------------------------------------------------------

  Dipole Moment: [D]
     X:    -0.0328      Y:    -0.6642      Z:    -0.2081     Total:     0.6968

*** Psi4 exiting successfully. Buy a developer a beer!
