                               Psi4 1.3.2 release

  ==> Input File <==

--------------------------------------------------------------------------
#psi4
#
memory 32 gb

molecule  {
0 1
  O        0.0723890     1.0222580     0.5077940
  C       -0.7418240    -1.0387750     0.1269710
  C        0.6883760    -1.0936210     0.0623120
  C       -1.0714850     0.2632460     0.3951280
  C        1.1192227     0.2241775     0.2948599
  C       -2.3562760     1.0018630     0.5198060
  C        2.4849120     0.8120840     0.3409220
  C       -1.6830070    -2.1819480    -0.0885940
  C        1.5125100    -2.3214750    -0.1762480
  C       -2.8486430     1.5569180    -0.8246800
  C        2.8130920     1.5744450    -0.9510270
  H        3.2609111     0.0571542     0.5182190
  H        2.5305840     1.4962520     1.1974230
  H       -2.2159340     1.8224920     1.2344330
  H       -3.1130010     0.3316860     0.9491040
  H       -1.4229750    -3.0387300     0.5441040
  H       -2.7119990    -1.8902510     0.1457090
  H       -1.6650160    -2.5262940    -1.1310850
  H        2.5139960    -2.0634500    -0.5387900
  H        1.6307130    -2.9166200     0.7385330
  H        1.0429930    -2.9642660    -0.9286680
  H        2.8128660     0.8932150    -1.8063400
  H        3.7971100     2.0487280    -0.8855010
  H        2.0638530     2.3513280    -1.1313670
  H       -2.0994070     2.2298930    -1.2537260
  H       -3.7828960     2.1123340    -0.7007770
  H       -3.0218850     0.7415120    -1.5334270
units angstrom
no_reorient  #important for SAPT in psi4, default
symmetry c1  #important for SAPT in psi4, default
}

set PROPERTIES_ORIGIN ["COM"]
properties('MP2/aug-cc-pvtz', properties = ['dipole'])
--------------------------------------------------------------------------

    Molecular point group: c1
  Charge       = 0
  Multiplicity = 1
  Basis Set: AUG-CC-PVTZ
    Blend: AUG-CC-PVTZ
  Basis Set: (AUG-CC-PVTZ AUX)
    Blend: AUG-CC-PVTZ-JKFIT

    Orbital Energies [Eh]
    ---------------------

    Doubly Occupied:

       1A    -20.606135     2A    -11.273570     3A    -11.267608
       4A    -11.230052     5A    -11.230036     6A    -11.223410
       7A    -11.221799     8A    -11.217001     9A    -11.215407
      10A    -11.215047    11A    -11.214534    12A     -1.448050
      13A     -1.096943    14A     -1.078745    15A     -1.036583
      16A     -0.988036    17A     -0.933033    18A     -0.928524
      19A     -0.869446    20A     -0.815064    21A     -0.755242
      22A     -0.721323    23A     -0.663617    24A     -0.633588
      25A     -0.611606    26A     -0.609350    27A     -0.590720
      28A     -0.582676    29A     -0.568994    30A     -0.555027
      31A     -0.549194    32A     -0.533166    33A     -0.529344
      34A     -0.528368    35A     -0.520103    36A     -0.506158
      37A     -0.495446    38A     -0.491076    39A     -0.484851
      40A     -0.461509    41A     -0.358108    42A     -0.273877

  @DF-RHF Final Energy:  -463.00889875305290

   => Energetics <=

    Nuclear Repulsion Energy =            629.7821246632890961
    One-Electron Energy =               -1877.3173189104354606
    Two-Electron Energy =                 784.5262954940934605
    Total Energy =                       -463.0088987530529039
  Basis Set: (AUG-CC-PVTZ AUX)
    Blend: AUG-CC-PVTZ-RI
    Molecular point group: c1

    Geometry (in Angstrom), charge = 0, multiplicity = 1:

       Center              X                  Y                   Z               Mass
    ------------   -----------------  -----------------  -----------------  -----------------
         O            0.073852796012     1.018388711709     0.508467750766    15.994914619570
         C           -0.740360203988    -1.042644288291     0.127644750766    12.000000000000
         C            0.689839796012    -1.097490288291     0.062985750766    12.000000000000
         C           -1.070021203988     0.259376711709     0.395801750766    12.000000000000
         C            1.120686496012     0.220308211709     0.295533650766    12.000000000000
         C           -2.354812203988     0.997993711709     0.520479750766    12.000000000000
         C            2.486375796012     0.808214711709     0.341595750766    12.000000000000
         C           -1.681543203988    -2.185817288291    -0.087920249234    12.000000000000
         C            1.513973796012    -2.325344288291    -0.175574249234    12.000000000000
         C           -2.847179203988     1.553048711709    -0.824006249234    12.000000000000
         C            2.814555796012     1.570575711709    -0.950353249234    12.000000000000
         H            3.262374896012     0.053284911709     0.518892750766     1.007825032230
         H            2.532047796012     1.492382711709     1.198096750766     1.007825032230
         H           -2.214470203988     1.818622711709     1.235106750766     1.007825032230
         H           -3.111537203988     0.327816711709     0.949777750766     1.007825032230
         H           -1.421511203988    -3.042599288291     0.544777750766     1.007825032230
         H           -2.710535203988    -1.894120288291     0.146382750766     1.007825032230
         H           -1.663552203988    -2.530163288291    -1.130411249234     1.007825032230
         H            2.515459796012    -2.067319288291    -0.538116249234     1.007825032230
         H            1.632176796012    -2.920489288291     0.739206750766     1.007825032230
         H            1.044456796012    -2.968135288291    -0.927994249234     1.007825032230
         H            2.814329796012     0.889345711709    -1.805666249234     1.007825032230
         H            3.798573796012     2.044858711709    -0.884827249234     1.007825032230
         H            2.065316796012     2.347458711709    -1.130693249234     1.007825032230
         H           -2.097943203988     2.226023711709    -1.253052249234     1.007825032230
         H           -3.781432203988     2.108464711709    -0.700103249234     1.007825032230
         H           -3.020421203988     0.737642711709    -1.532753249234     1.007825032230

  Basis Set: AUG-CC-PVTZ
    Blend: AUG-CC-PVTZ
  Basis Set: (AUG-CC-PVTZ AUX)
    Blend: AUG-CC-PVTZ-JKFIT
	 Reference Energy          =    -463.0088987530529039 [Eh]
	 Singles Energy            =      -0.0000000000000000 [Eh]
	 Same-Spin Energy          =      -0.4976654165745857 [Eh]
	 Opposite-Spin Energy      =      -1.6671842602275218 [Eh]
	 Correlation Energy        =      -2.1648496768021075 [Eh]
	 Total Energy              =    -465.1737484298550385 [Eh]

	 ================> DF-SCS-MP2 Energies <==================
	-----------------------------------------------------------
	 SCS Same-Spin Scale       =       0.3333333333333333 [-]
	 SCS Opposite-Spin Scale   =       1.2000000000000000 [-]
	 SCS Same-Spin Energy      =      -0.1658884721915286 [Eh]
	 SCS Opposite-Spin Energy  =      -2.0006211122730262 [Eh]
	 SCS Correlation Energy    =      -2.1665095844645545 [Eh]
	 SCS Total Energy          =    -465.1754083375174673 [Eh]
	-----------------------------------------------------------

  Dipole Moment: [D]
     X:    -0.0730      Y:    -0.5826      Z:    -0.1775     Total:     0.6134

*** Psi4 exiting successfully. Buy a developer a beer!
