                               Psi4 1.3.2 release

  ==> Input File <==

--------------------------------------------------------------------------
#psi4
#
memory 32 gb

molecule  {
0 1
  O        0.0723890     1.0222580     0.5077940
  C       -0.7418240    -1.0387750     0.1269710
  C        0.6996493    -1.0972640     0.0606924
  C       -1.0714850     0.2632460     0.3951280
  C        1.1400710     0.1773790     0.3033030
  C       -2.3562760     1.0018630     0.5198060
  C        2.4903299     0.8006418     0.3380515
  C       -1.6830070    -2.1819480    -0.0885940
  C        1.5125100    -2.3214750    -0.1762480
  C       -2.8486430     1.5569180    -0.8246800
  C        2.8130920     1.5744450    -0.9510270
  H        3.2336060     0.0303330     0.5193890
  H        2.5305840     1.4962520     1.1974230
  H       -2.2159340     1.8224920     1.2344330
  H       -3.1130010     0.3316860     0.9491040
  H       -1.4229750    -3.0387300     0.5441040
  H       -2.7119990    -1.8902510     0.1457090
  H       -1.6650160    -2.5262940    -1.1310850
  H        2.5139960    -2.0634500    -0.5387900
  H        1.6307130    -2.9166200     0.7385330
  H        1.0429930    -2.9642660    -0.9286680
  H        2.8128660     0.8932150    -1.8063400
  H        3.7971100     2.0487280    -0.8855010
  H        2.0638530     2.3513280    -1.1313670
  H       -2.0994070     2.2298930    -1.2537260
  H       -3.7828960     2.1123340    -0.7007770
  H       -3.0218850     0.7415120    -1.5334270
units angstrom
no_reorient  #important for SAPT in psi4, default
symmetry c1  #important for SAPT in psi4, default
}

set PROPERTIES_ORIGIN ["COM"]
properties('MP2/aug-cc-pvtz', properties = ['dipole'])
--------------------------------------------------------------------------

    Molecular point group: c1
  Charge       = 0
  Multiplicity = 1
  Basis Set: AUG-CC-PVTZ
    Blend: AUG-CC-PVTZ
  Basis Set: (AUG-CC-PVTZ AUX)
    Blend: AUG-CC-PVTZ-JKFIT

    Orbital Energies [Eh]
    ---------------------

    Doubly Occupied:

       1A    -20.598794     2A    -11.269950     3A    -11.269697
       4A    -11.230204     5A    -11.229690     6A    -11.223026
       7A    -11.222686     8A    -11.216644     9A    -11.215711
      10A    -11.215507    11A    -11.214704    12A     -1.429531
      13A     -1.097900    14A     -1.079008    15A     -1.035915
      16A     -0.990959    17A     -0.932234    18A     -0.927644
      19A     -0.869991    20A     -0.815677    21A     -0.750056
      22A     -0.719848    23A     -0.658064    24A     -0.627329
      25A     -0.611397    26A     -0.609491    27A     -0.587362
      28A     -0.583586    29A     -0.568017    30A     -0.556284
      31A     -0.550397    32A     -0.533051    33A     -0.529296
      34A     -0.524281    35A     -0.521203    36A     -0.505686
      37A     -0.495023    38A     -0.492398    39A     -0.484836
      40A     -0.464691    41A     -0.359184    42A     -0.279542

  @DF-RHF Final Energy:  -463.01192171222067

   => Energetics <=

    Nuclear Repulsion Energy =            629.4373366607211437
    One-Electron Energy =               -1876.7055304596460701
    Two-Electron Energy =                 784.2562720867043708
    Total Energy =                       -463.0119217122206692
  Basis Set: (AUG-CC-PVTZ AUX)
    Blend: AUG-CC-PVTZ-RI
    Molecular point group: c1

    Geometry (in Angstrom), charge = 0, multiplicity = 1:

       Center              X                  Y                   Z               Mass
    ------------   -----------------  -----------------  -----------------  -----------------
         O            0.071072392931     1.023448104913     0.508148166763    15.994914619570
         C           -0.743140607069    -1.037584895087     0.127325166763    12.000000000000
         C            0.698332692931    -1.096073895087     0.061046566763    12.000000000000
         C           -1.072801607069     0.264436104913     0.395482166763    12.000000000000
         C            1.138754392931     0.178569104913     0.303657166763    12.000000000000
         C           -2.357592607069     1.003053104913     0.520160166763    12.000000000000
         C            2.489013292931     0.801831904913     0.338405666763    12.000000000000
         C           -1.684323607069    -2.180757895087    -0.088239833237    12.000000000000
         C            1.511193392931    -2.320284895087    -0.175893833237    12.000000000000
         C           -2.849959607069     1.558108104913    -0.824325833237    12.000000000000
         C            2.811775392931     1.575635104913    -0.950672833237    12.000000000000
         H            3.232289392931     0.031523104913     0.519743166763     1.007825032230
         H            2.529267392931     1.497442104913     1.197777166763     1.007825032230
         H           -2.217250607069     1.823682104913     1.234787166763     1.007825032230
         H           -3.114317607069     0.332876104913     0.949458166763     1.007825032230
         H           -1.424291607069    -3.037539895087     0.544458166763     1.007825032230
         H           -2.713315607069    -1.889060895087     0.146063166763     1.007825032230
         H           -1.666332607069    -2.525103895087    -1.130730833237     1.007825032230
         H            2.512679392931    -2.062259895087    -0.538435833237     1.007825032230
         H            1.629396392931    -2.915429895087     0.738887166763     1.007825032230
         H            1.041676392931    -2.963075895087    -0.928313833237     1.007825032230
         H            2.811549392931     0.894405104913    -1.805985833237     1.007825032230
         H            3.795793392931     2.049918104913    -0.885146833237     1.007825032230
         H            2.062536392931     2.352518104913    -1.131012833237     1.007825032230
         H           -2.100723607069     2.231083104913    -1.253371833237     1.007825032230
         H           -3.784212607069     2.113524104913    -0.700422833237     1.007825032230
         H           -3.023201607069     0.742702104913    -1.533072833237     1.007825032230

  Basis Set: AUG-CC-PVTZ
    Blend: AUG-CC-PVTZ
  Basis Set: (AUG-CC-PVTZ AUX)
    Blend: AUG-CC-PVTZ-JKFIT
	 Reference Energy          =    -463.0119217122206692 [Eh]
	 Singles Energy            =      -0.0000000000000000 [Eh]
	 Same-Spin Energy          =      -0.4969667361602154 [Eh]
	 Opposite-Spin Energy      =      -1.6670058037510209 [Eh]
	 Correlation Energy        =      -2.1639725399112364 [Eh]
	 Total Energy              =    -465.1758942521319113 [Eh]

	 ================> DF-SCS-MP2 Energies <==================
	-----------------------------------------------------------
	 SCS Same-Spin Scale       =       0.3333333333333333 [-]
	 SCS Opposite-Spin Scale   =       1.2000000000000000 [-]
	 SCS Same-Spin Energy      =      -0.1656555787200718 [Eh]
	 SCS Opposite-Spin Energy  =      -2.0004069645012250 [Eh]
	 SCS Correlation Energy    =      -2.1660625432212970 [Eh]
	 SCS Total Energy          =    -465.1779842554419702 [Eh]
	-----------------------------------------------------------

  Dipole Moment: [D]
     X:    -0.0261      Y:    -0.6645      Z:    -0.2186     Total:     0.7000

*** Psi4 exiting successfully. Buy a developer a beer!
