                               Psi4 1.3.2 release

  ==> Input File <==

--------------------------------------------------------------------------
#psi4
#
memory 32 gb

molecule  {
0 1
  O        0.0723890     1.0222580     0.5077940
  C       -0.7418240    -1.0387750     0.1269710
  C        0.6883760    -1.0936210     0.0623120
  C       -1.0607252     0.2795300     0.4122391
  C        1.1400710     0.1773790     0.3033030
  C       -2.3562760     1.0018630     0.5198060
  C        2.4849120     0.8120840     0.3409220
  C       -1.6830070    -2.1819480    -0.0885940
  C        1.5125100    -2.3214750    -0.1762480
  C       -2.8486430     1.5569180    -0.8246800
  C        2.8130920     1.5744450    -0.9510270
  H        3.2336060     0.0303330     0.5193890
  H        2.5305840     1.4962520     1.1974230
  H       -2.1977078     1.8171077     1.2367800
  H       -3.1130010     0.3316860     0.9491040
  H       -1.4229750    -3.0387300     0.5441040
  H       -2.7119990    -1.8902510     0.1457090
  H       -1.6650160    -2.5262940    -1.1310850
  H        2.5139960    -2.0634500    -0.5387900
  H        1.6307130    -2.9166200     0.7385330
  H        1.0429930    -2.9642660    -0.9286680
  H        2.8128660     0.8932150    -1.8063400
  H        3.7971100     2.0487280    -0.8855010
  H        2.0638530     2.3513280    -1.1313670
  H       -2.0994070     2.2298930    -1.2537260
  H       -3.7828960     2.1123340    -0.7007770
  H       -3.0218850     0.7415120    -1.5334270
units angstrom
no_reorient  #important for SAPT in psi4, default
symmetry c1  #important for SAPT in psi4, default
}

set PROPERTIES_ORIGIN ["COM"]
properties('MP2/aug-cc-pvtz', properties = ['dipole'])
--------------------------------------------------------------------------

    Molecular point group: c1
  Charge       = 0
  Multiplicity = 1
  Basis Set: AUG-CC-PVTZ
    Blend: AUG-CC-PVTZ
  Basis Set: (AUG-CC-PVTZ AUX)
    Blend: AUG-CC-PVTZ-JKFIT

    Orbital Energies [Eh]
    ---------------------

    Doubly Occupied:

       1A    -20.601801     2A    -11.270927     3A    -11.268674
       4A    -11.230013     5A    -11.229986     6A    -11.222981
       7A    -11.222753     8A    -11.216684     9A    -11.215928
      10A    -11.215228    11A    -11.214547    12A     -1.437443
      13A     -1.097502    14A     -1.079029    15A     -1.036182
      16A     -0.989110    17A     -0.932115    18A     -0.928595
      19A     -0.870583    20A     -0.815149    21A     -0.752038
      22A     -0.721290    23A     -0.659407    24A     -0.629490
      25A     -0.611376    26A     -0.609376    27A     -0.588122
      28A     -0.582863    29A     -0.568359    30A     -0.555582
      31A     -0.549478    32A     -0.533663    33A     -0.528874
      34A     -0.526138    35A     -0.521375    36A     -0.505751
      37A     -0.496021    38A     -0.491039    39A     -0.484972
      40A     -0.464495    41A     -0.359334    42A     -0.276719

  @DF-RHF Final Energy:  -463.01125341655955

   => Energetics <=

    Nuclear Repulsion Energy =            629.6439880084099059
    One-Electron Energy =               -1877.0885035450680789
    Two-Electron Energy =                 784.4332621200985614
    Total Energy =                       -463.0112534165596117
  Basis Set: (AUG-CC-PVTZ AUX)
    Blend: AUG-CC-PVTZ-RI
    Molecular point group: c1

    Geometry (in Angstrom), charge = 0, multiplicity = 1:

       Center              X                  Y                   Z               Mass
    ------------   -----------------  -----------------  -----------------  -----------------
         O            0.071419539522     1.021009216622     0.506428606105    15.994914619570
         C           -0.742793460478    -1.040023783378     0.125605606105    12.000000000000
         C            0.687406539522    -1.094869783378     0.060946606105    12.000000000000
         C           -1.061694660478     0.278281216622     0.410873706105    12.000000000000
         C            1.139101539522     0.176130216622     0.301937606105    12.000000000000
         C           -2.357245460478     1.000614216622     0.518440606105    12.000000000000
         C            2.483942539522     0.810835216622     0.339556606105    12.000000000000
         C           -1.683976460478    -2.183196783378    -0.089959393895    12.000000000000
         C            1.511540539522    -2.322723783378    -0.177613393895    12.000000000000
         C           -2.849612460478     1.555669216622    -0.826045393895    12.000000000000
         C            2.812122539522     1.573196216622    -0.952392393895    12.000000000000
         H            3.232636539522     0.029084216622     0.518023606105     1.007825032230
         H            2.529614539522     1.495003216622     1.196057606105     1.007825032230
         H           -2.198677260478     1.815858916622     1.235414606105     1.007825032230
         H           -3.113970460478     0.330437216622     0.947738606105     1.007825032230
         H           -1.423944460478    -3.039978783378     0.542738606105     1.007825032230
         H           -2.712968460478    -1.891499783378     0.144343606105     1.007825032230
         H           -1.665985460478    -2.527542783378    -1.132450393895     1.007825032230
         H            2.513026539522    -2.064698783378    -0.540155393895     1.007825032230
         H            1.629743539522    -2.917868783378     0.737167606105     1.007825032230
         H            1.042023539522    -2.965514783378    -0.930033393895     1.007825032230
         H            2.811896539522     0.891966216622    -1.807705393895     1.007825032230
         H            3.796140539522     2.047479216622    -0.886866393895     1.007825032230
         H            2.062883539522     2.350079216622    -1.132732393895     1.007825032230
         H           -2.100376460478     2.228644216622    -1.255091393895     1.007825032230
         H           -3.783865460478     2.111085216622    -0.702142393895     1.007825032230
         H           -3.022854460478     0.740263216622    -1.534792393895     1.007825032230

  Basis Set: AUG-CC-PVTZ
    Blend: AUG-CC-PVTZ
  Basis Set: (AUG-CC-PVTZ AUX)
    Blend: AUG-CC-PVTZ-JKFIT
	 Reference Energy          =    -463.0112534165595548 [Eh]
	 Singles Energy            =      -0.0000000000000000 [Eh]
	 Same-Spin Energy          =      -0.4973709723160881 [Eh]
	 Opposite-Spin Energy      =      -1.6671665358454999 [Eh]
	 Correlation Energy        =      -2.1645375081615881 [Eh]
	 Total Energy              =    -465.1757909247211273 [Eh]

	 ================> DF-SCS-MP2 Energies <==================
	-----------------------------------------------------------
	 SCS Same-Spin Scale       =       0.3333333333333333 [-]
	 SCS Opposite-Spin Scale   =       1.2000000000000000 [-]
	 SCS Same-Spin Energy      =      -0.1657903241053627 [Eh]
	 SCS Opposite-Spin Energy  =      -2.0005998430145997 [Eh]
	 SCS Correlation Energy    =      -2.1663901671199626 [Eh]
	 SCS Total Energy          =    -465.1776435836795258 [Eh]
	-----------------------------------------------------------

  Dipole Moment: [D]
     X:     0.0016      Y:    -0.6245      Z:    -0.2181     Total:     0.6614

*** Psi4 exiting successfully. Buy a developer a beer!
