                               Psi4 1.3.2 release

  ==> Input File <==

--------------------------------------------------------------------------
#psi4
#
memory 32 gb

molecule  {
0 1
  O        0.0723890     1.0222580     0.5077940
  C       -0.7550533    -1.0248454     0.1092788
  C        0.6883760    -1.0936210     0.0623120
  C       -1.0714850     0.2632460     0.3951280
  C        1.1400710     0.1773790     0.3033030
  C       -2.3562760     1.0018630     0.5198060
  C        2.4849120     0.8120840     0.3409220
  C       -1.6830070    -2.1819480    -0.0885940
  C        1.5125100    -2.3214750    -0.1762480
  C       -2.8486430     1.5569180    -0.8246800
  C        2.8130920     1.5744450    -0.9510270
  H        3.2336060     0.0303330     0.5193890
  H        2.5305840     1.4962520     1.1974230
  H       -2.2159340     1.8224920     1.2344330
  H       -3.1130010     0.3316860     0.9491040
  H       -1.4377173    -3.0484417     0.5367223
  H       -2.7119990    -1.8902510     0.1457090
  H       -1.6650160    -2.5262940    -1.1310850
  H        2.5139960    -2.0634500    -0.5387900
  H        1.6307130    -2.9166200     0.7385330
  H        1.0429930    -2.9642660    -0.9286680
  H        2.8128660     0.8932150    -1.8063400
  H        3.7971100     2.0487280    -0.8855010
  H        2.0638530     2.3513280    -1.1313670
  H       -2.0994070     2.2298930    -1.2537260
  H       -3.7828960     2.1123340    -0.7007770
  H       -3.0218850     0.7415120    -1.5334270
units angstrom
no_reorient  #important for SAPT in psi4, default
symmetry c1  #important for SAPT in psi4, default
}

set PROPERTIES_ORIGIN ["COM"]
properties('MP2/aug-cc-pvtz', properties = ['dipole'])
--------------------------------------------------------------------------

    Molecular point group: c1
  Charge       = 0
  Multiplicity = 1
  Basis Set: AUG-CC-PVTZ
    Blend: AUG-CC-PVTZ
  Basis Set: (AUG-CC-PVTZ AUX)
    Blend: AUG-CC-PVTZ-JKFIT

    Orbital Energies [Eh]
    ---------------------

    Doubly Occupied:

       1A    -20.597744     2A    -11.269652     3A    -11.268475
       4A    -11.230007     5A    -11.229757     6A    -11.223290
       7A    -11.222982     8A    -11.216689     9A    -11.215383
      10A    -11.215023    11A    -11.214762    12A     -1.429521
      13A     -1.097790    14A     -1.079328    15A     -1.035952
      16A     -0.990412    17A     -0.932604    18A     -0.927911
      19A     -0.869893    20A     -0.816382    21A     -0.750583
      22A     -0.719466    23A     -0.658219    24A     -0.627420
      25A     -0.611085    26A     -0.609422    27A     -0.586929
      28A     -0.583491    29A     -0.567326    30A     -0.556028
      31A     -0.548574    32A     -0.532892    33A     -0.529358
      34A     -0.523640    35A     -0.521904    36A     -0.505322
      37A     -0.495063    38A     -0.493096    39A     -0.483888
      40A     -0.465203    41A     -0.360019    42A     -0.281395

  @DF-RHF Final Energy:  -463.01253861396702

   => Energetics <=

    Nuclear Repulsion Energy =            629.5981810227043525
    One-Electron Energy =               -1877.0336807706769378
    Two-Electron Energy =                 784.4229611340056181
    Total Energy =                       -463.0125386139670809
  Basis Set: (AUG-CC-PVTZ AUX)
    Blend: AUG-CC-PVTZ-RI
    Molecular point group: c1

    Geometry (in Angstrom), charge = 0, multiplicity = 1:

       Center              X                  Y                   Z               Mass
    ------------   -----------------  -----------------  -----------------  -----------------
         O            0.073530343076     1.021223613397     0.509238520014    15.994914619570
         C           -0.753911956924    -1.025879786603     0.110723320014    12.000000000000
         C            0.689517343076    -1.094655386603     0.063756520014    12.000000000000
         C           -1.070343656924     0.262211613397     0.396572520014    12.000000000000
         C            1.141212343076     0.176344613397     0.304747520014    12.000000000000
         C           -2.355134656924     1.000828613397     0.521250520014    12.000000000000
         C            2.486053343076     0.811049613397     0.342366520014    12.000000000000
         C           -1.681865656924    -2.182982386603    -0.087149479986    12.000000000000
         C            1.513651343076    -2.322509386603    -0.174803479986    12.000000000000
         C           -2.847501656924     1.555883613397    -0.823235479986    12.000000000000
         C            2.814233343076     1.573410613397    -0.949582479986    12.000000000000
         H            3.234747343076     0.029298613397     0.520833520014     1.007825032230
         H            2.531725343076     1.495217613397     1.198867520014     1.007825032230
         H           -2.214792656924     1.821457613397     1.235877520014     1.007825032230
         H           -3.111859656924     0.330651613397     0.950548520014     1.007825032230
         H           -1.436575956924    -3.049476086603     0.538166820014     1.007825032230
         H           -2.710857656924    -1.891285386603     0.147153520014     1.007825032230
         H           -1.663874656924    -2.527328386603    -1.129640479986     1.007825032230
         H            2.515137343076    -2.064484386603    -0.537345479986     1.007825032230
         H            1.631854343076    -2.917654386603     0.739977520014     1.007825032230
         H            1.044134343076    -2.965300386603    -0.927223479986     1.007825032230
         H            2.814007343076     0.892180613397    -1.804895479986     1.007825032230
         H            3.798251343076     2.047693613397    -0.884056479986     1.007825032230
         H            2.064994343076     2.350293613397    -1.129922479986     1.007825032230
         H           -2.098265656924     2.228858613397    -1.252281479986     1.007825032230
         H           -3.781754656924     2.111299613397    -0.699332479986     1.007825032230
         H           -3.020743656924     0.740477613397    -1.531982479986     1.007825032230

  Basis Set: AUG-CC-PVTZ
    Blend: AUG-CC-PVTZ
  Basis Set: (AUG-CC-PVTZ AUX)
    Blend: AUG-CC-PVTZ-JKFIT
	 Reference Energy          =    -463.0125386139670240 [Eh]
	 Singles Energy            =      -0.0000000000000000 [Eh]
	 Same-Spin Energy          =      -0.4966586724766807 [Eh]
	 Opposite-Spin Energy      =      -1.6665867425416545 [Eh]
	 Correlation Energy        =      -2.1632454150183351 [Eh]
	 Total Energy              =    -465.1757840289853334 [Eh]

	 ================> DF-SCS-MP2 Energies <==================
	-----------------------------------------------------------
	 SCS Same-Spin Scale       =       0.3333333333333333 [-]
	 SCS Opposite-Spin Scale   =       1.2000000000000000 [-]
	 SCS Same-Spin Energy      =      -0.1655528908255602 [Eh]
	 SCS Opposite-Spin Energy  =      -1.9999040910499852 [Eh]
	 SCS Correlation Energy    =      -2.1654569818755456 [Eh]
	 SCS Total Energy          =    -465.1779955958425603 [Eh]
	-----------------------------------------------------------

  Dipole Moment: [D]
     X:    -0.0281      Y:    -0.6660      Z:    -0.2064     Total:     0.6978

*** Psi4 exiting successfully. Buy a developer a beer!
