                               Psi4 1.4a3.dev225

  ==> Input File <==

--------------------------------------------------------------------------
#psi4
#
memory 32 gb

molecule  {
0 1
  O        0.0000040    -0.9323440    -0.5200900
  C       -0.7186120     1.1388030    -0.0293360
  C        0.7186000     1.1388090    -0.0293300
  C       -1.1092540    -0.1401520    -0.3350070
  C        1.1092550    -0.1401430    -0.3349960
  C       -2.4197690    -0.8327410    -0.4659430
  C        2.4197760    -0.8327180    -0.4659420
  C       -1.5881550     2.3237520     0.2504950
  C        1.6171896     2.3633647     0.2598588
  C       -2.6404590    -1.8837440     0.6266770
  C        2.6404800    -1.8837320     0.6266650
  H        3.2127060    -0.0780420    -0.4310990
  H        2.4812700    -1.3082390    -1.4528680
  H       -2.4812630    -1.3082740    -1.4528630
  H       -3.2127060    -0.0780720    -0.4311050
  H       -1.4004860     3.1330380    -0.4637010
  H       -2.6480190     2.0627510     0.1871390
  H       -1.4034730     2.7248980     1.2531230
  H        2.6479980     2.0627640     0.1871950
  H        1.4004870     3.1330370    -0.4637120
  H        1.4034130     2.7249310     1.2531200
  H        2.6185650    -1.4170920     1.6153140
  H        3.6057420    -2.3837880     0.5012060
  H        1.8526560    -2.6398250     0.5898280
  H       -1.8526300    -2.6398320     0.5898440
  H       -3.6057190    -2.3838080     0.5012310
  H       -2.6185400    -1.4170920     1.6153210
units angstrom
no_reorient  #important for SAPT in psi4, default
symmetry c1  #important for SAPT in psi4, default
}

set PROPERTIES_ORIGIN ["COM"]
properties('MP2/aug-cc-pvtz', properties = ['dipole'])
--------------------------------------------------------------------------

    Molecular point group: c1
  Charge       = 0
  Multiplicity = 1
  Basis Set: AUG-CC-PVTZ
    Blend: AUG-CC-PVTZ
  Basis Set: (AUG-CC-PVTZ AUX)
    Blend: AUG-CC-PVTZ-JKFIT

    Orbital Energies [Eh]
    ---------------------

    Doubly Occupied:

       1A    -20.597095     2A    -11.270648     3A    -11.270528
       4A    -11.229877     5A    -11.229806     6A    -11.222431
       7A    -11.221454     8A    -11.219057     9A    -11.216772
      10A    -11.213337    11A    -11.213317    12A     -1.430324
      13A     -1.094549    14A     -1.078657    15A     -1.036459
      16A     -0.988604    17A     -0.934073    18A     -0.926840
      19A     -0.869927    20A     -0.816173    21A     -0.750964
      22A     -0.717529    23A     -0.658539    24A     -0.627770
      25A     -0.611325    26A     -0.609647    27A     -0.586543
      28A     -0.581469    29A     -0.572635    30A     -0.558005
      31A     -0.554254    32A     -0.535014    33A     -0.530594
      34A     -0.521208    35A     -0.513574    36A     -0.505402
      37A     -0.492229    38A     -0.490804    39A     -0.484524
      40A     -0.467722    41A     -0.361452    42A     -0.280104

  @DF-RHF Final Energy:  -463.01241356518949

   => Energetics <=

    Nuclear Repulsion Energy =            629.0315395630823332
    One-Electron Energy =               -1875.9054307181263539
    Two-Electron Energy =                 783.8614775898545304
    Total Energy =                       -463.0124135651894903
  Basis Set: (AUG-CC-PVTZ AUX)
    Blend: AUG-CC-PVTZ-RI
    Molecular point group: c1

    Geometry (in Angstrom), charge = 0, multiplicity = 1:

       Center              X                  Y                   Z               Mass
    ------------   -----------------  -----------------  -----------------  -----------------
         O           -0.002288163579    -0.934276964504    -0.497377906424    15.994914619570
         C           -0.720904163579     1.136870035496    -0.006623906424    12.000000000000
         C            0.716307836421     1.136876035496    -0.006617906424    12.000000000000
         C           -1.111546163579    -0.142084964504    -0.312294906424    12.000000000000
         C            1.106962836421    -0.142075964504    -0.312283906424    12.000000000000
         C           -2.422061163579    -0.834673964504    -0.443230906424    12.000000000000
         C            2.417483836421    -0.834650964504    -0.443229906424    12.000000000000
         C           -1.590447163579     2.321819035496     0.273207093576    12.000000000000
         C            1.614897436421     2.361431735496     0.282570893576    12.000000000000
         C           -2.642751163579    -1.885676964504     0.649389093576    12.000000000000
         C            2.638187836421    -1.885664964504     0.649377093576    12.000000000000
         H            3.210413836421    -0.079974964504    -0.408386906424     1.007825032230
         H            2.478977836421    -1.310171964504    -1.430155906424     1.007825032230
         H           -2.483555163579    -1.310206964504    -1.430150906424     1.007825032230
         H           -3.214998163579    -0.080004964504    -0.408392906424     1.007825032230
         H           -1.402778163579     3.131105035496    -0.440988906424     1.007825032230
         H           -2.650311163579     2.060818035496     0.209851093576     1.007825032230
         H           -1.405765163579     2.722965035496     1.275835093576     1.007825032230
         H            2.645705836421     2.060831035496     0.209907093576     1.007825032230
         H            1.398194836421     3.131104035496    -0.440999906424     1.007825032230
         H            1.401120836421     2.722998035496     1.275832093576     1.007825032230
         H            2.616272836421    -1.419024964504     1.638026093576     1.007825032230
         H            3.603449836421    -2.385720964504     0.523918093576     1.007825032230
         H            1.850363836421    -2.641757964504     0.612540093576     1.007825032230
         H           -1.854922163579    -2.641764964504     0.612556093576     1.007825032230
         H           -3.608011163579    -2.385740964504     0.523943093576     1.007825032230
         H           -2.620832163579    -1.419024964504     1.638033093576     1.007825032230

  Basis Set: AUG-CC-PVTZ
    Blend: AUG-CC-PVTZ
  Basis Set: (AUG-CC-PVTZ AUX)
    Blend: AUG-CC-PVTZ-JKFIT
	 Reference Energy          =    -463.0124135651894903 [Eh]
	 Singles Energy            =      -0.0000000000000000 [Eh]
	 Same-Spin Energy          =      -0.4965274604665877 [Eh]
	 Opposite-Spin Energy      =      -1.6665021303772722 [Eh]
	 Correlation Energy        =      -2.1630295908438599 [Eh]
	 Total Energy              =    -465.1754431560333387 [Eh]

	 ================> DF-SCS-MP2 Energies <==================
	-----------------------------------------------------------
	 SCS Same-Spin Scale       =       0.3333333333333333 [-]
	 SCS Opposite-Spin Scale   =       1.2000000000000000 [-]
	 SCS Same-Spin Energy      =      -0.1655091534888626 [Eh]
	 SCS Opposite-Spin Energy  =      -1.9998025564527266 [Eh]
	 SCS Correlation Energy    =      -2.1653117099415891 [Eh]
	 SCS Total Energy          =    -465.1777252751310812 [Eh]
	-----------------------------------------------------------

  Dipole Moment: [D]
     X:     0.0069      Y:     0.6552      Z:     0.2279     Total:     0.6938

*** Psi4 exiting successfully. Buy a developer a beer!
