                               Psi4 1.3.2 release

  ==> Input File <==

--------------------------------------------------------------------------
#psi4
#
memory 32 gb

molecule  {
0 1
  O        0.0723890     1.0222580     0.5077940
  C       -0.7418240    -1.0387750     0.1269710
  C        0.6883760    -1.0936210     0.0623120
  C       -1.0713887     0.2656793     0.3823802
  C        1.1400710     0.1773790     0.3033030
  C       -2.3562760     1.0018630     0.5198060
  C        2.4849120     0.8120840     0.3409220
  C       -1.6830070    -2.1819480    -0.0885940
  C        1.5125100    -2.3214750    -0.1762480
  C       -2.8378733     1.5517006    -0.8307111
  C        2.8130920     1.5744450    -0.9510270
  H        3.2336060     0.0303330     0.5193890
  H        2.5305840     1.4962520     1.1974230
  H       -2.2159340     1.8224920     1.2344330
  H       -3.1130010     0.3316860     0.9491040
  H       -1.4229750    -3.0387300     0.5441040
  H       -2.7119990    -1.8902510     0.1457090
  H       -1.6650160    -2.5262940    -1.1310850
  H        2.5139960    -2.0634500    -0.5387900
  H        1.6307130    -2.9166200     0.7385330
  H        1.0429930    -2.9642660    -0.9286680
  H        2.8128660     0.8932150    -1.8063400
  H        3.7971100     2.0487280    -0.8855010
  H        2.0638530     2.3513280    -1.1313670
  H       -2.0994070     2.2298930    -1.2537260
  H       -3.7828960     2.1123340    -0.7007770
  H       -3.0218850     0.7415120    -1.5334270
units angstrom
no_reorient  #important for SAPT in psi4, default
symmetry c1  #important for SAPT in psi4, default
}

set PROPERTIES_ORIGIN ["COM"]
properties('MP2/aug-cc-pvtz', properties = ['dipole'])
--------------------------------------------------------------------------

    Molecular point group: c1
  Charge       = 0
  Multiplicity = 1
  Basis Set: AUG-CC-PVTZ
    Blend: AUG-CC-PVTZ
  Basis Set: (AUG-CC-PVTZ AUX)
    Blend: AUG-CC-PVTZ-JKFIT

    Orbital Energies [Eh]
    ---------------------

    Doubly Occupied:

       1A    -20.598670     2A    -11.269563     3A    -11.269239
       4A    -11.230264     5A    -11.229914     6A    -11.223163
       7A    -11.222828     8A    -11.216110     9A    -11.215460
      10A    -11.214912    11A    -11.214615    12A     -1.429835
      13A     -1.098724    14A     -1.079048    15A     -1.036360
      16A     -0.990001    17A     -0.932296    18A     -0.927354
      19A     -0.869915    20A     -0.815644    21A     -0.749462
      22A     -0.721799    23A     -0.658121    24A     -0.627455
      25A     -0.611076    26A     -0.610350    27A     -0.586869
      28A     -0.583641    29A     -0.567664    30A     -0.555781
      31A     -0.549844    32A     -0.532037    33A     -0.527166
      34A     -0.523823    35A     -0.521652    36A     -0.506108
      37A     -0.496251    38A     -0.491607    39A     -0.484656
      40A     -0.466945    41A     -0.360697    42A     -0.278714

  @DF-RHF Final Energy:  -463.01174474693323

   => Energetics <=

    Nuclear Repulsion Energy =            629.7318177302906861
    One-Electron Energy =               -1877.2958629788356575
    Two-Electron Energy =                 784.5523005016117395
    Total Energy =                       -463.0117447469332319
  Basis Set: (AUG-CC-PVTZ AUX)
    Blend: AUG-CC-PVTZ-RI
    Molecular point group: c1

    Geometry (in Angstrom), charge = 0, multiplicity = 1:

       Center              X                  Y                   Z               Mass
    ------------   -----------------  -----------------  -----------------  -----------------
         O            0.071531914014     1.022477732258     0.509275339194    15.994914619570
         C           -0.742681085986    -1.038555267742     0.128452339194    12.000000000000
         C            0.687518914014    -1.093401267742     0.063793339194    12.000000000000
         C           -1.072245785986     0.265899032258     0.383861539194    12.000000000000
         C            1.139213914014     0.177598732258     0.304784339194    12.000000000000
         C           -2.357133085986     1.002082732258     0.521287339194    12.000000000000
         C            2.484054914014     0.812303732258     0.342403339194    12.000000000000
         C           -1.683864085986    -2.181728267742    -0.087112660806    12.000000000000
         C            1.511652914014    -2.321255267742    -0.174766660806    12.000000000000
         C           -2.838730385986     1.551920332258    -0.829229760806    12.000000000000
         C            2.812234914014     1.574664732258    -0.949545660806    12.000000000000
         H            3.232748914014     0.030552732258     0.520870339194     1.007825032230
         H            2.529726914014     1.496471732258     1.198904339194     1.007825032230
         H           -2.216791085986     1.822711732258     1.235914339194     1.007825032230
         H           -3.113858085986     0.331905732258     0.950585339194     1.007825032230
         H           -1.423832085986    -3.038510267742     0.545585339194     1.007825032230
         H           -2.712856085986    -1.890031267742     0.147190339194     1.007825032230
         H           -1.665873085986    -2.526074267742    -1.129603660806     1.007825032230
         H            2.513138914014    -2.063230267742    -0.537308660806     1.007825032230
         H            1.629855914014    -2.916400267742     0.740014339194     1.007825032230
         H            1.042135914014    -2.964046267742    -0.927186660806     1.007825032230
         H            2.812008914014     0.893434732258    -1.804858660806     1.007825032230
         H            3.796252914014     2.048947732258    -0.884019660806     1.007825032230
         H            2.062995914014     2.351547732258    -1.129885660806     1.007825032230
         H           -2.100264085986     2.230112732258    -1.252244660806     1.007825032230
         H           -3.783753085986     2.112553732258    -0.699295660806     1.007825032230
         H           -3.022742085986     0.741731732258    -1.531945660806     1.007825032230

  Basis Set: AUG-CC-PVTZ
    Blend: AUG-CC-PVTZ
  Basis Set: (AUG-CC-PVTZ AUX)
    Blend: AUG-CC-PVTZ-JKFIT
	 Reference Energy          =    -463.0117447469332319 [Eh]
	 Singles Energy            =      -0.0000000000000000 [Eh]
	 Same-Spin Energy          =      -0.4971109932330368 [Eh]
	 Opposite-Spin Energy      =      -1.6671529594337708 [Eh]
	 Correlation Energy        =      -2.1642639526668077 [Eh]
	 Total Energy              =    -465.1760086996000609 [Eh]

	 ================> DF-SCS-MP2 Energies <==================
	-----------------------------------------------------------
	 SCS Same-Spin Scale       =       0.3333333333333333 [-]
	 SCS Opposite-Spin Scale   =       1.2000000000000000 [-]
	 SCS Same-Spin Energy      =      -0.1657036644110123 [Eh]
	 SCS Opposite-Spin Energy  =      -2.0005835513205250 [Eh]
	 SCS Correlation Energy    =      -2.1662872157315372 [Eh]
	 SCS Total Energy          =    -465.1780319626647611 [Eh]
	-----------------------------------------------------------

  Dipole Moment: [D]
     X:    -0.0325      Y:    -0.6528      Z:    -0.2101     Total:     0.6866

*** Psi4 exiting successfully. Buy a developer a beer!
