                               Psi4 1.3.2 release

  ==> Input File <==

--------------------------------------------------------------------------
#psi4
#
memory 32 gb

molecule  {
0 1
  O        0.0723890     1.0222580     0.5077940
  C       -0.7418240    -1.0387750     0.1269710
  C        0.6883760    -1.0936210     0.0623120
  C       -1.0714850     0.2632460     0.3951280
  C        1.0946488     0.1920503     0.3063158
  C       -2.3562760     1.0018630     0.5198060
  C        2.4849120     0.8120840     0.3409220
  C       -1.6830070    -2.1819480    -0.0885940
  C        1.4683558    -2.3490140    -0.1813128
  C       -2.8486430     1.5569180    -0.8246800
  C        2.8130920     1.5744450    -0.9510270
  H        3.2336060     0.0303330     0.5193890
  H        2.5305840     1.4962520     1.1974230
  H       -2.2159340     1.8224920     1.2344330
  H       -3.1130010     0.3316860     0.9491040
  H       -1.4229750    -3.0387300     0.5441040
  H       -2.7119990    -1.8902510     0.1457090
  H       -1.6650160    -2.5262940    -1.1310850
  H        2.5139960    -2.0634500    -0.5387900
  H        1.6307130    -2.9166200     0.7385330
  H        1.0429930    -2.9642660    -0.9286680
  H        2.8128660     0.8932150    -1.8063400
  H        3.7971100     2.0487280    -0.8855010
  H        2.0638530     2.3513280    -1.1313670
  H       -2.0994070     2.2298930    -1.2537260
  H       -3.7828960     2.1123340    -0.7007770
  H       -3.0218850     0.7415120    -1.5334270
units angstrom
no_reorient  #important for SAPT in psi4, default
symmetry c1  #important for SAPT in psi4, default
}

set PROPERTIES_ORIGIN ["COM"]
properties('MP2/aug-cc-pvtz', properties = ['dipole'])
--------------------------------------------------------------------------

    Molecular point group: c1
  Charge       = 0
  Multiplicity = 1
  Basis Set: AUG-CC-PVTZ
    Blend: AUG-CC-PVTZ
  Basis Set: (AUG-CC-PVTZ AUX)
    Blend: AUG-CC-PVTZ-JKFIT

    Orbital Energies [Eh]
    ---------------------

    Doubly Occupied:

       1A    -20.605680     2A    -11.271330     3A    -11.267111
       4A    -11.230464     5A    -11.229689     6A    -11.223535
       7A    -11.223429     8A    -11.215830     9A    -11.215018
      10A    -11.214076    11A    -11.212432    12A     -1.449880
      13A     -1.100663    14A     -1.076182    15A     -1.033594
      16A     -0.988611    17A     -0.935291    18A     -0.929966
      19A     -0.866992    20A     -0.814722    21A     -0.757805
      22A     -0.721283    23A     -0.662154    24A     -0.635915
      25A     -0.609935    26A     -0.607318    27A     -0.587875
      28A     -0.583460    29A     -0.573348    30A     -0.558817
      31A     -0.544580    32A     -0.535904    33A     -0.530765
      34A     -0.526228    35A     -0.520035    36A     -0.505550
      37A     -0.493966    38A     -0.488512    39A     -0.484753
      40A     -0.458567    41A     -0.361669    42A     -0.278653

  @DF-RHF Final Energy:  -463.00818972979107

   => Energetics <=

    Nuclear Repulsion Energy =            630.1700939920671090
    One-Electron Energy =               -1878.0933965722001631
    Two-Electron Energy =                 784.9151128503420978
    Total Energy =                       -463.0081897297910700
  Basis Set: (AUG-CC-PVTZ AUX)
    Blend: AUG-CC-PVTZ-RI
    Molecular point group: c1

    Geometry (in Angstrom), charge = 0, multiplicity = 1:

       Center              X                  Y                   Z               Mass
    ------------   -----------------  -----------------  -----------------  -----------------
         O            0.079455315853     1.023273177357     0.507955837169    15.994914619570
         C           -0.734757684147    -1.037759822643     0.127132837169    12.000000000000
         C            0.695442315853    -1.092605822643     0.062473837169    12.000000000000
         C           -1.064418684147     0.264261177357     0.395289837169    12.000000000000
         C            1.101715115853     0.193065477357     0.306477637169    12.000000000000
         C           -2.349209684147     1.002878177357     0.519967837169    12.000000000000
         C            2.491978315853     0.813099177357     0.341083837169    12.000000000000
         C           -1.675940684147    -2.180932822643    -0.088432162831    12.000000000000
         C            1.475422115853    -2.347998822643    -0.181150962831    12.000000000000
         C           -2.841576684147     1.557933177357    -0.824518162831    12.000000000000
         C            2.820158315853     1.575460177357    -0.950865162831    12.000000000000
         H            3.240672315853     0.031348177357     0.519550837169     1.007825032230
         H            2.537650315853     1.497267177357     1.197584837169     1.007825032230
         H           -2.208867684147     1.823507177357     1.234594837169     1.007825032230
         H           -3.105934684147     0.332701177357     0.949265837169     1.007825032230
         H           -1.415908684147    -3.037714822643     0.544265837169     1.007825032230
         H           -2.704932684147    -1.889235822643     0.145870837169     1.007825032230
         H           -1.657949684147    -2.525278822643    -1.130923162831     1.007825032230
         H            2.521062315853    -2.062434822643    -0.538628162831     1.007825032230
         H            1.637779315853    -2.915604822643     0.738694837169     1.007825032230
         H            1.050059315853    -2.963250822643    -0.928506162831     1.007825032230
         H            2.819932315853     0.894230177357    -1.806178162831     1.007825032230
         H            3.804176315853     2.049743177357    -0.885339162831     1.007825032230
         H            2.070919315853     2.352343177357    -1.131205162831     1.007825032230
         H           -2.092340684147     2.230908177357    -1.253564162831     1.007825032230
         H           -3.775829684147     2.113349177357    -0.700615162831     1.007825032230
         H           -3.014818684147     0.742527177357    -1.533265162831     1.007825032230

  Basis Set: AUG-CC-PVTZ
    Blend: AUG-CC-PVTZ
  Basis Set: (AUG-CC-PVTZ AUX)
    Blend: AUG-CC-PVTZ-JKFIT
	 Reference Energy          =    -463.0081897297910700 [Eh]
	 Singles Energy            =      -0.0000000000000000 [Eh]
	 Same-Spin Energy          =      -0.4967714327961972 [Eh]
	 Opposite-Spin Energy      =      -1.6661785129398459 [Eh]
	 Correlation Energy        =      -2.1629499457360430 [Eh]
	 Total Energy              =    -465.1711396755271153 [Eh]

	 ================> DF-SCS-MP2 Energies <==================
	-----------------------------------------------------------
	 SCS Same-Spin Scale       =       0.3333333333333333 [-]
	 SCS Opposite-Spin Scale   =       1.2000000000000000 [-]
	 SCS Same-Spin Energy      =      -0.1655904775987324 [Eh]
	 SCS Opposite-Spin Energy  =      -1.9994142155278150 [Eh]
	 SCS Correlation Energy    =      -2.1650046931265474 [Eh]
	 SCS Total Energy          =    -465.1731944229176179 [Eh]
	-----------------------------------------------------------

  Dipole Moment: [D]
     X:    -0.1140      Y:    -0.6453      Z:    -0.1987     Total:     0.6848

*** Psi4 exiting successfully. Buy a developer a beer!
