                               Psi4 1.3.2 release

  ==> Input File <==

--------------------------------------------------------------------------
#psi4
#
memory 32 gb

molecule  {
0 1
  O        0.0723890     1.0222580     0.5077940
  C       -0.7418240    -1.0387750     0.1269710
  C        0.6883760    -1.0936210     0.0623120
  C       -1.0579427     0.2438593     0.3908059
  C        1.1247583     0.1591255     0.3001815
  C       -2.3562760     1.0018630     0.5198060
  C        2.4849120     0.8120840     0.3409220
  C       -1.6830070    -2.1819480    -0.0885940
  C        1.5125100    -2.3214750    -0.1762480
  C       -2.8486430     1.5569180    -0.8246800
  C        2.8130920     1.5744450    -0.9510270
  H        3.2336060     0.0303330     0.5193890
  H        2.5305840     1.4962520     1.1974230
  H       -2.2159340     1.8224920     1.2344330
  H       -3.1130010     0.3316860     0.9491040
  H       -1.4229750    -3.0387300     0.5441040
  H       -2.7119990    -1.8902510     0.1457090
  H       -1.6650160    -2.5262940    -1.1310850
  H        2.5139960    -2.0634500    -0.5387900
  H        1.6307130    -2.9166200     0.7385330
  H        1.0429930    -2.9642660    -0.9286680
  H        2.8128660     0.8932150    -1.8063400
  H        3.7971100     2.0487280    -0.8855010
  H        2.0638530     2.3513280    -1.1313670
  H       -2.0994070     2.2298930    -1.2537260
  H       -3.7828960     2.1123340    -0.7007770
  H       -3.0218850     0.7415120    -1.5334270
units angstrom
no_reorient  #important for SAPT in psi4, default
symmetry c1  #important for SAPT in psi4, default
}

set PROPERTIES_ORIGIN ["COM"]
properties('MP2/aug-cc-pvtz', properties = ['dipole'])
--------------------------------------------------------------------------

    Molecular point group: c1
  Charge       = 0
  Multiplicity = 1
  Basis Set: AUG-CC-PVTZ
    Blend: AUG-CC-PVTZ
  Basis Set: (AUG-CC-PVTZ AUX)
    Blend: AUG-CC-PVTZ-JKFIT

    Orbital Energies [Eh]
    ---------------------

    Doubly Occupied:

       1A    -20.597892     2A    -11.267691     3A    -11.267517
       4A    -11.230558     5A    -11.230407     6A    -11.223846
       7A    -11.223523     8A    -11.215060     9A    -11.214251
      10A    -11.213744    11A    -11.212669    12A     -1.431219
      13A     -1.104079    14A     -1.075303    15A     -1.032970
      16A     -0.991557    17A     -0.936471    18A     -0.926478
      19A     -0.866553    20A     -0.816256    21A     -0.750961
      22A     -0.722373    23A     -0.657265    24A     -0.629055
      25A     -0.609023    26A     -0.607901    27A     -0.584416
      28A     -0.583587    29A     -0.567938    30A     -0.556395
      31A     -0.550249    32A     -0.533280    33A     -0.528255
      34A     -0.526869    35A     -0.520235    36A     -0.504857
      37A     -0.493792    38A     -0.490684    39A     -0.481350
      40A     -0.467285    41A     -0.365436    42A     -0.284607

  @DF-RHF Final Energy:  -463.01291486607994

   => Energetics <=

    Nuclear Repulsion Energy =            630.0393320676687381
    One-Electron Energy =               -1877.9167827139394831
    Two-Electron Energy =                 784.8645357801908631
    Total Energy =                       -463.0129148660798819
  Basis Set: (AUG-CC-PVTZ AUX)
    Blend: AUG-CC-PVTZ-RI
    Molecular point group: c1

    Geometry (in Angstrom), charge = 0, multiplicity = 1:

       Center              X                  Y                   Z               Mass
    ------------   -----------------  -----------------  -----------------  -----------------
         O            0.072528736820     1.025227356788     0.508381153702    15.994914619570
         C           -0.741684263180    -1.035805643212     0.127558153702    12.000000000000
         C            0.688515736820    -1.090651643212     0.062899153702    12.000000000000
         C           -1.057802963180     0.246828656788     0.391393053702    12.000000000000
         C            1.124898036820     0.162094856788     0.300768653702    12.000000000000
         C           -2.356136263180     1.004832356788     0.520393153702    12.000000000000
         C            2.485051736820     0.815053356788     0.341509153702    12.000000000000
         C           -1.682867263180    -2.178978643212    -0.088006846298    12.000000000000
         C            1.512649736820    -2.318505643212    -0.175660846298    12.000000000000
         C           -2.848503263180     1.559887356788    -0.824092846298    12.000000000000
         C            2.813231736820     1.577414356788    -0.950439846298    12.000000000000
         H            3.233745736820     0.033302356788     0.519976153702     1.007825032230
         H            2.530723736820     1.499221356788     1.198010153702     1.007825032230
         H           -2.215794263180     1.825461356788     1.235020153702     1.007825032230
         H           -3.112861263180     0.334655356788     0.949691153702     1.007825032230
         H           -1.422835263180    -3.035760643212     0.544691153702     1.007825032230
         H           -2.711859263180    -1.887281643212     0.146296153702     1.007825032230
         H           -1.664876263180    -2.523324643212    -1.130497846298     1.007825032230
         H            2.514135736820    -2.060480643212    -0.538202846298     1.007825032230
         H            1.630852736820    -2.913650643212     0.739120153702     1.007825032230
         H            1.043132736820    -2.961296643212    -0.928080846298     1.007825032230
         H            2.813005736820     0.896184356788    -1.805752846298     1.007825032230
         H            3.797249736820     2.051697356788    -0.884913846298     1.007825032230
         H            2.063992736820     2.354297356788    -1.130779846298     1.007825032230
         H           -2.099267263180     2.232862356788    -1.253138846298     1.007825032230
         H           -3.782756263180     2.115303356788    -0.700189846298     1.007825032230
         H           -3.021745263180     0.744481356788    -1.532839846298     1.007825032230

  Basis Set: AUG-CC-PVTZ
    Blend: AUG-CC-PVTZ
  Basis Set: (AUG-CC-PVTZ AUX)
    Blend: AUG-CC-PVTZ-JKFIT
	 Reference Energy          =    -463.0129148660799387 [Eh]
	 Singles Energy            =      -0.0000000000000000 [Eh]
	 Same-Spin Energy          =      -0.4958735705735440 [Eh]
	 Opposite-Spin Energy      =      -1.6656659342268481 [Eh]
	 Correlation Energy        =      -2.1615395048003920 [Eh]
	 Total Energy              =    -465.1744543708803121 [Eh]

	 ================> DF-SCS-MP2 Energies <==================
	-----------------------------------------------------------
	 SCS Same-Spin Scale       =       0.3333333333333333 [-]
	 SCS Opposite-Spin Scale   =       1.2000000000000000 [-]
	 SCS Same-Spin Energy      =      -0.1652911901911813 [Eh]
	 SCS Opposite-Spin Energy  =      -1.9987991210722176 [Eh]
	 SCS Correlation Energy    =      -2.1640903112633989 [Eh]
	 SCS Total Energy          =    -465.1770051773433465 [Eh]
	-----------------------------------------------------------

  Dipole Moment: [D]
     X:    -0.0357      Y:    -0.7203      Z:    -0.2273     Total:     0.7562

*** Psi4 exiting successfully. Buy a developer a beer!
