                               Psi4 1.3.2 release

  ==> Input File <==

--------------------------------------------------------------------------
#psi4
#
memory 32 gb

molecule  {
0 1
  O        0.0723890     1.0222580     0.5077940
  C       -0.7433476    -1.1122809     0.1121130
  C        0.6883760    -1.0936210     0.0623120
  C       -1.0714850     0.2632460     0.3951280
  C        1.2071051     0.1529473     0.2958366
  C       -2.3562760     1.0018630     0.5198060
  C        2.4849120     0.8120840     0.3409220
  C       -1.6830070    -2.1819480    -0.0885940
  C        1.5125100    -2.3214750    -0.1762480
  C       -2.8486430     1.5569180    -0.8246800
  C        2.8130920     1.5744450    -0.9510270
  H        3.2336060     0.0303330     0.5193890
  H        2.5305840     1.4962520     1.1974230
  H       -2.2159340     1.8224920     1.2344330
  H       -3.1130010     0.3316860     0.9491040
  H       -1.4229750    -3.0387300     0.5441040
  H       -2.7119990    -1.8902510     0.1457090
  H       -1.6650160    -2.5262940    -1.1310850
  H        2.5139960    -2.0634500    -0.5387900
  H        1.6307130    -2.9166200     0.7385330
  H        1.0429930    -2.9642660    -0.9286680
  H        2.8128660     0.8932150    -1.8063400
  H        3.7971100     2.0487280    -0.8855010
  H        2.0638530     2.3513280    -1.1313670
  H       -2.0994070     2.2298930    -1.2537260
  H       -3.7828960     2.1123340    -0.7007770
  H       -3.0218850     0.7415120    -1.5334270
units angstrom
no_reorient  #important for SAPT in psi4, default
symmetry c1  #important for SAPT in psi4, default
}

set PROPERTIES_ORIGIN ["COM"]
properties('MP2/aug-cc-pvtz', properties = ['dipole'])
--------------------------------------------------------------------------

    Molecular point group: c1
  Charge       = 0
  Multiplicity = 1
  Basis Set: AUG-CC-PVTZ
    Blend: AUG-CC-PVTZ
  Basis Set: (AUG-CC-PVTZ AUX)
    Blend: AUG-CC-PVTZ-JKFIT

    Orbital Energies [Eh]
    ---------------------

    Doubly Occupied:

       1A    -20.593463     2A    -11.283141     3A    -11.268014
       4A    -11.231142     5A    -11.229043     6A    -11.223734
       7A    -11.221036     8A    -11.220913     9A    -11.219376
      10A    -11.216572    11A    -11.214786    12A     -1.403968
      13A     -1.099786    14A     -1.081548    15A     -1.040160
      16A     -0.996983    17A     -0.927888    18A     -0.922921
      19A     -0.874297    20A     -0.812841    21A     -0.738343
      22A     -0.721509    23A     -0.654096    24A     -0.619435
      25A     -0.616486    26A     -0.610439    27A     -0.590485
      28A     -0.582771    29A     -0.568162    30A     -0.557706
      31A     -0.556731    32A     -0.535344    33A     -0.527642
      34A     -0.524585    35A     -0.515701    36A     -0.503926
      37A     -0.500152    38A     -0.495546    39A     -0.480562
      40A     -0.462844    41A     -0.356548    42A     -0.269759

  @DF-RHF Final Energy:  -462.99048555826721

   => Energetics <=

    Nuclear Repulsion Energy =            627.9398745868787728
    One-Electron Energy =               -1873.7199541379022776
    Two-Electron Energy =                 782.7895939927561813
    Total Energy =                       -462.9904855582672099
  Basis Set: (AUG-CC-PVTZ AUX)
    Blend: AUG-CC-PVTZ-RI
    Molecular point group: c1

    Geometry (in Angstrom), charge = 0, multiplicity = 1:

       Center              X                  Y                   Z               Mass
    ------------   -----------------  -----------------  -----------------  -----------------
         O            0.067221280937     1.029983919057     0.509555026072    15.994914619570
         C           -0.748515319063    -1.104554980943     0.113874026072    12.000000000000
         C            0.683208280937    -1.085895080943     0.064073026072    12.000000000000
         C           -1.076652719063     0.270971919057     0.396889026072    12.000000000000
         C            1.201937380937     0.160673219057     0.297597626072    12.000000000000
         C           -2.361443719063     1.009588919057     0.521567026072    12.000000000000
         C            2.479744280937     0.819809919057     0.342683026072    12.000000000000
         C           -1.688174719063    -2.174222080943    -0.086832973928    12.000000000000
         C            1.507342280937    -2.313749080943    -0.174486973928    12.000000000000
         C           -2.853810719063     1.564643919057    -0.822918973928    12.000000000000
         C            2.807924280937     1.582170919057    -0.949265973928    12.000000000000
         H            3.228438280937     0.038058919057     0.521150026072     1.007825032230
         H            2.525416280937     1.503977919057     1.199184026072     1.007825032230
         H           -2.221101719063     1.830217919057     1.236194026072     1.007825032230
         H           -3.118168719063     0.339411919057     0.950865026072     1.007825032230
         H           -1.428142719063    -3.031004080943     0.545865026072     1.007825032230
         H           -2.717166719063    -1.882525080943     0.147470026072     1.007825032230
         H           -1.670183719063    -2.518568080943    -1.129323973928     1.007825032230
         H            2.508828280937    -2.055724080943    -0.537028973928     1.007825032230
         H            1.625545280937    -2.908894080943     0.740294026072     1.007825032230
         H            1.037825280937    -2.956540080943    -0.926906973928     1.007825032230
         H            2.807698280937     0.900940919057    -1.804578973928     1.007825032230
         H            3.791942280937     2.056453919057    -0.883739973928     1.007825032230
         H            2.058685280937     2.359053919057    -1.129605973928     1.007825032230
         H           -2.104574719063     2.237618919057    -1.251964973928     1.007825032230
         H           -3.788063719063     2.120059919057    -0.699015973928     1.007825032230
         H           -3.027052719063     0.749237919057    -1.531665973928     1.007825032230

  Basis Set: AUG-CC-PVTZ
    Blend: AUG-CC-PVTZ
  Basis Set: (AUG-CC-PVTZ AUX)
    Blend: AUG-CC-PVTZ-JKFIT
	 Reference Energy          =    -462.9904855582672099 [Eh]
	 Singles Energy            =      -0.0000000000000000 [Eh]
	 Same-Spin Energy          =      -0.5001639343254514 [Eh]
	 Opposite-Spin Energy      =      -1.6723937778513784 [Eh]
	 Correlation Energy        =      -2.1725577121768298 [Eh]
	 Total Energy              =    -465.1630432704440636 [Eh]

	 ================> DF-SCS-MP2 Energies <==================
	-----------------------------------------------------------
	 SCS Same-Spin Scale       =       0.3333333333333333 [-]
	 SCS Opposite-Spin Scale   =       1.2000000000000000 [-]
	 SCS Same-Spin Energy      =      -0.1667213114418171 [Eh]
	 SCS Opposite-Spin Energy  =      -2.0068725334216539 [Eh]
	 SCS Correlation Energy    =      -2.1735938448634711 [Eh]
	 SCS Total Energy          =    -465.1640794031306996 [Eh]
	-----------------------------------------------------------

  Dipole Moment: [D]
     X:     0.0484      Y:    -0.6856      Z:    -0.2364     Total:     0.7268

*** Psi4 exiting successfully. Buy a developer a beer!
