                               Psi4 1.3.2 release

  ==> Input File <==

--------------------------------------------------------------------------
#psi4
#
memory 32 gb

molecule  {
0 1
  O        0.0877034     1.0405012     0.5109671
  C       -0.7418240    -1.0387750     0.1269710
  C        0.7110093    -1.1010185     0.0600914
  C       -1.0714850     0.2632460     0.3951280
  C        1.1400710     0.1773790     0.3033030
  C       -2.3562760     1.0018630     0.5198060
  C        2.4849120     0.8120840     0.3409220
  C       -1.6830070    -2.1819480    -0.0885940
  C        1.5125100    -2.3214750    -0.1762480
  C       -2.8486430     1.5569180    -0.8246800
  C        2.8130920     1.5744450    -0.9510270
  H        3.2336060     0.0303330     0.5193890
  H        2.5305840     1.4962520     1.1974230
  H       -2.2159340     1.8224920     1.2344330
  H       -3.1130010     0.3316860     0.9491040
  H       -1.4229750    -3.0387300     0.5441040
  H       -2.7119990    -1.8902510     0.1457090
  H       -1.6650160    -2.5262940    -1.1310850
  H        2.5139960    -2.0634500    -0.5387900
  H        1.6307130    -2.9166200     0.7385330
  H        1.0429930    -2.9642660    -0.9286680
  H        2.8128660     0.8932150    -1.8063400
  H        3.7971100     2.0487280    -0.8855010
  H        2.0638530     2.3513280    -1.1313670
  H       -2.0994070     2.2298930    -1.2537260
  H       -3.7828960     2.1123340    -0.7007770
  H       -3.0218850     0.7415120    -1.5334270
units angstrom
no_reorient  #important for SAPT in psi4, default
symmetry c1  #important for SAPT in psi4, default
}

set PROPERTIES_ORIGIN ["COM"]
properties('MP2/aug-cc-pvtz', properties = ['dipole'])
--------------------------------------------------------------------------

    Molecular point group: c1
  Charge       = 0
  Multiplicity = 1
  Basis Set: AUG-CC-PVTZ
    Blend: AUG-CC-PVTZ
  Basis Set: (AUG-CC-PVTZ AUX)
    Blend: AUG-CC-PVTZ-JKFIT

    Orbital Energies [Eh]
    ---------------------

    Doubly Occupied:

       1A    -20.598113     2A    -11.271156     3A    -11.271025
       4A    -11.230365     5A    -11.228503     6A    -11.224336
       7A    -11.222730     8A    -11.219769     9A    -11.216905
      10A    -11.215350    11A    -11.214209    12A     -1.421829
      13A     -1.098442    14A     -1.078198    15A     -1.035492
      16A     -0.992550    17A     -0.933080    18A     -0.926149
      19A     -0.869211    20A     -0.814399    21A     -0.747062
      22A     -0.719129    23A     -0.655977    24A     -0.625069
      25A     -0.611106    26A     -0.609697    27A     -0.585222
      28A     -0.584314    29A     -0.568327    30A     -0.557393
      31A     -0.551680    32A     -0.532405    33A     -0.531595
      34A     -0.524634    35A     -0.521758    36A     -0.504834
      37A     -0.494625    38A     -0.492365    39A     -0.482975
      40A     -0.463930    41A     -0.359573    42A     -0.280450

  @DF-RHF Final Energy:  -463.00992359280616

   => Energetics <=

    Nuclear Repulsion Energy =            628.7735929940243977
    One-Electron Energy =               -1875.3951703712693870
    Two-Electron Energy =                 783.6116537844388859
    Total Energy =                       -463.0099235928062171
  Basis Set: (AUG-CC-PVTZ AUX)
    Blend: AUG-CC-PVTZ-RI
    Molecular point group: c1

    Geometry (in Angstrom), charge = 0, multiplicity = 1:

       Center              X                  Y                   Z               Mass
    ------------   -----------------  -----------------  -----------------  -----------------
         O            0.084307792924     1.039166649801     0.510808596473    15.994914619570
         C           -0.745219607076    -1.040109550199     0.126812496473    12.000000000000
         C            0.707613692924    -1.102353050199     0.059932896473    12.000000000000
         C           -1.074880607076     0.261911449801     0.394969496473    12.000000000000
         C            1.136675392924     0.176044449801     0.303144496473    12.000000000000
         C           -2.359671607076     1.000528449801     0.519647496473    12.000000000000
         C            2.481516392924     0.810749449801     0.340763496473    12.000000000000
         C           -1.686402607076    -2.183282550199    -0.088752503527    12.000000000000
         C            1.509114392924    -2.322809550199    -0.176406503527    12.000000000000
         C           -2.852038607076     1.555583449801    -0.824838503527    12.000000000000
         C            2.809696392924     1.573110449801    -0.951185503527    12.000000000000
         H            3.230210392924     0.028998449801     0.519230496473     1.007825032230
         H            2.527188392924     1.494917449801     1.197264496473     1.007825032230
         H           -2.219329607076     1.821157449801     1.234274496473     1.007825032230
         H           -3.116396607076     0.330351449801     0.948945496473     1.007825032230
         H           -1.426370607076    -3.040064550199     0.543945496473     1.007825032230
         H           -2.715394607076    -1.891585550199     0.145550496473     1.007825032230
         H           -1.668411607076    -2.527628550199    -1.131243503527     1.007825032230
         H            2.510600392924    -2.064784550199    -0.538948503527     1.007825032230
         H            1.627317392924    -2.917954550199     0.738374496473     1.007825032230
         H            1.039597392924    -2.965600550199    -0.928826503527     1.007825032230
         H            2.809470392924     0.891880449801    -1.806498503527     1.007825032230
         H            3.793714392924     2.047393449801    -0.885659503527     1.007825032230
         H            2.060457392924     2.349993449801    -1.131525503527     1.007825032230
         H           -2.102802607076     2.228558449801    -1.253884503527     1.007825032230
         H           -3.786291607076     2.110999449801    -0.700935503527     1.007825032230
         H           -3.025280607076     0.740177449801    -1.533585503527     1.007825032230

  Basis Set: AUG-CC-PVTZ
    Blend: AUG-CC-PVTZ
  Basis Set: (AUG-CC-PVTZ AUX)
    Blend: AUG-CC-PVTZ-JKFIT
	 Reference Energy          =    -463.0099235928061603 [Eh]
	 Singles Energy            =      -0.0000000000000000 [Eh]
	 Same-Spin Energy          =      -0.4969686232124843 [Eh]
	 Opposite-Spin Energy      =      -1.6677468089178753 [Eh]
	 Correlation Energy        =      -2.1647154321303597 [Eh]
	 Total Energy              =    -465.1746390249365390 [Eh]

	 ================> DF-SCS-MP2 Energies <==================
	-----------------------------------------------------------
	 SCS Same-Spin Scale       =       0.3333333333333333 [-]
	 SCS Opposite-Spin Scale   =       1.2000000000000000 [-]
	 SCS Same-Spin Energy      =      -0.1656562077374947 [Eh]
	 SCS Opposite-Spin Energy  =      -2.0012961707014503 [Eh]
	 SCS Correlation Energy    =      -2.1669523784389448 [Eh]
	 SCS Total Energy          =    -465.1768759712451242 [Eh]
	-----------------------------------------------------------

  Dipole Moment: [D]
     X:    -0.0824      Y:    -0.7424      Z:    -0.2309     Total:     0.7819

*** Psi4 exiting successfully. Buy a developer a beer!
