                               Psi4 1.3.2 release

  ==> Input File <==

--------------------------------------------------------------------------
#psi4
#
memory 32 gb

molecule  {
0 1
  O        0.0723890     1.0222580     0.5077940
  C       -0.7418240    -1.0387750     0.1269710
  C        0.6943051    -1.0809659     0.0119301
  C       -1.0714850     0.2632460     0.3951280
  C        1.1400710     0.1773790     0.3033030
  C       -2.3562760     1.0018630     0.5198060
  C        2.4849120     0.8120840     0.3409220
  C       -1.6830070    -2.1819480    -0.0885940
  C        1.5125100    -2.3214750    -0.1762480
  C       -2.8486430     1.5569180    -0.8246800
  C        2.8130920     1.5744450    -0.9510270
  H        3.2336060     0.0303330     0.5193890
  H        2.5305840     1.4962520     1.1974230
  H       -2.2159340     1.8224920     1.2344330
  H       -3.1130010     0.3316860     0.9491040
  H       -1.4229750    -3.0387300     0.5441040
  H       -2.7119990    -1.8902510     0.1457090
  H       -1.6650160    -2.5262940    -1.1310850
  H        2.5139960    -2.0634500    -0.5387900
  H        1.6516902    -2.9417766     0.7186534
  H        1.0429930    -2.9642660    -0.9286680
  H        2.8128660     0.8932150    -1.8063400
  H        3.7971100     2.0487280    -0.8855010
  H        2.0638530     2.3513280    -1.1313670
  H       -2.0994070     2.2298930    -1.2537260
  H       -3.7828960     2.1123340    -0.7007770
  H       -3.0218850     0.7415120    -1.5334270
units angstrom
no_reorient  #important for SAPT in psi4, default
symmetry c1  #important for SAPT in psi4, default
}

set PROPERTIES_ORIGIN ["COM"]
properties('MP2/aug-cc-pvtz', properties = ['dipole'])
--------------------------------------------------------------------------

    Molecular point group: c1
  Charge       = 0
  Multiplicity = 1
  Basis Set: AUG-CC-PVTZ
    Blend: AUG-CC-PVTZ
  Basis Set: (AUG-CC-PVTZ AUX)
    Blend: AUG-CC-PVTZ-JKFIT

    Orbital Energies [Eh]
    ---------------------

    Doubly Occupied:

       1A    -20.598851     2A    -11.270417     3A    -11.269817
       4A    -11.230231     5A    -11.230149     6A    -11.223107
       7A    -11.222654     8A    -11.216670     9A    -11.215692
      10A    -11.215609    11A    -11.214851    12A     -1.430105
      13A     -1.097879    14A     -1.079379    15A     -1.036241
      16A     -0.990059    17A     -0.932206    18A     -0.927846
      19A     -0.870186    20A     -0.816207    21A     -0.750401
      22A     -0.720603    23A     -0.658560    24A     -0.627066
      25A     -0.610978    26A     -0.610188    27A     -0.587011
      28A     -0.583724    29A     -0.566683    30A     -0.556208
      31A     -0.548162    32A     -0.533082    33A     -0.527635
      34A     -0.524097    35A     -0.521993    36A     -0.505527
      37A     -0.495346    38A     -0.492814    39A     -0.484089
      40A     -0.465799    41A     -0.360333    42A     -0.280399

  @DF-RHF Final Energy:  -463.01079326316034

   => Energetics <=

    Nuclear Repulsion Energy =            629.5153085059369005
    One-Electron Energy =               -1876.8544888039864418
    Two-Electron Energy =                 784.3283870348891469
    Total Energy =                       -463.0107932631603944
  Basis Set: (AUG-CC-PVTZ AUX)
    Blend: AUG-CC-PVTZ-RI
    Molecular point group: c1

    Geometry (in Angstrom), charge = 0, multiplicity = 1:

       Center              X                  Y                   Z               Mass
    ------------   -----------------  -----------------  -----------------  -----------------
         O            0.071782383537     1.021426477803     0.511900049004    15.994914619570
         C           -0.742430616463    -1.039606522197     0.131077049004    12.000000000000
         C            0.693698483537    -1.081797422197     0.016036149004    12.000000000000
         C           -1.072091616463     0.262414477803     0.399234049004    12.000000000000
         C            1.139464383537     0.176547477803     0.307409049004    12.000000000000
         C           -2.356882616463     1.001031477803     0.523912049004    12.000000000000
         C            2.484305383537     0.811252477803     0.345028049004    12.000000000000
         C           -1.683613616463    -2.182779522197    -0.084487950996    12.000000000000
         C            1.511903383537    -2.322306522197    -0.172141950996    12.000000000000
         C           -2.849249616463     1.556086477803    -0.820573950996    12.000000000000
         C            2.812485383537     1.573613477803    -0.946920950996    12.000000000000
         H            3.232999383537     0.029501477803     0.523495049004     1.007825032230
         H            2.529977383537     1.495420477803     1.201529049004     1.007825032230
         H           -2.216540616463     1.821660477803     1.238539049004     1.007825032230
         H           -3.113607616463     0.330854477803     0.953210049004     1.007825032230
         H           -1.423581616463    -3.039561522197     0.548210049004     1.007825032230
         H           -2.712605616463    -1.891082522197     0.149815049004     1.007825032230
         H           -1.665622616463    -2.527125522197    -1.126978950996     1.007825032230
         H            2.513389383537    -2.064281522197    -0.534683950996     1.007825032230
         H            1.651083583537    -2.942608122197     0.722759449004     1.007825032230
         H            1.042386383537    -2.965097522197    -0.924561950996     1.007825032230
         H            2.812259383537     0.892383477803    -1.802233950996     1.007825032230
         H            3.796503383537     2.047896477803    -0.881394950996     1.007825032230
         H            2.063246383537     2.350496477803    -1.127260950996     1.007825032230
         H           -2.100013616463     2.229061477803    -1.249619950996     1.007825032230
         H           -3.783502616463     2.111502477803    -0.696670950996     1.007825032230
         H           -3.022491616463     0.740680477803    -1.529320950996     1.007825032230

  Basis Set: AUG-CC-PVTZ
    Blend: AUG-CC-PVTZ
  Basis Set: (AUG-CC-PVTZ AUX)
    Blend: AUG-CC-PVTZ-JKFIT
	 Reference Energy          =    -463.0107932631603376 [Eh]
	 Singles Energy            =      -0.0000000000000000 [Eh]
	 Same-Spin Energy          =      -0.4969862021068963 [Eh]
	 Opposite-Spin Energy      =      -1.6670512121900589 [Eh]
	 Correlation Energy        =      -2.1640374142969554 [Eh]
	 Total Energy              =    -465.1748306774572939 [Eh]

	 ================> DF-SCS-MP2 Energies <==================
	-----------------------------------------------------------
	 SCS Same-Spin Scale       =       0.3333333333333333 [-]
	 SCS Opposite-Spin Scale   =       1.2000000000000000 [-]
	 SCS Same-Spin Energy      =      -0.1656620673689654 [Eh]
	 SCS Opposite-Spin Energy  =      -2.0004614546280708 [Eh]
	 SCS Correlation Energy    =      -2.1661235219970361 [Eh]
	 SCS Total Energy          =    -465.1769167851573457 [Eh]
	-----------------------------------------------------------

  Dipole Moment: [D]
     X:    -0.0365      Y:    -0.6379      Z:    -0.1831     Total:     0.6646

*** Psi4 exiting successfully. Buy a developer a beer!
