                               Psi4 1.3.2 release

  ==> Input File <==

--------------------------------------------------------------------------
#psi4
#
memory 32 gb

molecule  {
0 1
  O        0.0723890     1.0222580     0.5077940
  C       -0.7418240    -1.0387750     0.1269710
  C        0.6883760    -1.0936210     0.0623120
  C       -1.0714850     0.2632460     0.3951280
  C        1.1511112     0.1542662     0.3075424
  C       -2.3562760     1.0018630     0.5198060
  C        2.4849120     0.8120840     0.3409220
  C       -1.6830070    -2.1819480    -0.0885940
  C        1.5125100    -2.3214750    -0.1762480
  C       -2.8486430     1.5569180    -0.8246800
  C        2.8130920     1.5744450    -0.9510270
  H        3.2196093     0.0172776     0.5198925
  H        2.5305840     1.4962520     1.1974230
  H       -2.2159340     1.8224920     1.2344330
  H       -3.1130010     0.3316860     0.9491040
  H       -1.4229750    -3.0387300     0.5441040
  H       -2.7119990    -1.8902510     0.1457090
  H       -1.6650160    -2.5262940    -1.1310850
  H        2.5139960    -2.0634500    -0.5387900
  H        1.6307130    -2.9166200     0.7385330
  H        1.0429930    -2.9642660    -0.9286680
  H        2.8128660     0.8932150    -1.8063400
  H        3.7971100     2.0487280    -0.8855010
  H        2.0638530     2.3513280    -1.1313670
  H       -2.0994070     2.2298930    -1.2537260
  H       -3.7828960     2.1123340    -0.7007770
  H       -3.0218850     0.7415120    -1.5334270
units angstrom
no_reorient  #important for SAPT in psi4, default
symmetry c1  #important for SAPT in psi4, default
}

set PROPERTIES_ORIGIN ["COM"]
properties('MP2/aug-cc-pvtz', properties = ['dipole'])
--------------------------------------------------------------------------

    Molecular point group: c1
  Charge       = 0
  Multiplicity = 1
  Basis Set: AUG-CC-PVTZ
    Blend: AUG-CC-PVTZ
  Basis Set: (AUG-CC-PVTZ AUX)
    Blend: AUG-CC-PVTZ-JKFIT

    Orbital Energies [Eh]
    ---------------------

    Doubly Occupied:

       1A    -20.594835     2A    -11.270518     3A    -11.267731
       4A    -11.230183     5A    -11.230112     6A    -11.223397
       7A    -11.223071     8A    -11.216154     9A    -11.215671
      10A    -11.214844    11A    -11.214590    12A     -1.421077
      13A     -1.100263    14A     -1.078644    15A     -1.036093
      16A     -0.991102    17A     -0.933167    18A     -0.926090
      19A     -0.870584    20A     -0.816373    21A     -0.746045
      22A     -0.721978    23A     -0.655578    24A     -0.624775
      25A     -0.611573    26A     -0.609232    27A     -0.585330
      28A     -0.583848    29A     -0.567010    30A     -0.556131
      31A     -0.549833    32A     -0.533592    33A     -0.527331
      34A     -0.522575    35A     -0.520926    36A     -0.505035
      37A     -0.495435    38A     -0.493148    39A     -0.482323
      40A     -0.469464    41A     -0.362373    42A     -0.281143

  @DF-RHF Final Energy:  -463.01121863327330

   => Energetics <=

    Nuclear Repulsion Energy =            629.4766338601303914
    One-Electron Energy =               -1876.8173602989136270
    Two-Electron Energy =                 784.3295078055100475
    Total Energy =                       -463.0112186332733017
  Basis Set: (AUG-CC-PVTZ AUX)
    Blend: AUG-CC-PVTZ-RI
    Molecular point group: c1

    Geometry (in Angstrom), charge = 0, multiplicity = 1:

       Center              X                  Y                   Z               Mass
    ------------   -----------------  -----------------  -----------------  -----------------
         O            0.071610903072     1.024167856925     0.507456204100    15.994914619570
         C           -0.742602096928    -1.036865143075     0.126633204100    12.000000000000
         C            0.687597903072    -1.091711143075     0.061974204100    12.000000000000
         C           -1.072263096928     0.265155856925     0.394790204100    12.000000000000
         C            1.150333103072     0.156176056925     0.307204604100    12.000000000000
         C           -2.357054096928     1.003772856925     0.519468204100    12.000000000000
         C            2.484133903072     0.813993856925     0.340584204100    12.000000000000
         C           -1.683785096928    -2.180038143075    -0.088931795900    12.000000000000
         C            1.511731903072    -2.319565143075    -0.176585795900    12.000000000000
         C           -2.849421096928     1.558827856925    -0.825017795900    12.000000000000
         C            2.812313903072     1.576354856925    -0.951364795900    12.000000000000
         H            3.218831203072     0.019187456925     0.519554704100     1.007825032230
         H            2.529805903072     1.498161856925     1.197085204100     1.007825032230
         H           -2.216712096928     1.824401856925     1.234095204100     1.007825032230
         H           -3.113779096928     0.333595856925     0.948766204100     1.007825032230
         H           -1.423753096928    -3.036820143075     0.543766204100     1.007825032230
         H           -2.712777096928    -1.888341143075     0.145371204100     1.007825032230
         H           -1.665794096928    -2.524384143075    -1.131422795900     1.007825032230
         H            2.513217903072    -2.061540143075    -0.539127795900     1.007825032230
         H            1.629934903072    -2.914710143075     0.738195204100     1.007825032230
         H            1.042214903072    -2.962356143075    -0.929005795900     1.007825032230
         H            2.812087903072     0.895124856925    -1.806677795900     1.007825032230
         H            3.796331903072     2.050637856925    -0.885838795900     1.007825032230
         H            2.063074903072     2.353237856925    -1.131704795900     1.007825032230
         H           -2.100185096928     2.231802856925    -1.254063795900     1.007825032230
         H           -3.783674096928     2.114243856925    -0.701114795900     1.007825032230
         H           -3.022663096928     0.743421856925    -1.533764795900     1.007825032230

  Basis Set: AUG-CC-PVTZ
    Blend: AUG-CC-PVTZ
  Basis Set: (AUG-CC-PVTZ AUX)
    Blend: AUG-CC-PVTZ-JKFIT
	 Reference Energy          =    -463.0112186332733017 [Eh]
	 Singles Energy            =      -0.0000000000000000 [Eh]
	 Same-Spin Energy          =      -0.4968916432647136 [Eh]
	 Opposite-Spin Energy      =      -1.6672070412640148 [Eh]
	 Correlation Energy        =      -2.1640986845287284 [Eh]
	 Total Energy              =    -465.1753173178020120 [Eh]

	 ================> DF-SCS-MP2 Energies <==================
	-----------------------------------------------------------
	 SCS Same-Spin Scale       =       0.3333333333333333 [-]
	 SCS Opposite-Spin Scale   =       1.2000000000000000 [-]
	 SCS Same-Spin Energy      =      -0.1656305477549045 [Eh]
	 SCS Opposite-Spin Energy  =      -2.0006484495168175 [Eh]
	 SCS Correlation Energy    =      -2.1662789972717222 [Eh]
	 SCS Total Energy          =    -465.1774976305450195 [Eh]
	-----------------------------------------------------------

  Dipole Moment: [D]
     X:    -0.0078      Y:    -0.6866      Z:    -0.2357     Total:     0.7259

*** Psi4 exiting successfully. Buy a developer a beer!
