                               Psi4 1.3.2 release

  ==> Input File <==

--------------------------------------------------------------------------
#psi4
#
memory 32 gb

molecule  {
0 1
  O        0.0723890     1.0222580     0.5077940
  C       -0.8118264    -1.0535195     0.1220910
  C        0.6883760    -1.0936210     0.0623120
  C       -1.0714850     0.2632460     0.3951280
  C        1.1400710     0.1773790     0.3033030
  C       -2.3936721     0.9352549     0.5047313
  C        2.4849120     0.8120840     0.3409220
  C       -1.6830070    -2.1819480    -0.0885940
  C        1.5125100    -2.3214750    -0.1762480
  C       -2.8486430     1.5569180    -0.8246800
  C        2.8130920     1.5744450    -0.9510270
  H        3.2336060     0.0303330     0.5193890
  H        2.5305840     1.4962520     1.1974230
  H       -2.2159340     1.8224920     1.2344330
  H       -3.1130010     0.3316860     0.9491040
  H       -1.4229750    -3.0387300     0.5441040
  H       -2.7119990    -1.8902510     0.1457090
  H       -1.6650160    -2.5262940    -1.1310850
  H        2.5139960    -2.0634500    -0.5387900
  H        1.6307130    -2.9166200     0.7385330
  H        1.0429930    -2.9642660    -0.9286680
  H        2.8128660     0.8932150    -1.8063400
  H        3.7971100     2.0487280    -0.8855010
  H        2.0638530     2.3513280    -1.1313670
  H       -2.0994070     2.2298930    -1.2537260
  H       -3.7828960     2.1123340    -0.7007770
  H       -3.0218850     0.7415120    -1.5334270
units angstrom
no_reorient  #important for SAPT in psi4, default
symmetry c1  #important for SAPT in psi4, default
}

set PROPERTIES_ORIGIN ["COM"]
properties('MP2/aug-cc-pvtz', properties = ['dipole'])
--------------------------------------------------------------------------

    Molecular point group: c1
  Charge       = 0
  Multiplicity = 1
  Basis Set: AUG-CC-PVTZ
    Blend: AUG-CC-PVTZ
  Basis Set: (AUG-CC-PVTZ AUX)
    Blend: AUG-CC-PVTZ-JKFIT

    Orbital Energies [Eh]
    ---------------------

    Doubly Occupied:

       1A    -20.599773     2A    -11.272810     3A    -11.270274
       4A    -11.230613     5A    -11.229490     6A    -11.222019
       7A    -11.221989     8A    -11.220041     9A    -11.217321
      10A    -11.215560    11A    -11.214929    12A     -1.428988
      13A     -1.096377    14A     -1.079258    15A     -1.035547
      16A     -0.995959    17A     -0.932818    18A     -0.927389
      19A     -0.869075    20A     -0.816233    21A     -0.753231
      22A     -0.711459    23A     -0.660337    24A     -0.627319
      25A     -0.615897    26A     -0.606269    27A     -0.590522
      28A     -0.582664    29A     -0.570292    30A     -0.558701
      31A     -0.554886    32A     -0.538809    33A     -0.532092
      34A     -0.525303    35A     -0.521146    36A     -0.511636
      37A     -0.495054    38A     -0.490131    39A     -0.479132
      40A     -0.448379    41A     -0.352143    42A     -0.283164

  @DF-RHF Final Energy:  -462.99986213077909

   => Energetics <=

    Nuclear Repulsion Energy =            628.9054195027306378
    One-Electron Energy =               -1875.6005030113337853
    Two-Electron Energy =                 783.6952213778240548
    Total Energy =                       -462.9998621307790927
  Basis Set: (AUG-CC-PVTZ AUX)
    Blend: AUG-CC-PVTZ-RI
    Molecular point group: c1

    Geometry (in Angstrom), charge = 0, multiplicity = 1:

       Center              X                  Y                   Z               Mass
    ------------   -----------------  -----------------  -----------------  -----------------
         O            0.080861212764     1.028675610817     0.509368092214    15.994914619570
         C           -0.803354187236    -1.047101889183     0.123665092214    12.000000000000
         C            0.696848212764    -1.087203389183     0.063886092214    12.000000000000
         C           -1.063012787236     0.269663610817     0.396702092214    12.000000000000
         C            1.148543212764     0.183796610817     0.304877092214    12.000000000000
         C           -2.385199887236     0.941672510817     0.506305392214    12.000000000000
         C            2.493384212764     0.818501610817     0.342496092214    12.000000000000
         C           -1.674534787236    -2.175530389183    -0.087019907786    12.000000000000
         C            1.520982212764    -2.315057389183    -0.174673907786    12.000000000000
         C           -2.840170787236     1.563335610817    -0.823105907786    12.000000000000
         C            2.821564212764     1.580862610817    -0.949452907786    12.000000000000
         H            3.242078212764     0.036750610817     0.520963092214     1.007825032230
         H            2.539056212764     1.502669610817     1.198997092214     1.007825032230
         H           -2.207461787236     1.828909610817     1.236007092214     1.007825032230
         H           -3.104528787236     0.338103610817     0.950678092214     1.007825032230
         H           -1.414502787236    -3.032312389183     0.545678092214     1.007825032230
         H           -2.703526787236    -1.883833389183     0.147283092214     1.007825032230
         H           -1.656543787236    -2.519876389183    -1.129510907786     1.007825032230
         H            2.522468212764    -2.057032389183    -0.537215907786     1.007825032230
         H            1.639185212764    -2.910202389183     0.740107092214     1.007825032230
         H            1.051465212764    -2.957848389183    -0.927093907786     1.007825032230
         H            2.821338212764     0.899632610817    -1.804765907786     1.007825032230
         H            3.805582212764     2.055145610817    -0.883926907786     1.007825032230
         H            2.072325212764     2.357745610817    -1.129792907786     1.007825032230
         H           -2.090934787236     2.236310610817    -1.252151907786     1.007825032230
         H           -3.774423787236     2.118751610817    -0.699202907786     1.007825032230
         H           -3.013412787236     0.747929610817    -1.531852907786     1.007825032230

  Basis Set: AUG-CC-PVTZ
    Blend: AUG-CC-PVTZ
  Basis Set: (AUG-CC-PVTZ AUX)
    Blend: AUG-CC-PVTZ-JKFIT
	 Reference Energy          =    -462.9998621307790927 [Eh]
	 Singles Energy            =      -0.0000000000000000 [Eh]
	 Same-Spin Energy          =      -0.4967687961350793 [Eh]
	 Opposite-Spin Energy      =      -1.6672955203201323 [Eh]
	 Correlation Energy        =      -2.1640643164552116 [Eh]
	 Total Energy              =    -465.1639264472343029 [Eh]

	 ================> DF-SCS-MP2 Energies <==================
	-----------------------------------------------------------
	 SCS Same-Spin Scale       =       0.3333333333333333 [-]
	 SCS Opposite-Spin Scale   =       1.2000000000000000 [-]
	 SCS Same-Spin Energy      =      -0.1655895987116931 [Eh]
	 SCS Opposite-Spin Energy  =      -2.0007546243841587 [Eh]
	 SCS Correlation Energy    =      -2.1663442230958516 [Eh]
	 SCS Total Energy          =    -465.1662063538749408 [Eh]
	-----------------------------------------------------------

  Dipole Moment: [D]
     X:    -0.0466      Y:    -0.7249      Z:    -0.2403     Total:     0.7652

*** Psi4 exiting successfully. Buy a developer a beer!
