                               Psi4 1.3.2 release

  ==> Input File <==

--------------------------------------------------------------------------
#psi4
#
memory 32 gb

molecule  {
0 1
  O        0.0723890     1.0222580     0.5077940
  C       -0.7418240    -1.0387750     0.1269710
  C        0.6898824    -1.0200234     0.0767109
  C       -1.0015109     0.2788982     0.3955659
  C        1.1400710     0.1773790     0.3033030
  C       -2.3562760     1.0018630     0.5198060
  C        2.4849120     0.8120840     0.3409220
  C       -1.6830070    -2.1819480    -0.0885940
  C        1.5125100    -2.3214750    -0.1762480
  C       -2.8486430     1.5569180    -0.8246800
  C        2.8130920     1.5744450    -0.9510270
  H        3.2336060     0.0303330     0.5193890
  H        2.5305840     1.4962520     1.1974230
  H       -2.2159340     1.8224920     1.2344330
  H       -3.1130010     0.3316860     0.9491040
  H       -1.4229750    -3.0387300     0.5441040
  H       -2.7119990    -1.8902510     0.1457090
  H       -1.6650160    -2.5262940    -1.1310850
  H        2.5139960    -2.0634500    -0.5387900
  H        1.6307130    -2.9166200     0.7385330
  H        1.0429930    -2.9642660    -0.9286680
  H        2.8128660     0.8932150    -1.8063400
  H        3.7971100     2.0487280    -0.8855010
  H        2.0638530     2.3513280    -1.1313670
  H       -2.0994070     2.2298930    -1.2537260
  H       -3.7828960     2.1123340    -0.7007770
  H       -3.0218850     0.7415120    -1.5334270
units angstrom
no_reorient  #important for SAPT in psi4, default
symmetry c1  #important for SAPT in psi4, default
}

set PROPERTIES_ORIGIN ["COM"]
properties('MP2/aug-cc-pvtz', properties = ['dipole'])
--------------------------------------------------------------------------

    Molecular point group: c1
  Charge       = 0
  Multiplicity = 1
  Basis Set: AUG-CC-PVTZ
    Blend: AUG-CC-PVTZ
  Basis Set: (AUG-CC-PVTZ AUX)
    Blend: AUG-CC-PVTZ-JKFIT

    Orbital Energies [Eh]
    ---------------------

    Doubly Occupied:

       1A    -20.603528     2A    -11.271755     3A    -11.256295
       4A    -11.230453     5A    -11.229780     6A    -11.224978
       7A    -11.224955     8A    -11.214964     9A    -11.214505
      10A    -11.211420    11A    -11.208514    12A     -1.460617
      13A     -1.103352    14A     -1.076803    15A     -1.032164
      16A     -0.986649    17A     -0.935951    18A     -0.930630
      19A     -0.866203    20A     -0.818344    21A     -0.765873
      22A     -0.718103    23A     -0.665173    24A     -0.640078
      25A     -0.609374    26A     -0.605638    27A     -0.589300
      28A     -0.579775    29A     -0.567499    30A     -0.553341
      31A     -0.547980    32A     -0.535728    33A     -0.534117
      34A     -0.520604    35A     -0.517730    36A     -0.505767
      37A     -0.494264    38A     -0.491848    39A     -0.483822
      40A     -0.453833    41A     -0.368741    42A     -0.286209

  @DF-RHF Final Energy:  -463.00474362174674

   => Energetics <=

    Nuclear Repulsion Energy =            631.4514383924024514
    One-Electron Energy =               -1880.6390509287282384
    Two-Electron Energy =                 786.1828689145791031
    Total Energy =                       -463.0047436217466839
  Basis Set: (AUG-CC-PVTZ AUX)
    Blend: AUG-CC-PVTZ-RI
    Molecular point group: c1

    Geometry (in Angstrom), charge = 0, multiplicity = 1:

       Center              X                  Y                   Z               Mass
    ------------   -----------------  -----------------  -----------------  -----------------
         O            0.066750337302     1.015217635203     0.506623563657    15.994914619570
         C           -0.747462662698    -1.045815364797     0.125800563657    12.000000000000
         C            0.684243737302    -1.027063764797     0.075540463657    12.000000000000
         C           -1.007149562698     0.271857835203     0.394395463657    12.000000000000
         C            1.134432337302     0.170338635203     0.302132563657    12.000000000000
         C           -2.361914662698     0.994822635203     0.518635563657    12.000000000000
         C            2.479273337302     0.805043635203     0.339751563657    12.000000000000
         C           -1.688645662698    -2.188988364797    -0.089764436343    12.000000000000
         C            1.506871337302    -2.328515364797    -0.177418436343    12.000000000000
         C           -2.854281662698     1.549877635203    -0.825850436343    12.000000000000
         C            2.807453337302     1.567404635203    -0.952197436343    12.000000000000
         H            3.227967337302     0.023292635203     0.518218563657     1.007825032230
         H            2.524945337302     1.489211635203     1.196252563657     1.007825032230
         H           -2.221572662698     1.815451635203     1.233262563657     1.007825032230
         H           -3.118639662698     0.324645635203     0.947933563657     1.007825032230
         H           -1.428613662698    -3.045770364797     0.542933563657     1.007825032230
         H           -2.717637662698    -1.897291364797     0.144538563657     1.007825032230
         H           -1.670654662698    -2.533334364797    -1.132255436343     1.007825032230
         H            2.508357337302    -2.070490364797    -0.539960436343     1.007825032230
         H            1.625074337302    -2.923660364797     0.737362563657     1.007825032230
         H            1.037354337302    -2.971306364797    -0.929838436343     1.007825032230
         H            2.807227337302     0.886174635203    -1.807510436343     1.007825032230
         H            3.791471337302     2.041687635203    -0.886671436343     1.007825032230
         H            2.058214337302     2.344287635203    -1.132537436343     1.007825032230
         H           -2.105045662698     2.222852635203    -1.254896436343     1.007825032230
         H           -3.788534662698     2.105293635203    -0.701947436343     1.007825032230
         H           -3.027523662698     0.734471635203    -1.534597436343     1.007825032230

  Basis Set: AUG-CC-PVTZ
    Blend: AUG-CC-PVTZ
  Basis Set: (AUG-CC-PVTZ AUX)
    Blend: AUG-CC-PVTZ-JKFIT
	 Reference Energy          =    -463.0047436217467407 [Eh]
	 Singles Energy            =      -0.0000000000000000 [Eh]
	 Same-Spin Energy          =      -0.4949464537501312 [Eh]
	 Opposite-Spin Energy      =      -1.6632468074652149 [Eh]
	 Correlation Energy        =      -2.1581932612153460 [Eh]
	 Total Energy              =    -465.1629368829620716 [Eh]

	 ================> DF-SCS-MP2 Energies <==================
	-----------------------------------------------------------
	 SCS Same-Spin Scale       =       0.3333333333333333 [-]
	 SCS Opposite-Spin Scale   =       1.2000000000000000 [-]
	 SCS Same-Spin Energy      =      -0.1649821512500437 [Eh]
	 SCS Opposite-Spin Energy  =      -1.9958961689582577 [Eh]
	 SCS Correlation Energy    =      -2.1608783202083015 [Eh]
	 SCS Total Energy          =    -465.1656219419550666 [Eh]
	-----------------------------------------------------------

  Dipole Moment: [D]
     X:     0.0554      Y:    -0.6226      Z:    -0.2054     Total:     0.6580

*** Psi4 exiting successfully. Buy a developer a beer!
