                               Psi4 1.4a3.dev225

  ==> Input File <==

--------------------------------------------------------------------------
#psi4
#
memory 32 gb

molecule  {
0 1
  O        0.0000040    -0.9323440    -0.5200900
  C       -0.7186120     1.1388030    -0.0293360
  C        0.7186000     1.1388090    -0.0293300
  C       -1.1092540    -0.1401520    -0.3350070
  C        1.1092550    -0.1401430    -0.3349960
  C       -2.4197690    -0.8327410    -0.4659430
  C        2.4197760    -0.8327180    -0.4659420
  C       -1.5881550     2.3237520     0.2504950
  C        1.5765075     2.3079251     0.2467663
  C       -2.6404590    -1.8837440     0.6266770
  C        2.6404800    -1.8837320     0.6266650
  H        3.2127060    -0.0780420    -0.4310990
  H        2.4812700    -1.3082390    -1.4528680
  H       -2.4812630    -1.3082740    -1.4528630
  H       -3.2127060    -0.0780720    -0.4311050
  H       -1.4004860     3.1330380    -0.4637010
  H       -2.6480190     2.0627510     0.1871390
  H       -1.4034730     2.7248980     1.2531230
  H        2.6479980     2.0627640     0.1871950
  H        1.4004870     3.1330370    -0.4637120
  H        1.4034130     2.7249310     1.2531200
  H        2.6185650    -1.4170920     1.6153140
  H        3.6057420    -2.3837880     0.5012060
  H        1.8526560    -2.6398250     0.5898280
  H       -1.8526300    -2.6398320     0.5898440
  H       -3.6057190    -2.3838080     0.5012310
  H       -2.6185400    -1.4170920     1.6153210
units angstrom
no_reorient  #important for SAPT in psi4, default
symmetry c1  #important for SAPT in psi4, default
}

set PROPERTIES_ORIGIN ["COM"]
properties('MP2/aug-cc-pvtz', properties = ['dipole'])
--------------------------------------------------------------------------

    Molecular point group: c1
  Charge       = 0
  Multiplicity = 1
  Basis Set: AUG-CC-PVTZ
    Blend: AUG-CC-PVTZ
  Basis Set: (AUG-CC-PVTZ AUX)
    Blend: AUG-CC-PVTZ-JKFIT

    Orbital Energies [Eh]
    ---------------------

    Doubly Occupied:

       1A    -20.597542     2A    -11.271216     3A    -11.271134
       4A    -11.230089     5A    -11.230066     6A    -11.223110
       7A    -11.222517     8A    -11.217272     9A    -11.215920
      10A    -11.213562    11A    -11.213558    12A     -1.430849
      13A     -1.099386    14A     -1.079711    15A     -1.036972
      16A     -0.991994    17A     -0.932486    18A     -0.926522
      19A     -0.870195    20A     -0.816299    21A     -0.751721
      22A     -0.719985    23A     -0.660315    24A     -0.628715
      25A     -0.612328    26A     -0.610520    27A     -0.585485
      28A     -0.582246    29A     -0.567807    30A     -0.555717
      31A     -0.550977    32A     -0.533052    33A     -0.530150
      34A     -0.526270    35A     -0.518148    36A     -0.506006
      37A     -0.493326    38A     -0.491126    39A     -0.484883
      40A     -0.466481    41A     -0.359950    42A     -0.280150

  @DF-RHF Final Energy:  -463.01327953840928

   => Energetics <=

    Nuclear Repulsion Energy =            630.3637832272725063
    One-Electron Energy =               -1878.5426075255707019
    Two-Electron Energy =                 785.1655447598889168
    Total Energy =                       -463.0132795384092788
  Basis Set: (AUG-CC-PVTZ AUX)
    Blend: AUG-CC-PVTZ-RI
    Molecular point group: c1

    Geometry (in Angstrom), charge = 0, multiplicity = 1:

       Center              X                  Y                   Z               Mass
    ------------   -----------------  -----------------  -----------------  -----------------
         O            0.000921045142    -0.929903609938    -0.496345104155    15.994914619570
         C           -0.717694954858     1.141243390062    -0.005591104155    12.000000000000
         C            0.719517045142     1.141249390062    -0.005585104155    12.000000000000
         C           -1.108336954858    -0.137711609938    -0.311262104155    12.000000000000
         C            1.110172045142    -0.137702609938    -0.311251104155    12.000000000000
         C           -2.418851954858    -0.830300609938    -0.442198104155    12.000000000000
         C            2.420693045142    -0.830277609938    -0.442197104155    12.000000000000
         C           -1.587237954858     2.326192390062     0.274239895845    12.000000000000
         C            1.577424545142     2.310365490062     0.270511195845    12.000000000000
         C           -2.639541954858    -1.881303609938     0.650421895845    12.000000000000
         C            2.641397045142    -1.881291609938     0.650409895845    12.000000000000
         H            3.213623045142    -0.075601609938    -0.407354104155     1.007825032230
         H            2.482187045142    -1.305798609938    -1.429123104155     1.007825032230
         H           -2.480345954858    -1.305833609938    -1.429118104155     1.007825032230
         H           -3.211788954858    -0.075631609938    -0.407360104155     1.007825032230
         H           -1.399568954858     3.135478390062    -0.439956104155     1.007825032230
         H           -2.647101954858     2.065191390062     0.210883895845     1.007825032230
         H           -1.402555954858     2.727338390062     1.276867895845     1.007825032230
         H            2.648915045142     2.065204390062     0.210939895845     1.007825032230
         H            1.401404045142     3.135477390062    -0.439967104155     1.007825032230
         H            1.404330045142     2.727371390062     1.276864895845     1.007825032230
         H            2.619482045142    -1.414651609938     1.639058895845     1.007825032230
         H            3.606659045142    -2.381347609938     0.524950895845     1.007825032230
         H            1.853573045142    -2.637384609938     0.613572895845     1.007825032230
         H           -1.851712954858    -2.637391609938     0.613588895845     1.007825032230
         H           -3.604801954858    -2.381367609938     0.524975895845     1.007825032230
         H           -2.617622954858    -1.414651609938     1.639065895845     1.007825032230

  Basis Set: AUG-CC-PVTZ
    Blend: AUG-CC-PVTZ
  Basis Set: (AUG-CC-PVTZ AUX)
    Blend: AUG-CC-PVTZ-JKFIT
	 Reference Energy          =    -463.0132795384092788 [Eh]
	 Singles Energy            =      -0.0000000000000000 [Eh]
	 Same-Spin Energy          =      -0.4970867902382747 [Eh]
	 Opposite-Spin Energy      =      -1.6668888262062063 [Eh]
	 Correlation Energy        =      -2.1639756164444810 [Eh]
	 Total Energy              =    -465.1772551548537535 [Eh]

	 ================> DF-SCS-MP2 Energies <==================
	-----------------------------------------------------------
	 SCS Same-Spin Scale       =       0.3333333333333333 [-]
	 SCS Opposite-Spin Scale   =       1.2000000000000000 [-]
	 SCS Same-Spin Energy      =      -0.1656955967460916 [Eh]
	 SCS Opposite-Spin Energy  =      -2.0002665914474473 [Eh]
	 SCS Correlation Energy    =      -2.1659621881935389 [Eh]
	 SCS Total Energy          =    -465.1792417266028110 [Eh]
	-----------------------------------------------------------

  Dipole Moment: [D]
     X:    -0.0041      Y:     0.6335      Z:     0.2243     Total:     0.6721

*** Psi4 exiting successfully. Buy a developer a beer!
