                               Psi4 1.3.2 release

  ==> Input File <==

--------------------------------------------------------------------------
#psi4
#
memory 32 gb

molecule  {
0 1
  O        0.1109138     0.9627076     0.4947632
  C       -0.6727410    -1.0196241     0.1284995
  C        0.6883760    -1.0936210     0.0623120
  C       -1.0714850     0.2632460     0.3951280
  C        1.1400710     0.1773790     0.3033030
  C       -2.3562760     1.0018630     0.5198060
  C        2.4849120     0.8120840     0.3409220
  C       -1.6830070    -2.1819480    -0.0885940
  C        1.5125100    -2.3214750    -0.1762480
  C       -2.8486430     1.5569180    -0.8246800
  C        2.8130920     1.5744450    -0.9510270
  H        3.2336060     0.0303330     0.5193890
  H        2.5305840     1.4962520     1.1974230
  H       -2.2159340     1.8224920     1.2344330
  H       -3.1130010     0.3316860     0.9491040
  H       -1.4229750    -3.0387300     0.5441040
  H       -2.7119990    -1.8902510     0.1457090
  H       -1.6650160    -2.5262940    -1.1310850
  H        2.5139960    -2.0634500    -0.5387900
  H        1.6307130    -2.9166200     0.7385330
  H        1.0429930    -2.9642660    -0.9286680
  H        2.8128660     0.8932150    -1.8063400
  H        3.7971100     2.0487280    -0.8855010
  H        2.0638530     2.3513280    -1.1313670
  H       -2.0994070     2.2298930    -1.2537260
  H       -3.7828960     2.1123340    -0.7007770
  H       -3.0218850     0.7415120    -1.5334270
units angstrom
no_reorient  #important for SAPT in psi4, default
symmetry c1  #important for SAPT in psi4, default
}

set PROPERTIES_ORIGIN ["COM"]
properties('MP2/aug-cc-pvtz', properties = ['dipole'])
--------------------------------------------------------------------------

    Molecular point group: c1
  Charge       = 0
  Multiplicity = 1
  Basis Set: AUG-CC-PVTZ
    Blend: AUG-CC-PVTZ
  Basis Set: (AUG-CC-PVTZ AUX)
    Blend: AUG-CC-PVTZ-JKFIT

    Orbital Energies [Eh]
    ---------------------

    Doubly Occupied:

       1A    -20.600304     2A    -11.266187     3A    -11.263874
       4A    -11.234068     5A    -11.229820     6A    -11.223159
       7A    -11.219762     8A    -11.216142     9A    -11.215693
      10A    -11.212293    11A    -11.202374    12A     -1.456777
      13A     -1.101687    14A     -1.081462    15A     -1.038575
      16A     -0.983535    17A     -0.932367    18A     -0.930164
      19A     -0.872763    20A     -0.820783    21A     -0.754646
      22A     -0.730230    23A     -0.665576    24A     -0.637460
      25A     -0.611021    26A     -0.610023    27A     -0.592046
      28A     -0.580636    29A     -0.565749    30A     -0.551303
      31A     -0.544810    32A     -0.536157    33A     -0.528086
      34A     -0.523059    35A     -0.508979    36A     -0.506578
      37A     -0.497385    38A     -0.492719    39A     -0.482802
      40A     -0.472156    41A     -0.365431    42A     -0.274500

  @DF-RHF Final Energy:  -463.00344708240311

   => Energetics <=

    Nuclear Repulsion Energy =            632.1653007471618366
    One-Electron Energy =               -1882.0712099170830243
    Two-Electron Energy =                 786.9024620875180744
    Total Energy =                       -463.0034470824031132
  Basis Set: (AUG-CC-PVTZ AUX)
    Blend: AUG-CC-PVTZ-RI
    Molecular point group: c1

    Geometry (in Angstrom), charge = 0, multiplicity = 1:

       Center              X                  Y                   Z               Mass
    ------------   -----------------  -----------------  -----------------  -----------------
         O            0.101413511992     0.967458511866     0.496012733778    15.994914619570
         C           -0.682241288008    -1.014873188134     0.129749033778    12.000000000000
         C            0.678875711992    -1.088870088134     0.063561533778    12.000000000000
         C           -1.080985288008     0.267996911866     0.396377533778    12.000000000000
         C            1.130570711992     0.182129911866     0.304552533778    12.000000000000
         C           -2.365776288008     1.006613911866     0.521055533778    12.000000000000
         C            2.475411711992     0.816834911866     0.342171533778    12.000000000000
         C           -1.692507288008    -2.177197088134    -0.087344466222    12.000000000000
         C            1.503009711992    -2.316724088134    -0.174998466222    12.000000000000
         C           -2.858143288008     1.561668911866    -0.823430466222    12.000000000000
         C            2.803591711992     1.579195911866    -0.949777466222    12.000000000000
         H            3.224105711992     0.035083911866     0.520638533778     1.007825032230
         H            2.521083711992     1.501002911866     1.198672533778     1.007825032230
         H           -2.225434288008     1.827242911866     1.235682533778     1.007825032230
         H           -3.122501288008     0.336436911866     0.950353533778     1.007825032230
         H           -1.432475288008    -3.033979088134     0.545353533778     1.007825032230
         H           -2.721499288008    -1.885500088134     0.146958533778     1.007825032230
         H           -1.674516288008    -2.521543088134    -1.129835466222     1.007825032230
         H            2.504495711992    -2.058699088134    -0.537540466222     1.007825032230
         H            1.621212711992    -2.911869088134     0.739782533778     1.007825032230
         H            1.033492711992    -2.959515088134    -0.927418466222     1.007825032230
         H            2.803365711992     0.897965911866    -1.805090466222     1.007825032230
         H            3.787609711992     2.053478911866    -0.884251466222     1.007825032230
         H            2.054352711992     2.356078911866    -1.130117466222     1.007825032230
         H           -2.108907288008     2.234643911866    -1.252476466222     1.007825032230
         H           -3.792396288008     2.117084911866    -0.699527466222     1.007825032230
         H           -3.031385288008     0.746262911866    -1.532177466222     1.007825032230

  Basis Set: AUG-CC-PVTZ
    Blend: AUG-CC-PVTZ
  Basis Set: (AUG-CC-PVTZ AUX)
    Blend: AUG-CC-PVTZ-JKFIT
	 Reference Energy          =    -463.0034470824031132 [Eh]
	 Singles Energy            =      -0.0000000000000000 [Eh]
	 Same-Spin Energy          =      -0.4978496419765583 [Eh]
	 Opposite-Spin Energy      =      -1.6659337984647775 [Eh]
	 Correlation Energy        =      -2.1637834404413359 [Eh]
	 Total Energy              =    -465.1672305228444770 [Eh]

	 ================> DF-SCS-MP2 Energies <==================
	-----------------------------------------------------------
	 SCS Same-Spin Scale       =       0.3333333333333333 [-]
	 SCS Opposite-Spin Scale   =       1.2000000000000000 [-]
	 SCS Same-Spin Energy      =      -0.1659498806588528 [Eh]
	 SCS Opposite-Spin Energy  =      -1.9991205581577329 [Eh]
	 SCS Correlation Energy    =      -2.1650704388165858 [Eh]
	 SCS Total Energy          =    -465.1685175212197123 [Eh]
	-----------------------------------------------------------

  Dipole Moment: [D]
     X:    -0.1185      Y:    -0.3654      Z:    -0.1607     Total:     0.4164

*** Psi4 exiting successfully. Buy a developer a beer!
