                               Psi4 1.3.2 release

  ==> Input File <==

--------------------------------------------------------------------------
#psi4
#
memory 32 gb

molecule  {
0 1
  O        0.0723890     1.0222580     0.5077940
  C       -0.7418240    -1.0387750     0.1269710
  C        0.6883760    -1.0936210     0.0623120
  C       -1.0714850     0.2632460     0.3951280
  C        1.1483801     0.1590600     0.3511716
  C       -2.3562760     1.0018630     0.5198060
  C        2.4849120     0.8120840     0.3409220
  C       -1.6830070    -2.1819480    -0.0885940
  C        1.5125100    -2.3214750    -0.1762480
  C       -2.8486430     1.5569180    -0.8246800
  C        2.8605988     1.5876855    -0.9300345
  H        3.2336060     0.0303330     0.5193890
  H        2.5305840     1.4962520     1.1974230
  H       -2.2159340     1.8224920     1.2344330
  H       -3.1130010     0.3316860     0.9491040
  H       -1.4229750    -3.0387300     0.5441040
  H       -2.7119990    -1.8902510     0.1457090
  H       -1.6650160    -2.5262940    -1.1310850
  H        2.5139960    -2.0634500    -0.5387900
  H        1.6307130    -2.9166200     0.7385330
  H        1.0429930    -2.9642660    -0.9286680
  H        2.8128660     0.8932150    -1.8063400
  H        3.7971100     2.0487280    -0.8855010
  H        2.0638530     2.3513280    -1.1313670
  H       -2.0994070     2.2298930    -1.2537260
  H       -3.7828960     2.1123340    -0.7007770
  H       -3.0218850     0.7415120    -1.5334270
units angstrom
no_reorient  #important for SAPT in psi4, default
symmetry c1  #important for SAPT in psi4, default
}

set PROPERTIES_ORIGIN ["COM"]
properties('MP2/aug-cc-pvtz', properties = ['dipole'])
--------------------------------------------------------------------------

    Molecular point group: c1
  Charge       = 0
  Multiplicity = 1
  Basis Set: AUG-CC-PVTZ
    Blend: AUG-CC-PVTZ
  Basis Set: (AUG-CC-PVTZ AUX)
    Blend: AUG-CC-PVTZ-JKFIT

    Orbital Energies [Eh]
    ---------------------

    Doubly Occupied:

       1A    -20.597008     2A    -11.271021     3A    -11.269386
       4A    -11.230489     5A    -11.229678     6A    -11.223449
       7A    -11.223290     8A    -11.217709     9A    -11.215845
      10A    -11.215432    11A    -11.215380    12A     -1.425332
      13A     -1.099555    14A     -1.078314    15A     -1.035785
      16A     -0.990914    17A     -0.932855    18A     -0.927980
      19A     -0.871412    20A     -0.815801    21A     -0.747563
      22A     -0.721833    23A     -0.656757    24A     -0.626312
      25A     -0.610057    26A     -0.608609    27A     -0.589272
      28A     -0.581646    29A     -0.567913    30A     -0.556256
      31A     -0.549645    32A     -0.542483    33A     -0.527681
      34A     -0.522936    35A     -0.520829    36A     -0.503600
      37A     -0.494272    38A     -0.490771    39A     -0.478448
      40A     -0.467972    41A     -0.361476    42A     -0.280650

  @DF-RHF Final Energy:  -463.00710821601541

   => Energetics <=

    Nuclear Repulsion Energy =            628.9032292029785367
    One-Electron Energy =               -1875.6334390284951041
    Two-Electron Energy =                 783.7231016095012137
    Total Energy =                       -463.0071082160153537
  Basis Set: (AUG-CC-PVTZ AUX)
    Blend: AUG-CC-PVTZ-RI
    Molecular point group: c1

    Geometry (in Angstrom), charge = 0, multiplicity = 1:

       Center              X                  Y                   Z               Mass
    ------------   -----------------  -----------------  -----------------  -----------------
         O            0.067986039759     1.022658726073     0.502361855076    15.994914619570
         C           -0.746226960241    -1.038374273927     0.121538855076    12.000000000000
         C            0.683973039759    -1.093220273927     0.056879855076    12.000000000000
         C           -1.075887960241     0.263646726073     0.389695855076    12.000000000000
         C            1.143977139759     0.159460726073     0.345739455076    12.000000000000
         C           -2.360678960241     1.002263726073     0.514373855076    12.000000000000
         C            2.480509039759     0.812484726073     0.335489855076    12.000000000000
         C           -1.687409960241    -2.181547273927    -0.094026144924    12.000000000000
         C            1.508107039759    -2.321074273927    -0.181680144924    12.000000000000
         C           -2.853045960241     1.557318726073    -0.830112144924    12.000000000000
         C            2.856195839759     1.588086226073    -0.935466644924    12.000000000000
         H            3.229203039759     0.030733726073     0.513956855076     1.007825032230
         H            2.526181039759     1.496652726073     1.191990855076     1.007825032230
         H           -2.220336960241     1.822892726073     1.229000855076     1.007825032230
         H           -3.117403960241     0.332086726073     0.943671855076     1.007825032230
         H           -1.427377960241    -3.038329273927     0.538671855076     1.007825032230
         H           -2.716401960241    -1.889850273927     0.140276855076     1.007825032230
         H           -1.669418960241    -2.525893273927    -1.136517144924     1.007825032230
         H            2.509593039759    -2.063049273927    -0.544222144924     1.007825032230
         H            1.626310039759    -2.916219273927     0.733100855076     1.007825032230
         H            1.038590039759    -2.963865273927    -0.934100144924     1.007825032230
         H            2.808463039759     0.893615726073    -1.811772144924     1.007825032230
         H            3.792707039759     2.049128726073    -0.890933144924     1.007825032230
         H            2.059450039759     2.351728726073    -1.136799144924     1.007825032230
         H           -2.103809960241     2.230293726073    -1.259158144924     1.007825032230
         H           -3.787298960241     2.112734726073    -0.706209144924     1.007825032230
         H           -3.026287960241     0.741912726073    -1.538859144924     1.007825032230

  Basis Set: AUG-CC-PVTZ
    Blend: AUG-CC-PVTZ
  Basis Set: (AUG-CC-PVTZ AUX)
    Blend: AUG-CC-PVTZ-JKFIT
	 Reference Energy          =    -463.0071082160154106 [Eh]
	 Singles Energy            =      -0.0000000000000000 [Eh]
	 Same-Spin Energy          =      -0.4971456996915203 [Eh]
	 Opposite-Spin Energy      =      -1.6674631521379895 [Eh]
	 Correlation Energy        =      -2.1646088518295099 [Eh]
	 Total Energy              =    -465.1717170678448952 [Eh]

	 ================> DF-SCS-MP2 Energies <==================
	-----------------------------------------------------------
	 SCS Same-Spin Scale       =       0.3333333333333333 [-]
	 SCS Opposite-Spin Scale   =       1.2000000000000000 [-]
	 SCS Same-Spin Energy      =      -0.1657152332305068 [Eh]
	 SCS Opposite-Spin Energy  =      -2.0009557825655873 [Eh]
	 SCS Correlation Energy    =      -2.1666710157960942 [Eh]
	 SCS Total Energy          =    -465.1737792318115225 [Eh]
	-----------------------------------------------------------

  Dipole Moment: [D]
     X:    -0.0462      Y:    -0.6775      Z:    -0.2393     Total:     0.7200

*** Psi4 exiting successfully. Buy a developer a beer!
