                               Psi4 1.3.2 release

  ==> Input File <==

--------------------------------------------------------------------------
#psi4
#
memory 32 gb

molecule  {
0 1
  O        0.0656497     1.0320827     0.5093875
  C       -0.7418240    -1.0387750     0.1269710
  C        0.6883760    -1.0936210     0.0623120
  C       -1.0714850     0.2632460     0.3951280
  C        1.1400710     0.1773790     0.3033030
  C       -2.3496908     1.0129160     0.5215099
  C        2.4849120     0.8120840     0.3409220
  C       -1.6830070    -2.1819480    -0.0885940
  C        1.5125100    -2.3214750    -0.1762480
  C       -2.8486430     1.5569180    -0.8246800
  C        2.8130920     1.5744450    -0.9510270
  H        3.2336060     0.0303330     0.5193890
  H        2.5305840     1.4962520     1.1974230
  H       -2.2159340     1.8224920     1.2344330
  H       -3.1130010     0.3316860     0.9491040
  H       -1.4229750    -3.0387300     0.5441040
  H       -2.7119990    -1.8902510     0.1457090
  H       -1.6650160    -2.5262940    -1.1310850
  H        2.5139960    -2.0634500    -0.5387900
  H        1.6307130    -2.9166200     0.7385330
  H        1.0429930    -2.9642660    -0.9286680
  H        2.8128660     0.8932150    -1.8063400
  H        3.7971100     2.0487280    -0.8855010
  H        2.0638530     2.3513280    -1.1313670
  H       -2.0994070     2.2298930    -1.2537260
  H       -3.7828960     2.1123340    -0.7007770
  H       -3.0218850     0.7415120    -1.5334270
units angstrom
no_reorient  #important for SAPT in psi4, default
symmetry c1  #important for SAPT in psi4, default
}

set PROPERTIES_ORIGIN ["COM"]
properties('MP2/aug-cc-pvtz', properties = ['dipole'])
--------------------------------------------------------------------------

    Molecular point group: c1
  Charge       = 0
  Multiplicity = 1
  Basis Set: AUG-CC-PVTZ
    Blend: AUG-CC-PVTZ
  Basis Set: (AUG-CC-PVTZ AUX)
    Blend: AUG-CC-PVTZ-JKFIT

    Orbital Energies [Eh]
    ---------------------

    Doubly Occupied:

       1A    -20.598245     2A    -11.270088     3A    -11.270032
       4A    -11.230010     5A    -11.229705     6A    -11.223609
       7A    -11.223334     8A    -11.217446     9A    -11.215580
      10A    -11.215376    11A    -11.214541    12A     -1.425903
      13A     -1.099426    14A     -1.078376    15A     -1.036034
      16A     -0.990365    17A     -0.932927    18A     -0.926625
      19A     -0.869931    20A     -0.815020    21A     -0.747632
      22A     -0.722360    23A     -0.656926    24A     -0.626134
      25A     -0.611022    26A     -0.609664    27A     -0.585721
      28A     -0.583967    29A     -0.567766    30A     -0.556095
      31A     -0.549876    32A     -0.533430    33A     -0.527752
      34A     -0.524436    35A     -0.521672    36A     -0.504933
      37A     -0.495050    38A     -0.492746    39A     -0.482343
      40A     -0.468235    41A     -0.361664    42A     -0.278993

  @DF-RHF Final Energy:  -463.01097689537403

   => Energetics <=

    Nuclear Repulsion Energy =            629.3042628634011635
    One-Electron Energy =               -1876.4484977354397870
    Two-Electron Energy =                 784.1332579766645949
    Total Energy =                       -463.0109768953740286
  Basis Set: (AUG-CC-PVTZ AUX)
    Blend: AUG-CC-PVTZ-RI
    Molecular point group: c1

    Geometry (in Angstrom), charge = 0, multiplicity = 1:

       Center              X                  Y                   Z               Mass
    ------------   -----------------  -----------------  -----------------  -----------------
         O            0.065838919612     1.030177858283     0.509085501756    15.994914619570
         C           -0.741634780388    -1.040679841717     0.126669001756    12.000000000000
         C            0.688565219612    -1.095525841717     0.062010001756    12.000000000000
         C           -1.071295780388     0.261341158283     0.394826001756    12.000000000000
         C            1.140260219612     0.175474158283     0.303001001756    12.000000000000
         C           -2.349501580388     1.011011158283     0.521207901756    12.000000000000
         C            2.485101219612     0.810179158283     0.340620001756    12.000000000000
         C           -1.682817780388    -2.183852841717    -0.088895998244    12.000000000000
         C            1.512699219612    -2.323379841717    -0.176549998244    12.000000000000
         C           -2.848453780388     1.555013158283    -0.824981998244    12.000000000000
         C            2.813281219612     1.572540158283    -0.951328998244    12.000000000000
         H            3.233795219612     0.028428158283     0.519087001756     1.007825032230
         H            2.530773219612     1.494347158283     1.197121001756     1.007825032230
         H           -2.215744780388     1.820587158283     1.234131001756     1.007825032230
         H           -3.112811780388     0.329781158283     0.948802001756     1.007825032230
         H           -1.422785780388    -3.040634841717     0.543802001756     1.007825032230
         H           -2.711809780388    -1.892155841717     0.145407001756     1.007825032230
         H           -1.664826780388    -2.528198841717    -1.131386998244     1.007825032230
         H            2.514185219612    -2.065354841717    -0.539091998244     1.007825032230
         H            1.630902219612    -2.918524841717     0.738231001756     1.007825032230
         H            1.043182219612    -2.966170841717    -0.928969998244     1.007825032230
         H            2.813055219612     0.891310158283    -1.806641998244     1.007825032230
         H            3.797299219612     2.046823158283    -0.885802998244     1.007825032230
         H            2.064042219612     2.349423158283    -1.131668998244     1.007825032230
         H           -2.099217780388     2.227988158283    -1.254027998244     1.007825032230
         H           -3.782706780388     2.110429158283    -0.701078998244     1.007825032230
         H           -3.021695780388     0.739607158283    -1.533728998244     1.007825032230

  Basis Set: AUG-CC-PVTZ
    Blend: AUG-CC-PVTZ
  Basis Set: (AUG-CC-PVTZ AUX)
    Blend: AUG-CC-PVTZ-JKFIT
	 Reference Energy          =    -463.0109768953740286 [Eh]
	 Singles Energy            =      -0.0000000000000000 [Eh]
	 Same-Spin Energy          =      -0.4971499169386830 [Eh]
	 Opposite-Spin Energy      =      -1.6675373368819133 [Eh]
	 Correlation Energy        =      -2.1646872538205963 [Eh]
	 Total Energy              =    -465.1756641491946311 [Eh]

	 ================> DF-SCS-MP2 Energies <==================
	-----------------------------------------------------------
	 SCS Same-Spin Scale       =       0.3333333333333333 [-]
	 SCS Opposite-Spin Scale   =       1.2000000000000000 [-]
	 SCS Same-Spin Energy      =      -0.1657166389795610 [Eh]
	 SCS Opposite-Spin Energy  =      -2.0010448042582958 [Eh]
	 SCS Correlation Energy    =      -2.1667614432378568 [Eh]
	 SCS Total Energy          =    -465.1777383386119027 [Eh]
	-----------------------------------------------------------

  Dipole Moment: [D]
     X:    -0.0054      Y:    -0.6875      Z:    -0.2232     Total:     0.7228

*** Psi4 exiting successfully. Buy a developer a beer!
