                               Psi4 1.3.2 release

  ==> Input File <==

--------------------------------------------------------------------------
#psi4
#
memory 32 gb

molecule  {
0 1
  O        0.0723890     1.0222580     0.5077940
  C       -0.7404445    -1.0142965     0.1318863
  C        0.6883760    -1.0936210     0.0623120
  C       -1.0714850     0.2632460     0.3951280
  C        1.1174420     0.1847518     0.3056460
  C       -2.3562760     1.0018630     0.5198060
  C        2.4849120     0.8120840     0.3409220
  C       -1.6830070    -2.1819480    -0.0885940
  C        1.5125100    -2.3214750    -0.1762480
  C       -2.8486430     1.5569180    -0.8246800
  C        2.8130920     1.5744450    -0.9510270
  H        3.2336060     0.0303330     0.5193890
  H        2.5305840     1.4962520     1.1974230
  H       -2.2159340     1.8224920     1.2344330
  H       -3.1130010     0.3316860     0.9491040
  H       -1.4229750    -3.0387300     0.5441040
  H       -2.7119990    -1.8902510     0.1457090
  H       -1.6650160    -2.5262940    -1.1310850
  H        2.5139960    -2.0634500    -0.5387900
  H        1.6307130    -2.9166200     0.7385330
  H        1.0429930    -2.9642660    -0.9286680
  H        2.8128660     0.8932150    -1.8063400
  H        3.7971100     2.0487280    -0.8855010
  H        2.0638530     2.3513280    -1.1313670
  H       -2.0994070     2.2298930    -1.2537260
  H       -3.7828960     2.1123340    -0.7007770
  H       -3.0218850     0.7415120    -1.5334270
units angstrom
no_reorient  #important for SAPT in psi4, default
symmetry c1  #important for SAPT in psi4, default
}

set PROPERTIES_ORIGIN ["COM"]
properties('MP2/aug-cc-pvtz', properties = ['dipole'])
--------------------------------------------------------------------------

    Molecular point group: c1
  Charge       = 0
  Multiplicity = 1
  Basis Set: AUG-CC-PVTZ
    Blend: AUG-CC-PVTZ
  Basis Set: (AUG-CC-PVTZ AUX)
    Blend: AUG-CC-PVTZ-JKFIT

    Orbital Energies [Eh]
    ---------------------

    Doubly Occupied:

       1A    -20.600288     2A    -11.270087     3A    -11.265150
       4A    -11.230194     5A    -11.229951     6A    -11.223923
       7A    -11.223481     8A    -11.215291     9A    -11.214530
      10A    -11.214274    11A    -11.213190    12A     -1.439424
      13A     -1.099666    14A     -1.078081    15A     -1.034860
      16A     -0.988422    17A     -0.933897    18A     -0.928705
      19A     -0.868732    20A     -0.816506    21A     -0.754577
      22A     -0.720662    23A     -0.660051    24A     -0.631189
      25A     -0.610291    26A     -0.608326    27A     -0.587171
      28A     -0.582791    29A     -0.567638    30A     -0.555120
      31A     -0.548274    32A     -0.533473    33A     -0.529390
      34A     -0.523605    35A     -0.521028    36A     -0.505557
      37A     -0.494963    38A     -0.491525    39A     -0.484271
      40A     -0.464679    41A     -0.362912    42A     -0.281620

  @DF-RHF Final Energy:  -463.01306061515800

   => Energetics <=

    Nuclear Repulsion Energy =            630.1787360834021001
    One-Electron Energy =               -1878.1680652034917784
    Two-Electron Energy =                 784.9762685049316815
    Total Energy =                       -463.0130606151579968
  Basis Set: (AUG-CC-PVTZ AUX)
    Blend: AUG-CC-PVTZ-RI
    Molecular point group: c1

    Geometry (in Angstrom), charge = 0, multiplicity = 1:

       Center              X                  Y                   Z               Mass
    ------------   -----------------  -----------------  -----------------  -----------------
         O            0.074065346228     1.019745517655     0.507221393865    15.994914619570
         C           -0.738768153772    -1.016808982345     0.131313693865    12.000000000000
         C            0.690052346228    -1.096133482345     0.061739393865    12.000000000000
         C           -1.069808653772     0.260733517655     0.394555393865    12.000000000000
         C            1.119118346228     0.182239317655     0.305073393865    12.000000000000
         C           -2.354599653772     0.999350517655     0.519233393865    12.000000000000
         C            2.486588346228     0.809571517655     0.340349393865    12.000000000000
         C           -1.681330653772    -2.184460482345    -0.089166606135    12.000000000000
         C            1.514186346228    -2.323987482345    -0.176820606135    12.000000000000
         C           -2.846966653772     1.554405517655    -0.825252606135    12.000000000000
         C            2.814768346228     1.571932517655    -0.951599606135    12.000000000000
         H            3.235282346228     0.027820517655     0.518816393865     1.007825032230
         H            2.532260346228     1.493739517655     1.196850393865     1.007825032230
         H           -2.214257653772     1.819979517655     1.233860393865     1.007825032230
         H           -3.111324653772     0.329173517655     0.948531393865     1.007825032230
         H           -1.421298653772    -3.041242482345     0.543531393865     1.007825032230
         H           -2.710322653772    -1.892763482345     0.145136393865     1.007825032230
         H           -1.663339653772    -2.528806482345    -1.131657606135     1.007825032230
         H            2.515672346228    -2.065962482345    -0.539362606135     1.007825032230
         H            1.632389346228    -2.919132482345     0.737960393865     1.007825032230
         H            1.044669346228    -2.966778482345    -0.929240606135     1.007825032230
         H            2.814542346228     0.890702517655    -1.806912606135     1.007825032230
         H            3.798786346228     2.046215517655    -0.886073606135     1.007825032230
         H            2.065529346228     2.348815517655    -1.131939606135     1.007825032230
         H           -2.097730653772     2.227380517655    -1.254298606135     1.007825032230
         H           -3.781219653772     2.109821517655    -0.701349606135     1.007825032230
         H           -3.020208653772     0.738999517655    -1.533999606135     1.007825032230

  Basis Set: AUG-CC-PVTZ
    Blend: AUG-CC-PVTZ
  Basis Set: (AUG-CC-PVTZ AUX)
    Blend: AUG-CC-PVTZ-JKFIT
	 Reference Energy          =    -463.0130606151579968 [Eh]
	 Singles Energy            =      -0.0000000000000000 [Eh]
	 Same-Spin Energy          =      -0.4962718424076321 [Eh]
	 Opposite-Spin Energy      =      -1.6656631133481916 [Eh]
	 Correlation Energy        =      -2.1619349557558238 [Eh]
	 Total Energy              =    -465.1749955709138362 [Eh]

	 ================> DF-SCS-MP2 Energies <==================
	-----------------------------------------------------------
	 SCS Same-Spin Scale       =       0.3333333333333333 [-]
	 SCS Opposite-Spin Scale   =       1.2000000000000000 [-]
	 SCS Same-Spin Energy      =      -0.1654239474692107 [Eh]
	 SCS Opposite-Spin Energy  =      -1.9987957360178299 [Eh]
	 SCS Correlation Energy    =      -2.1642196834870404 [Eh]
	 SCS Total Energy          =    -465.1772802986450301 [Eh]
	-----------------------------------------------------------

  Dipole Moment: [D]
     X:    -0.0559      Y:    -0.6425      Z:    -0.2092     Total:     0.6780

*** Psi4 exiting successfully. Buy a developer a beer!
