                               Psi4 1.4a3.dev225

  ==> Input File <==

--------------------------------------------------------------------------
#psi4
#
memory 32 gb

molecule  {
0 1
  O        0.0000040    -0.9323440    -0.5200900
  C       -0.7186120     1.1388030    -0.0293360
  C        0.7186000     1.1388090    -0.0293300
  C       -1.1092540    -0.1401520    -0.3350070
  C        1.1092550    -0.1401430    -0.3349960
  C       -2.4197690    -0.8327410    -0.4659430
  C        2.4373900    -0.8420265    -0.4677020
  C       -1.5881550     2.3237520     0.2504950
  C        1.5881310     2.3237650     0.2505070
  C       -2.6404590    -1.8837440     0.6266770
  C        2.6404800    -1.8837320     0.6266650
  H        3.2127060    -0.0780420    -0.4310990
  H        2.4812700    -1.3082390    -1.4528680
  H       -2.4812630    -1.3082740    -1.4528630
  H       -3.2127060    -0.0780720    -0.4311050
  H       -1.4004860     3.1330380    -0.4637010
  H       -2.6480190     2.0627510     0.1871390
  H       -1.4034730     2.7248980     1.2531230
  H        2.6479980     2.0627640     0.1871950
  H        1.4004870     3.1330370    -0.4637120
  H        1.4034130     2.7249310     1.2531200
  H        2.6185650    -1.4170920     1.6153140
  H        3.6057420    -2.3837880     0.5012060
  H        1.8526560    -2.6398250     0.5898280
  H       -1.8526300    -2.6398320     0.5898440
  H       -3.6057190    -2.3838080     0.5012310
  H       -2.6185400    -1.4170920     1.6153210
units angstrom
no_reorient  #important for SAPT in psi4, default
symmetry c1  #important for SAPT in psi4, default
}

set PROPERTIES_ORIGIN ["COM"]
properties('MP2/aug-cc-pvtz', properties = ['dipole'])
--------------------------------------------------------------------------

    Molecular point group: c1
  Charge       = 0
  Multiplicity = 1
  Basis Set: AUG-CC-PVTZ
    Blend: AUG-CC-PVTZ
  Basis Set: (AUG-CC-PVTZ AUX)
    Blend: AUG-CC-PVTZ-JKFIT

    Orbital Energies [Eh]
    ---------------------

    Doubly Occupied:

       1A    -20.597346     2A    -11.271657     3A    -11.270694
       4A    -11.230178     5A    -11.229868     6A    -11.222392
       7A    -11.222369     8A    -11.217231     9A    -11.216251
      10A    -11.213389    11A    -11.213228    12A     -1.430344
      13A     -1.097495    14A     -1.078267    15A     -1.037011
      16A     -0.991111    17A     -0.932670    18A     -0.926177
      19A     -0.869152    20A     -0.816823    21A     -0.750954
      22A     -0.719060    23A     -0.658809    24A     -0.628015
      25A     -0.612726    26A     -0.610190    27A     -0.585833
      28A     -0.581781    29A     -0.568598    30A     -0.555802
      31A     -0.551973    32A     -0.532125    33A     -0.530877
      34A     -0.524736    35A     -0.518580    36A     -0.507419
      37A     -0.492515    38A     -0.490704    39A     -0.485375
      40A     -0.465943    41A     -0.360293    42A     -0.280257

  @DF-RHF Final Energy:  -463.01380611256621

   => Energetics <=

    Nuclear Repulsion Energy =            629.6522307227794499
    One-Electron Energy =               -1877.1396361618958508
    Two-Electron Energy =                 784.4735993265502429
    Total Energy =                       -463.0138061125661579
  Basis Set: (AUG-CC-PVTZ AUX)
    Blend: AUG-CC-PVTZ-RI
    Molecular point group: c1

    Geometry (in Angstrom), charge = 0, multiplicity = 1:

       Center              X                  Y                   Z               Mass
    ------------   -----------------  -----------------  -----------------  -----------------
         O           -0.001385355953    -0.930418839630    -0.496501351736    15.994914619570
         C           -0.720001355953     1.140728160370    -0.005747351736    12.000000000000
         C            0.717210644047     1.140734160370    -0.005741351736    12.000000000000
         C           -1.110643355953    -0.138226839630    -0.311418351736    12.000000000000
         C            1.107865644047    -0.138217839630    -0.311407351736    12.000000000000
         C           -2.421158355953    -0.830815839630    -0.442354351736    12.000000000000
         C            2.436000644047    -0.840101339630    -0.444113351736    12.000000000000
         C           -1.589544355953     2.325677160370     0.274083648264    12.000000000000
         C            1.586741644047     2.325690160370     0.274095648264    12.000000000000
         C           -2.641848355953    -1.881818839630     0.650265648264    12.000000000000
         C            2.639090644047    -1.881806839630     0.650253648264    12.000000000000
         H            3.211316644047    -0.076116839630    -0.407510351736     1.007825032230
         H            2.479880644047    -1.306313839630    -1.429279351736     1.007825032230
         H           -2.482652355953    -1.306348839630    -1.429274351736     1.007825032230
         H           -3.214095355953    -0.076146839630    -0.407516351736     1.007825032230
         H           -1.401875355953     3.134963160370    -0.440112351736     1.007825032230
         H           -2.649408355953     2.064676160370     0.210727648264     1.007825032230
         H           -1.404862355953     2.726823160370     1.276711648264     1.007825032230
         H            2.646608644047     2.064689160370     0.210783648264     1.007825032230
         H            1.399097644047     3.134962160370    -0.440123351736     1.007825032230
         H            1.402023644047     2.726856160370     1.276708648264     1.007825032230
         H            2.617175644047    -1.415166839630     1.638902648264     1.007825032230
         H            3.604352644047    -2.381862839630     0.524794648264     1.007825032230
         H            1.851266644047    -2.637899839630     0.613416648264     1.007825032230
         H           -1.854019355953    -2.637906839630     0.613432648264     1.007825032230
         H           -3.607108355953    -2.381882839630     0.524819648264     1.007825032230
         H           -2.619929355953    -1.415166839630     1.638909648264     1.007825032230

  Basis Set: AUG-CC-PVTZ
    Blend: AUG-CC-PVTZ
  Basis Set: (AUG-CC-PVTZ AUX)
    Blend: AUG-CC-PVTZ-JKFIT
	 Reference Energy          =    -463.0138061125662148 [Eh]
	 Singles Energy            =      -0.0000000000000000 [Eh]
	 Same-Spin Energy          =      -0.4967450738753925 [Eh]
	 Opposite-Spin Energy      =      -1.6666035717876109 [Eh]
	 Correlation Energy        =      -2.1633486456630031 [Eh]
	 Total Energy              =    -465.1771547582292214 [Eh]

	 ================> DF-SCS-MP2 Energies <==================
	-----------------------------------------------------------
	 SCS Same-Spin Scale       =       0.3333333333333333 [-]
	 SCS Opposite-Spin Scale   =       1.2000000000000000 [-]
	 SCS Same-Spin Energy      =      -0.1655816912917975 [Eh]
	 SCS Opposite-Spin Energy  =      -1.9999242861451330 [Eh]
	 SCS Correlation Energy    =      -2.1655059774369305 [Eh]
	 SCS Total Energy          =    -465.1793120900031226 [Eh]
	-----------------------------------------------------------

  Dipole Moment: [D]
     X:     0.0102      Y:     0.6315      Z:     0.2250     Total:     0.6705

*** Psi4 exiting successfully. Buy a developer a beer!
