                               Psi4 1.3.2 release

  ==> Input File <==

--------------------------------------------------------------------------
#psi4
#
memory 32 gb

molecule  {
0 1
  O        0.0723890     1.0222580     0.5077940
  C       -0.6956460    -1.0269598     0.1306336
  C        0.6883760    -1.0936210     0.0623120
  C       -1.0714850     0.2632460     0.3951280
  C        1.1400710     0.1773790     0.3033030
  C       -2.3293821     1.0451547     0.5296685
  C        2.4849120     0.8120840     0.3409220
  C       -1.6830070    -2.1819480    -0.0885940
  C        1.5125100    -2.3214750    -0.1762480
  C       -2.8486430     1.5569180    -0.8246800
  C        2.8130920     1.5744450    -0.9510270
  H        3.2336060     0.0303330     0.5193890
  H        2.5305840     1.4962520     1.1974230
  H       -2.2159340     1.8224920     1.2344330
  H       -3.1130010     0.3316860     0.9491040
  H       -1.4229750    -3.0387300     0.5441040
  H       -2.7119990    -1.8902510     0.1457090
  H       -1.6650160    -2.5262940    -1.1310850
  H        2.5139960    -2.0634500    -0.5387900
  H        1.6307130    -2.9166200     0.7385330
  H        1.0429930    -2.9642660    -0.9286680
  H        2.8128660     0.8932150    -1.8063400
  H        3.7971100     2.0487280    -0.8855010
  H        2.0638530     2.3513280    -1.1313670
  H       -2.0994070     2.2298930    -1.2537260
  H       -3.7828960     2.1123340    -0.7007770
  H       -3.0218850     0.7415120    -1.5334270
units angstrom
no_reorient  #important for SAPT in psi4, default
symmetry c1  #important for SAPT in psi4, default
}

set PROPERTIES_ORIGIN ["COM"]
properties('MP2/aug-cc-pvtz', properties = ['dipole'])
--------------------------------------------------------------------------

    Molecular point group: c1
  Charge       = 0
  Multiplicity = 1
  Basis Set: AUG-CC-PVTZ
    Blend: AUG-CC-PVTZ
  Basis Set: (AUG-CC-PVTZ AUX)
    Blend: AUG-CC-PVTZ-JKFIT

    Orbital Energies [Eh]
    ---------------------

    Doubly Occupied:

       1A    -20.598205     2A    -11.269173     3A    -11.268114
       4A    -11.231493     5A    -11.229681     6A    -11.223976
       7A    -11.223662     8A    -11.215999     9A    -11.214683
      10A    -11.214592    11A    -11.212563    12A     -1.430714
      13A     -1.103272    14A     -1.078132    15A     -1.036755
      16A     -0.986376    17A     -0.933669    18A     -0.926188
      19A     -0.871188    20A     -0.816329    21A     -0.747001
      22A     -0.729738    23A     -0.658646    24A     -0.628077
      25A     -0.612804    26A     -0.607715    27A     -0.584585
      28A     -0.584078    29A     -0.567010    30A     -0.553763
      31A     -0.547246    32A     -0.535203    33A     -0.527778
      34A     -0.523804    35A     -0.515741    36A     -0.506270
      37A     -0.494432    38A     -0.493305    39A     -0.477872
      40A     -0.475184    41A     -0.367227    42A     -0.276040

  @DF-RHF Final Energy:  -463.00487578294678

   => Energetics <=

    Nuclear Repulsion Energy =            630.1009144310161219
    One-Electron Energy =               -1878.0150184391827679
    Two-Electron Energy =                 784.9092282252199766
    Total Energy =                       -463.0048757829467831
  Basis Set: (AUG-CC-PVTZ AUX)
    Blend: AUG-CC-PVTZ-RI
    Molecular point group: c1

    Geometry (in Angstrom), charge = 0, multiplicity = 1:

       Center              X                  Y                   Z               Mass
    ------------   -----------------  -----------------  -----------------  -----------------
         O            0.066624799663     1.017910998928     0.506727037152    15.994914619570
         C           -0.701410200337    -1.031306801072     0.129566637152    12.000000000000
         C            0.682611799663    -1.097968001072     0.061245037152    12.000000000000
         C           -1.077249200337     0.258898998928     0.394061037152    12.000000000000
         C            1.134306799663     0.173031998928     0.302236037152    12.000000000000
         C           -2.335146300337     1.040807698928     0.528601537152    12.000000000000
         C            2.479147799663     0.807736998928     0.339855037152    12.000000000000
         C           -1.688771200337    -2.186295001072    -0.089660962848    12.000000000000
         C            1.506745799663    -2.325822001072    -0.177314962848    12.000000000000
         C           -2.854407200337     1.552570998928    -0.825746962848    12.000000000000
         C            2.807327799663     1.570097998928    -0.952093962848    12.000000000000
         H            3.227841799663     0.025985998928     0.518322037152     1.007825032230
         H            2.524819799663     1.491904998928     1.196356037152     1.007825032230
         H           -2.221698200337     1.818144998928     1.233366037152     1.007825032230
         H           -3.118765200337     0.327338998928     0.948037037152     1.007825032230
         H           -1.428739200337    -3.043077001072     0.543037037152     1.007825032230
         H           -2.717763200337    -1.894598001072     0.144642037152     1.007825032230
         H           -1.670780200337    -2.530641001072    -1.132151962848     1.007825032230
         H            2.508231799663    -2.067797001072    -0.539856962848     1.007825032230
         H            1.624948799663    -2.920967001072     0.737466037152     1.007825032230
         H            1.037228799663    -2.968613001072    -0.929734962848     1.007825032230
         H            2.807101799663     0.888867998928    -1.807406962848     1.007825032230
         H            3.791345799663     2.044380998928    -0.886567962848     1.007825032230
         H            2.058088799663     2.346980998928    -1.132433962848     1.007825032230
         H           -2.105171200337     2.225545998928    -1.254792962848     1.007825032230
         H           -3.788660200337     2.107986998928    -0.701843962848     1.007825032230
         H           -3.027649200337     0.737164998928    -1.534493962848     1.007825032230

  Basis Set: AUG-CC-PVTZ
    Blend: AUG-CC-PVTZ
  Basis Set: (AUG-CC-PVTZ AUX)
    Blend: AUG-CC-PVTZ-JKFIT
	 Reference Energy          =    -463.0048757829467831 [Eh]
	 Singles Energy            =      -0.0000000000000000 [Eh]
	 Same-Spin Energy          =      -0.4977617539439114 [Eh]
	 Opposite-Spin Energy      =      -1.6679351070728514 [Eh]
	 Correlation Energy        =      -2.1656968610167628 [Eh]
	 Total Energy              =    -465.1705726439635669 [Eh]

	 ================> DF-SCS-MP2 Energies <==================
	-----------------------------------------------------------
	 SCS Same-Spin Scale       =       0.3333333333333333 [-]
	 SCS Opposite-Spin Scale   =       1.2000000000000000 [-]
	 SCS Same-Spin Energy      =      -0.1659205846479704 [Eh]
	 SCS Opposite-Spin Energy  =      -2.0015221284874216 [Eh]
	 SCS Correlation Energy    =      -2.1674427131353919 [Eh]
	 SCS Total Energy          =    -465.1723184960821982 [Eh]
	-----------------------------------------------------------

  Dipole Moment: [D]
     X:    -0.0050      Y:    -0.6104      Z:    -0.2114     Total:     0.6460

*** Psi4 exiting successfully. Buy a developer a beer!
