                               Psi4 1.4a3.dev225

  ==> Input File <==

--------------------------------------------------------------------------
#psi4
#
memory 32 gb

molecule  {
0 1
  O        0.0000040    -0.9323440    -0.5200900
  C       -0.7186120     1.1388030    -0.0293360
  C        0.7186000     1.1388090    -0.0293300
  C       -1.1092540    -0.1401520    -0.3350070
  C        1.1092550    -0.1401430    -0.3349960
  C       -2.4197690    -0.8327410    -0.4659430
  C        2.4197760    -0.8327180    -0.4659420
  C       -1.6172140     2.3633515     0.2598466
  C        1.5881310     2.3237650     0.2505070
  C       -2.6404590    -1.8837440     0.6266770
  C        2.6404800    -1.8837320     0.6266650
  H        3.2127060    -0.0780420    -0.4310990
  H        2.4812700    -1.3082390    -1.4528680
  H       -2.4812630    -1.3082740    -1.4528630
  H       -3.2127060    -0.0780720    -0.4311050
  H       -1.4004860     3.1330380    -0.4637010
  H       -2.6480190     2.0627510     0.1871390
  H       -1.4034730     2.7248980     1.2531230
  H        2.6479980     2.0627640     0.1871950
  H        1.4004870     3.1330370    -0.4637120
  H        1.4034130     2.7249310     1.2531200
  H        2.6185650    -1.4170920     1.6153140
  H        3.6057420    -2.3837880     0.5012060
  H        1.8526560    -2.6398250     0.5898280
  H       -1.8526300    -2.6398320     0.5898440
  H       -3.6057190    -2.3838080     0.5012310
  H       -2.6185400    -1.4170920     1.6153210
units angstrom
no_reorient  #important for SAPT in psi4, default
symmetry c1  #important for SAPT in psi4, default
}

set PROPERTIES_ORIGIN ["COM"]
properties('MP2/aug-cc-pvtz', properties = ['dipole'])
--------------------------------------------------------------------------

    Molecular point group: c1
  Charge       = 0
  Multiplicity = 1
  Basis Set: AUG-CC-PVTZ
    Blend: AUG-CC-PVTZ
  Basis Set: (AUG-CC-PVTZ AUX)
    Blend: AUG-CC-PVTZ-JKFIT

    Orbital Energies [Eh]
    ---------------------

    Doubly Occupied:

       1A    -20.597095     2A    -11.270648     3A    -11.270528
       4A    -11.229877     5A    -11.229806     6A    -11.222431
       7A    -11.221454     8A    -11.219057     9A    -11.216772
      10A    -11.213337    11A    -11.213316    12A     -1.430324
      13A     -1.094549    14A     -1.078657    15A     -1.036459
      16A     -0.988604    17A     -0.934073    18A     -0.926840
      19A     -0.869927    20A     -0.816173    21A     -0.750964
      22A     -0.717529    23A     -0.658539    24A     -0.627770
      25A     -0.611325    26A     -0.609647    27A     -0.586543
      28A     -0.581470    29A     -0.572635    30A     -0.558004
      31A     -0.554254    32A     -0.535014    33A     -0.530594
      34A     -0.521208    35A     -0.513574    36A     -0.505402
      37A     -0.492230    38A     -0.490804    39A     -0.484524
      40A     -0.467722    41A     -0.361452    42A     -0.280104

  @DF-RHF Final Energy:  -463.01241353221070

   => Energetics <=

    Nuclear Repulsion Energy =            629.0315389260115353
    One-Electron Energy =               -1875.9054293715823860
    Two-Electron Energy =                 783.8614769133600930
    Total Energy =                       -463.0124135322107577
  Basis Set: (AUG-CC-PVTZ AUX)
    Blend: AUG-CC-PVTZ-RI
    Molecular point group: c1

    Geometry (in Angstrom), charge = 0, multiplicity = 1:

       Center              X                  Y                   Z               Mass
    ------------   -----------------  -----------------  -----------------  -----------------
         O            0.002296445100    -0.934276948727    -0.497377890647    15.994914619570
         C           -0.716319554900     1.136870051273    -0.006623890647    12.000000000000
         C            0.720892445100     1.136876051273    -0.006617890647    12.000000000000
         C           -1.106961554900    -0.142084948727    -0.312294890647    12.000000000000
         C            1.111547445100    -0.142075948727    -0.312283890647    12.000000000000
         C           -2.417476554900    -0.834673948727    -0.443230890647    12.000000000000
         C            2.422068445100    -0.834650948727    -0.443229890647    12.000000000000
         C           -1.614921554900     2.361418551273     0.282558709353    12.000000000000
         C            1.590423445100     2.321832051273     0.273219109353    12.000000000000
         C           -2.638166554900    -1.885676948727     0.649389109353    12.000000000000
         C            2.642772445100    -1.885664948727     0.649377109353    12.000000000000
         H            3.214998445100    -0.079974948727    -0.408386890647     1.007825032230
         H            2.483562445100    -1.310171948727    -1.430155890647     1.007825032230
         H           -2.478970554900    -1.310206948727    -1.430150890647     1.007825032230
         H           -3.210413554900    -0.080004948727    -0.408392890647     1.007825032230
         H           -1.398193554900     3.131105051273    -0.440988890647     1.007825032230
         H           -2.645726554900     2.060818051273     0.209851109353     1.007825032230
         H           -1.401180554900     2.722965051273     1.275835109353     1.007825032230
         H            2.650290445100     2.060831051273     0.209907109353     1.007825032230
         H            1.402779445100     3.131104051273    -0.440999890647     1.007825032230
         H            1.405705445100     2.722998051273     1.275832109353     1.007825032230
         H            2.620857445100    -1.419024948727     1.638026109353     1.007825032230
         H            3.608034445100    -2.385720948727     0.523918109353     1.007825032230
         H            1.854948445100    -2.641757948727     0.612540109353     1.007825032230
         H           -1.850337554900    -2.641764948727     0.612556109353     1.007825032230
         H           -3.603426554900    -2.385740948727     0.523943109353     1.007825032230
         H           -2.616247554900    -1.419024948727     1.638033109353     1.007825032230

  Basis Set: AUG-CC-PVTZ
    Blend: AUG-CC-PVTZ
  Basis Set: (AUG-CC-PVTZ AUX)
    Blend: AUG-CC-PVTZ-JKFIT
	 Reference Energy          =    -463.0124135322107009 [Eh]
	 Singles Energy            =      -0.0000000000000000 [Eh]
	 Same-Spin Energy          =      -0.4965274621141141 [Eh]
	 Opposite-Spin Energy      =      -1.6665021338333581 [Eh]
	 Correlation Energy        =      -2.1630295959474721 [Eh]
	 Total Energy              =    -465.1754431281581788 [Eh]

	 ================> DF-SCS-MP2 Energies <==================
	-----------------------------------------------------------
	 SCS Same-Spin Scale       =       0.3333333333333333 [-]
	 SCS Opposite-Spin Scale   =       1.2000000000000000 [-]
	 SCS Same-Spin Energy      =      -0.1655091540380380 [Eh]
	 SCS Opposite-Spin Energy  =      -1.9998025606000296 [Eh]
	 SCS Correlation Energy    =      -2.1653117146380678 [Eh]
	 SCS Total Energy          =    -465.1777252468487518 [Eh]
	-----------------------------------------------------------

  Dipole Moment: [D]
     X:    -0.0069      Y:     0.6552      Z:     0.2279     Total:     0.6938

*** Psi4 exiting successfully. Buy a developer a beer!
