                               Psi4 1.3.2 release

  ==> Input File <==

--------------------------------------------------------------------------
#psi4
#
memory 32 gb

molecule  {
0 1
  O        0.1109777     0.9621223     0.4980572
  C       -0.7418240    -1.0387750     0.1269710
  C        0.6883760    -1.0936210     0.0623120
  C       -1.0714850     0.2632460     0.3951280
  C        1.1400710     0.1773790     0.3033030
  C       -2.3937154     0.9343936     0.5093881
  C        2.4849120     0.8120840     0.3409220
  C       -1.6830070    -2.1819480    -0.0885940
  C        1.5125100    -2.3214750    -0.1762480
  C       -2.8486430     1.5569180    -0.8246800
  C        2.8130920     1.5744450    -0.9510270
  H        3.2336060     0.0303330     0.5193890
  H        2.5305840     1.4962520     1.1974230
  H       -2.2159340     1.8224920     1.2344330
  H       -3.1130010     0.3316860     0.9491040
  H       -1.4229750    -3.0387300     0.5441040
  H       -2.7119990    -1.8902510     0.1457090
  H       -1.6650160    -2.5262940    -1.1310850
  H        2.5139960    -2.0634500    -0.5387900
  H        1.6307130    -2.9166200     0.7385330
  H        1.0429930    -2.9642660    -0.9286680
  H        2.8128660     0.8932150    -1.8063400
  H        3.7971100     2.0487280    -0.8855010
  H        2.0638530     2.3513280    -1.1313670
  H       -2.0994070     2.2298930    -1.2537260
  H       -3.7828960     2.1123340    -0.7007770
  H       -3.0218850     0.7415120    -1.5334270
units angstrom
no_reorient  #important for SAPT in psi4, default
symmetry c1  #important for SAPT in psi4, default
}

set PROPERTIES_ORIGIN ["COM"]
properties('MP2/aug-cc-pvtz', properties = ['dipole'])
--------------------------------------------------------------------------

    Molecular point group: c1
  Charge       = 0
  Multiplicity = 1
  Basis Set: AUG-CC-PVTZ
    Blend: AUG-CC-PVTZ
  Basis Set: (AUG-CC-PVTZ AUX)
    Blend: AUG-CC-PVTZ-JKFIT

    Orbital Energies [Eh]
    ---------------------

    Doubly Occupied:

       1A    -20.601034     2A    -11.267506     3A    -11.266382
       4A    -11.233692     5A    -11.230127     6A    -11.222385
       7A    -11.218457     8A    -11.216770     9A    -11.215672
      10A    -11.214056    11A    -11.207287    12A     -1.455368
      13A     -1.096595    14A     -1.080780    15A     -1.037455
      16A     -0.988578    17A     -0.935152    18A     -0.927866
      19A     -0.872241    20A     -0.821905    21A     -0.758251
      22A     -0.718795    23A     -0.667254    24A     -0.636884
      25A     -0.616882    26A     -0.605512    27A     -0.594794
      28A     -0.580198    29A     -0.567504    30A     -0.553970
      31A     -0.548486    32A     -0.534329    33A     -0.529127
      34A     -0.521600    35A     -0.521076    36A     -0.511555
      37A     -0.497725    38A     -0.491305    39A     -0.480950
      40A     -0.458540    41A     -0.355420    42A     -0.278368

  @DF-RHF Final Energy:  -463.00382492726555

   => Energetics <=

    Nuclear Repulsion Energy =            631.3220099370479375
    One-Electron Energy =               -1880.3760121660698132
    Two-Electron Energy =                 786.0501773017564346
    Total Energy =                       -463.0038249272655548
  Basis Set: (AUG-CC-PVTZ AUX)
    Blend: AUG-CC-PVTZ-RI
    Molecular point group: c1

    Geometry (in Angstrom), charge = 0, multiplicity = 1:

       Center              X                  Y                   Z               Mass
    ------------   -----------------  -----------------  -----------------  -----------------
         O            0.109873715951     0.973767799229     0.499902772975    15.994914619570
         C           -0.742927984049    -1.027129500771     0.128816572975    12.000000000000
         C            0.687272015951    -1.081975500771     0.064157572975    12.000000000000
         C           -1.072588984049     0.274891499229     0.396973572975    12.000000000000
         C            1.138967015951     0.189024499229     0.305148572975    12.000000000000
         C           -2.394819384049     0.946039099229     0.511233672975    12.000000000000
         C            2.483808015951     0.823729499229     0.342767572975    12.000000000000
         C           -1.684110984049    -2.170302500771    -0.086748427025    12.000000000000
         C            1.511406015951    -2.309829500771    -0.174402427025    12.000000000000
         C           -2.849746984049     1.568563499229    -0.822834427025    12.000000000000
         C            2.811988015951     1.586090499229    -0.949181427025    12.000000000000
         H            3.232502015951     0.041978499229     0.521234572975     1.007825032230
         H            2.529480015951     1.507897499229     1.199268572975     1.007825032230
         H           -2.217037984049     1.834137499229     1.236278572975     1.007825032230
         H           -3.114104984049     0.343331499229     0.950949572975     1.007825032230
         H           -1.424078984049    -3.027084500771     0.545949572975     1.007825032230
         H           -2.713102984049    -1.878605500771     0.147554572975     1.007825032230
         H           -1.666119984049    -2.514648500771    -1.129239427025     1.007825032230
         H            2.512892015951    -2.051804500771    -0.536944427025     1.007825032230
         H            1.629609015951    -2.904974500771     0.740378572975     1.007825032230
         H            1.041889015951    -2.952620500771    -0.926822427025     1.007825032230
         H            2.811762015951     0.904860499229    -1.804494427025     1.007825032230
         H            3.796006015951     2.060373499229    -0.883655427025     1.007825032230
         H            2.062749015951     2.362973499229    -1.129521427025     1.007825032230
         H           -2.100510984049     2.241538499229    -1.251880427025     1.007825032230
         H           -3.783999984049     2.123979499229    -0.698931427025     1.007825032230
         H           -3.022988984049     0.753157499229    -1.531581427025     1.007825032230

  Basis Set: AUG-CC-PVTZ
    Blend: AUG-CC-PVTZ
  Basis Set: (AUG-CC-PVTZ AUX)
    Blend: AUG-CC-PVTZ-JKFIT
	 Reference Energy          =    -463.0038249272655548 [Eh]
	 Singles Energy            =      -0.0000000000000000 [Eh]
	 Same-Spin Energy          =      -0.4970908543171225 [Eh]
	 Opposite-Spin Energy      =      -1.6653658427560987 [Eh]
	 Correlation Energy        =      -2.1624566970732211 [Eh]
	 Total Energy              =    -465.1662816243387510 [Eh]

	 ================> DF-SCS-MP2 Energies <==================
	-----------------------------------------------------------
	 SCS Same-Spin Scale       =       0.3333333333333333 [-]
	 SCS Opposite-Spin Scale   =       1.2000000000000000 [-]
	 SCS Same-Spin Energy      =      -0.1656969514390408 [Eh]
	 SCS Opposite-Spin Energy  =      -1.9984390113073183 [Eh]
	 SCS Correlation Energy    =      -2.1641359627463590 [Eh]
	 SCS Total Energy          =    -465.1679608900118978 [Eh]
	-----------------------------------------------------------

  Dipole Moment: [D]
     X:    -0.1627      Y:    -0.4312      Z:    -0.1843     Total:     0.4964

*** Psi4 exiting successfully. Buy a developer a beer!
