                               Psi4 1.3.2 release

  ==> Input File <==

--------------------------------------------------------------------------
#psi4
#
memory 32 gb

molecule  {
0 1
  O        0.0723890     1.0222580     0.5077940
  C       -0.7418240    -1.0387750     0.1269710
  C        0.6883760    -1.0936210     0.0623120
  C       -1.1405967     0.2443296     0.3924257
  C        1.1400710     0.1773790     0.3033030
  C       -2.3562760     1.0018630     0.5198060
  C        2.4849120     0.8120840     0.3409220
  C       -1.7425880    -2.1322822    -0.0776059
  C        1.5125100    -2.3214750    -0.1762480
  C       -2.8486430     1.5569180    -0.8246800
  C        2.8130920     1.5744450    -0.9510270
  H        3.2336060     0.0303330     0.5193890
  H        2.5305840     1.4962520     1.1974230
  H       -2.2159340     1.8224920     1.2344330
  H       -3.1130010     0.3316860     0.9491040
  H       -1.4229750    -3.0387300     0.5441040
  H       -2.7119990    -1.8902510     0.1457090
  H       -1.6650160    -2.5262940    -1.1310850
  H        2.5139960    -2.0634500    -0.5387900
  H        1.6307130    -2.9166200     0.7385330
  H        1.0429930    -2.9642660    -0.9286680
  H        2.8128660     0.8932150    -1.8063400
  H        3.7971100     2.0487280    -0.8855010
  H        2.0638530     2.3513280    -1.1313670
  H       -2.0994070     2.2298930    -1.2537260
  H       -3.7828960     2.1123340    -0.7007770
  H       -3.0218850     0.7415120    -1.5334270
units angstrom
no_reorient  #important for SAPT in psi4, default
symmetry c1  #important for SAPT in psi4, default
}

set PROPERTIES_ORIGIN ["COM"]
properties('MP2/aug-cc-pvtz', properties = ['dipole'])
--------------------------------------------------------------------------

    Molecular point group: c1
  Charge       = 0
  Multiplicity = 1
  Basis Set: AUG-CC-PVTZ
    Blend: AUG-CC-PVTZ
  Basis Set: (AUG-CC-PVTZ AUX)
    Blend: AUG-CC-PVTZ-JKFIT

    Orbital Energies [Eh]
    ---------------------

    Doubly Occupied:

       1A    -20.587595     2A    -11.273186     3A    -11.268056
       4A    -11.230637     5A    -11.229503     6A    -11.224366
       7A    -11.222831     8A    -11.221736     9A    -11.216370
      10A    -11.215855    11A    -11.215253    12A     -1.403240
      13A     -1.098973    14A     -1.082865    15A     -1.039724
      16A     -0.993226    17A     -0.929399    18A     -0.924992
      19A     -0.874674    20A     -0.817339    21A     -0.737632
      22A     -0.724658    23A     -0.654566    24A     -0.620025
      25A     -0.615448    26A     -0.609935    27A     -0.590689
      28A     -0.582349    29A     -0.566655    30A     -0.560289
      31A     -0.541922    32A     -0.535153    33A     -0.527636
      34A     -0.521426    35A     -0.509986    36A     -0.503370
      37A     -0.498790    38A     -0.496889    39A     -0.482509
      40A     -0.473023    41A     -0.358531    42A     -0.278894

  @DF-RHF Final Energy:  -462.99611608194442

   => Energetics <=

    Nuclear Repulsion Energy =            628.8875876910378793
    One-Electron Energy =               -1875.6470126069186790
    Two-Electron Energy =                 783.7633088339364349
    Total Energy =                       -462.9961160819443649
  Basis Set: (AUG-CC-PVTZ AUX)
    Blend: AUG-CC-PVTZ-RI
    Molecular point group: c1

    Geometry (in Angstrom), charge = 0, multiplicity = 1:

       Center              X                  Y                   Z               Mass
    ------------   -----------------  -----------------  -----------------  -----------------
         O            0.082541006392     1.019832441071     0.507140339495    15.994914619570
         C           -0.731671993608    -1.041200558929     0.126317339495    12.000000000000
         C            0.698528006392    -1.096046558929     0.061658339495    12.000000000000
         C           -1.130444693608     0.241904041071     0.391772039495    12.000000000000
         C            1.150223006392     0.174953441071     0.302649339495    12.000000000000
         C           -2.346123993608     0.999437441071     0.519152339495    12.000000000000
         C            2.495064006392     0.809658441071     0.340268339495    12.000000000000
         C           -1.732435993608    -2.134707758929    -0.078259560505    12.000000000000
         C            1.522662006392    -2.323900558929    -0.176901660505    12.000000000000
         C           -2.838490993608     1.554492441071    -0.825333660505    12.000000000000
         C            2.823244006392     1.572019441071    -0.951680660505    12.000000000000
         H            3.243758006392     0.027907441071     0.518735339495     1.007825032230
         H            2.540736006392     1.493826441071     1.196769339495     1.007825032230
         H           -2.205781993608     1.820066441071     1.233779339495     1.007825032230
         H           -3.102848993608     0.329260441071     0.948450339495     1.007825032230
         H           -1.412822993608    -3.041155558929     0.543450339495     1.007825032230
         H           -2.701846993608    -1.892676558929     0.145055339495     1.007825032230
         H           -1.654863993608    -2.528719558929    -1.131738660505     1.007825032230
         H            2.524148006392    -2.065875558929    -0.539443660505     1.007825032230
         H            1.640865006392    -2.919045558929     0.737879339495     1.007825032230
         H            1.053145006392    -2.966691558929    -0.929321660505     1.007825032230
         H            2.823018006392     0.890789441071    -1.806993660505     1.007825032230
         H            3.807262006392     2.046302441071    -0.886154660505     1.007825032230
         H            2.074005006392     2.348902441071    -1.132020660505     1.007825032230
         H           -2.089254993608     2.227467441071    -1.254379660505     1.007825032230
         H           -3.772743993608     2.109908441071    -0.701430660505     1.007825032230
         H           -3.011732993608     0.739086441071    -1.534080660505     1.007825032230

  Basis Set: AUG-CC-PVTZ
    Blend: AUG-CC-PVTZ
  Basis Set: (AUG-CC-PVTZ AUX)
    Blend: AUG-CC-PVTZ-JKFIT
	 Reference Energy          =    -462.9961160819444217 [Eh]
	 Singles Energy            =      -0.0000000000000000 [Eh]
	 Same-Spin Energy          =      -0.4980887908844209 [Eh]
	 Opposite-Spin Energy      =      -1.6695256602165298 [Eh]
	 Correlation Energy        =      -2.1676144511009507 [Eh]
	 Total Energy              =    -465.1637305330453955 [Eh]

	 ================> DF-SCS-MP2 Energies <==================
	-----------------------------------------------------------
	 SCS Same-Spin Scale       =       0.3333333333333333 [-]
	 SCS Opposite-Spin Scale   =       1.2000000000000000 [-]
	 SCS Same-Spin Energy      =      -0.1660295969614736 [Eh]
	 SCS Opposite-Spin Energy  =      -2.0034307922598358 [Eh]
	 SCS Correlation Energy    =      -2.1694603892213093 [Eh]
	 SCS Total Energy          =    -465.1655764711657071 [Eh]
	-----------------------------------------------------------

  Dipole Moment: [D]
     X:    -0.1582      Y:    -0.6393      Z:    -0.2292     Total:     0.6974

*** Psi4 exiting successfully. Buy a developer a beer!
