                               Psi4 1.3.2 release

  ==> Input File <==

--------------------------------------------------------------------------
#psi4
#
memory 32 gb

molecule  {
0 1
  O        0.0723890     1.0222580     0.5077940
  C       -0.7418240    -1.0387750     0.1269710
  C        0.6898163    -1.0445602     0.0718940
  C       -1.0249242     0.2740802     0.3955017
  C        1.1400710     0.1773790     0.3033030
  C       -2.3562760     1.0018630     0.5198060
  C        2.4849120     0.8120840     0.3409220
  C       -1.6830070    -2.1819480    -0.0885940
  C        1.5125100    -2.3214750    -0.1762480
  C       -2.8486430     1.5569180    -0.8246800
  C        2.8130920     1.5744450    -0.9510270
  H        3.2336060     0.0303330     0.5193890
  H        2.5305840     1.4962520     1.1974230
  H       -2.2159340     1.8224920     1.2344330
  H       -3.1130010     0.3316860     0.9491040
  H       -1.4229750    -3.0387300     0.5441040
  H       -2.7119990    -1.8902510     0.1457090
  H       -1.6650160    -2.5262940    -1.1310850
  H        2.5139960    -2.0634500    -0.5387900
  H        1.6307130    -2.9166200     0.7385330
  H        1.0429930    -2.9642660    -0.9286680
  H        2.8128660     0.8932150    -1.8063400
  H        3.7971100     2.0487280    -0.8855010
  H        2.0638530     2.3513280    -1.1313670
  H       -2.0994070     2.2298930    -1.2537260
  H       -3.7828960     2.1123340    -0.7007770
  H       -3.0218850     0.7415120    -1.5334270
units angstrom
no_reorient  #important for SAPT in psi4, default
symmetry c1  #important for SAPT in psi4, default
}

set PROPERTIES_ORIGIN ["COM"]
properties('MP2/aug-cc-pvtz', properties = ['dipole'])
--------------------------------------------------------------------------

    Molecular point group: c1
  Charge       = 0
  Multiplicity = 1
  Basis Set: AUG-CC-PVTZ
    Blend: AUG-CC-PVTZ
  Basis Set: (AUG-CC-PVTZ AUX)
    Blend: AUG-CC-PVTZ-JKFIT

    Orbital Energies [Eh]
    ---------------------

    Doubly Occupied:

       1A    -20.601887     2A    -11.270943     3A    -11.260610
       4A    -11.230444     5A    -11.229751     6A    -11.224390
       7A    -11.224315     8A    -11.215195     9A    -11.214472
      10A    -11.213008    11A    -11.210695    12A     -1.449689
      13A     -1.101061    14A     -1.077496    15A     -1.033514
      16A     -0.987325    17A     -0.935134    18A     -0.929620
      19A     -0.867503    20A     -0.817429    21A     -0.759967
      22A     -0.719619    23A     -0.662393    24A     -0.635327
      25A     -0.609834    26A     -0.606854    27A     -0.588341
      28A     -0.581157    29A     -0.567581    30A     -0.554173
      31A     -0.547779    32A     -0.534735    33A     -0.531942
      34A     -0.521386    35A     -0.519973    36A     -0.505773
      37A     -0.494701    38A     -0.491623    39A     -0.484128
      40A     -0.459985    41A     -0.365572    42A     -0.284061

  @DF-RHF Final Energy:  -463.01072685201041

   => Energetics <=

    Nuclear Repulsion Energy =            630.7971575338458479
    One-Electron Energy =               -1879.3729975717806155
    Two-Electron Energy =                 785.5651131859243606
    Total Energy =                       -463.0107268520104071
  Basis Set: (AUG-CC-PVTZ AUX)
    Blend: AUG-CC-PVTZ-RI
    Molecular point group: c1

    Geometry (in Angstrom), charge = 0, multiplicity = 1:

       Center              X                  Y                   Z               Mass
    ------------   -----------------  -----------------  -----------------  -----------------
         O            0.068602510499     1.017533289511     0.507008609382    15.994914619570
         C           -0.745610489501    -1.043499710489     0.126185609382    12.000000000000
         C            0.686029810499    -1.049284910489     0.071108609382    12.000000000000
         C           -1.028710689501     0.269355489511     0.394716309382    12.000000000000
         C            1.136284510499     0.172654289511     0.302517609382    12.000000000000
         C           -2.360062489501     0.997138289511     0.519020609382    12.000000000000
         C            2.481125510499     0.807359289511     0.340136609382    12.000000000000
         C           -1.686793489501    -2.186672710489    -0.089379390618    12.000000000000
         C            1.508723510499    -2.326199710489    -0.177033390618    12.000000000000
         C           -2.852429489501     1.552193289511    -0.825465390618    12.000000000000
         C            2.809305510499     1.569720289511    -0.951812390618    12.000000000000
         H            3.229819510499     0.025608289511     0.518603609382     1.007825032230
         H            2.526797510499     1.491527289511     1.196637609382     1.007825032230
         H           -2.219720489501     1.817767289511     1.233647609382     1.007825032230
         H           -3.116787489501     0.326961289511     0.948318609382     1.007825032230
         H           -1.426761489501    -3.043454710489     0.543318609382     1.007825032230
         H           -2.715785489501    -1.894975710489     0.144923609382     1.007825032230
         H           -1.668802489501    -2.531018710489    -1.131870390618     1.007825032230
         H            2.510209510499    -2.068174710489    -0.539575390618     1.007825032230
         H            1.626926510499    -2.921344710489     0.737747609382     1.007825032230
         H            1.039206510499    -2.968990710489    -0.929453390618     1.007825032230
         H            2.809079510499     0.888490289511    -1.807125390618     1.007825032230
         H            3.793323510499     2.044003289511    -0.886286390618     1.007825032230
         H            2.060066510499     2.346603289511    -1.132152390618     1.007825032230
         H           -2.103193489501     2.225168289511    -1.254511390618     1.007825032230
         H           -3.786682489501     2.107609289511    -0.701562390618     1.007825032230
         H           -3.025671489501     0.736787289511    -1.534212390618     1.007825032230

  Basis Set: AUG-CC-PVTZ
    Blend: AUG-CC-PVTZ
  Basis Set: (AUG-CC-PVTZ AUX)
    Blend: AUG-CC-PVTZ-JKFIT
	 Reference Energy          =    -463.0107268520104071 [Eh]
	 Singles Energy            =      -0.0000000000000000 [Eh]
	 Same-Spin Energy          =      -0.4955483887531384 [Eh]
	 Opposite-Spin Energy      =      -1.6643545256428589 [Eh]
	 Correlation Energy        =      -2.1599029143959974 [Eh]
	 Total Energy              =    -465.1706297664064209 [Eh]

	 ================> DF-SCS-MP2 Energies <==================
	-----------------------------------------------------------
	 SCS Same-Spin Scale       =       0.3333333333333333 [-]
	 SCS Opposite-Spin Scale   =       1.2000000000000000 [-]
	 SCS Same-Spin Energy      =      -0.1651827962510461 [Eh]
	 SCS Opposite-Spin Energy  =      -1.9972254307714306 [Eh]
	 SCS Correlation Energy    =      -2.1624082270224765 [Eh]
	 SCS Total Energy          =    -465.1731350790328747 [Eh]
	-----------------------------------------------------------

  Dipole Moment: [D]
     X:     0.0249      Y:    -0.6338      Z:    -0.2093     Total:     0.6680

*** Psi4 exiting successfully. Buy a developer a beer!
