                               Psi4 1.3.2 release

  ==> Input File <==

--------------------------------------------------------------------------
#psi4
#
memory 32 gb

molecule  {
0 1
  O        0.0723890     1.0222580     0.5077940
  C       -0.7418240    -1.0387750     0.1269710
  C        0.6883760    -1.0936210     0.0623120
  C       -1.0714850     0.2632460     0.3951280
  C        1.1400710     0.1773790     0.3033030
  C       -2.3562760     1.0018630     0.5198060
  C        2.3041015     0.7267495     0.3358642
  C       -1.6830070    -2.1819480    -0.0885940
  C        1.5125100    -2.3214750    -0.1762480
  C       -2.8486430     1.5569180    -0.8246800
  C        2.8130920     1.5744450    -0.9510270
  H        3.2336060     0.0303330     0.5193890
  H        2.5305840     1.4962520     1.1974230
  H       -2.2159340     1.8224920     1.2344330
  H       -3.1130010     0.3316860     0.9491040
  H       -1.4229750    -3.0387300     0.5441040
  H       -2.7119990    -1.8902510     0.1457090
  H       -1.6650160    -2.5262940    -1.1310850
  H        2.5139960    -2.0634500    -0.5387900
  H        1.6307130    -2.9166200     0.7385330
  H        1.0429930    -2.9642660    -0.9286680
  H        2.8128660     0.8932150    -1.8063400
  H        3.7971100     2.0487280    -0.8855010
  H        2.0638530     2.3513280    -1.1313670
  H       -2.0994070     2.2298930    -1.2537260
  H       -3.7828960     2.1123340    -0.7007770
  H       -3.0218850     0.7415120    -1.5334270
units angstrom
no_reorient  #important for SAPT in psi4, default
symmetry c1  #important for SAPT in psi4, default
}

set PROPERTIES_ORIGIN ["COM"]
properties('MP2/aug-cc-pvtz', properties = ['dipole'])
--------------------------------------------------------------------------

    Molecular point group: c1
  Charge       = 0
  Multiplicity = 1
  Basis Set: AUG-CC-PVTZ
    Blend: AUG-CC-PVTZ
  Basis Set: (AUG-CC-PVTZ AUX)
    Blend: AUG-CC-PVTZ-JKFIT

    Orbital Energies [Eh]
    ---------------------

    Doubly Occupied:

       1A    -20.598188     2A    -11.272901     3A    -11.256749
       4A    -11.231573     5A    -11.231549     6A    -11.224372
       7A    -11.224004     8A    -11.219845     9A    -11.219199
      10A    -11.217025    11A    -11.216694    12A     -1.433084
      13A     -1.106332    14A     -1.095936    15A     -1.038730
      16A     -0.988144    17A     -0.934513    18A     -0.931432
      19A     -0.881687    20A     -0.810931    21A     -0.754976
      22A     -0.722233    23A     -0.668357    24A     -0.632100
      25A     -0.619256    26A     -0.605045    27A     -0.591174
      28A     -0.574064    29A     -0.569828    30A     -0.557924
      31A     -0.549822    32A     -0.543658    33A     -0.530282
      34A     -0.525450    35A     -0.522180    36A     -0.508132
      37A     -0.494648    38A     -0.479042    39A     -0.477548
      40A     -0.452972    41A     -0.361316    42A     -0.273800

  @DF-RHF Final Energy:  -462.95774633211886

   => Energetics <=

    Nuclear Repulsion Energy =            633.1457510336306314
    One-Electron Energy =               -1883.9136022730679088
    Two-Electron Energy =                 787.8101049073184186
    Total Energy =                       -462.9577463321188588
  Basis Set: (AUG-CC-PVTZ AUX)
    Blend: AUG-CC-PVTZ-RI
    Molecular point group: c1

    Geometry (in Angstrom), charge = 0, multiplicity = 1:

       Center              X                  Y                   Z               Mass
    ------------   -----------------  -----------------  -----------------  -----------------
         O            0.086652320661     1.028989723122     0.508192949795    15.994914619570
         C           -0.727560679339    -1.032043276878     0.127369949795    12.000000000000
         C            0.702639320661    -1.086889276878     0.062710949795    12.000000000000
         C           -1.057221679339     0.269977723122     0.395526949795    12.000000000000
         C            1.154334320661     0.184110723122     0.303701949795    12.000000000000
         C           -2.342012679339     1.008594723122     0.520204949795    12.000000000000
         C            2.318364820661     0.733481223122     0.336263149795    12.000000000000
         C           -1.668743679339    -2.175216276878    -0.088195050205    12.000000000000
         C            1.526773320661    -2.314743276878    -0.175849050205    12.000000000000
         C           -2.834379679339     1.563649723122    -0.824281050205    12.000000000000
         C            2.827355320661     1.581176723122    -0.950628050205    12.000000000000
         H            3.247869320661     0.037064723122     0.519787949795     1.007825032230
         H            2.544847320661     1.502983723122     1.197821949795     1.007825032230
         H           -2.201670679339     1.829223723122     1.234831949795     1.007825032230
         H           -3.098737679339     0.338417723122     0.949502949795     1.007825032230
         H           -1.408711679339    -3.031998276878     0.544502949795     1.007825032230
         H           -2.697735679339    -1.883519276878     0.146107949795     1.007825032230
         H           -1.650752679339    -2.519562276878    -1.130686050205     1.007825032230
         H            2.528259320661    -2.056718276878    -0.538391050205     1.007825032230
         H            1.644976320661    -2.909888276878     0.738931949795     1.007825032230
         H            1.057256320661    -2.957534276878    -0.928269050205     1.007825032230
         H            2.827129320661     0.899946723122    -1.805941050205     1.007825032230
         H            3.811373320661     2.055459723122    -0.885102050205     1.007825032230
         H            2.078116320661     2.358059723122    -1.130968050205     1.007825032230
         H           -2.085143679339     2.236624723122    -1.253327050205     1.007825032230
         H           -3.768632679339     2.119065723122    -0.700378050205     1.007825032230
         H           -3.007621679339     0.748243723122    -1.533028050205     1.007825032230

  Basis Set: AUG-CC-PVTZ
    Blend: AUG-CC-PVTZ
  Basis Set: (AUG-CC-PVTZ AUX)
    Blend: AUG-CC-PVTZ-JKFIT
	 Reference Energy          =    -462.9577463321188588 [Eh]
	 Singles Energy            =      -0.0000000000000000 [Eh]
	 Same-Spin Energy          =      -0.5010312713234573 [Eh]
	 Opposite-Spin Energy      =      -1.6719974191140834 [Eh]
	 Correlation Energy        =      -2.1730286904375404 [Eh]
	 Total Energy              =    -465.1307750225564064 [Eh]

	 ================> DF-SCS-MP2 Energies <==================
	-----------------------------------------------------------
	 SCS Same-Spin Scale       =       0.3333333333333333 [-]
	 SCS Opposite-Spin Scale   =       1.2000000000000000 [-]
	 SCS Same-Spin Energy      =      -0.1670104237744857 [Eh]
	 SCS Opposite-Spin Energy  =      -2.0063969029369000 [Eh]
	 SCS Correlation Energy    =      -2.1734073267113856 [Eh]
	 SCS Total Energy          =    -465.1311536588302715 [Eh]
	-----------------------------------------------------------

  Dipole Moment: [D]
     X:    -0.1702      Y:    -0.7572      Z:    -0.2217     Total:     0.8072

*** Psi4 exiting successfully. Buy a developer a beer!
