                               Psi4 1.3.2 release

  ==> Input File <==

--------------------------------------------------------------------------
#psi4
#
memory 32 gb

molecule  {
0 1
  O        0.0723890     1.0222580     0.5077940
  C       -0.7418240    -1.0387750     0.1269710
  C        0.6883760    -1.0936210     0.0623120
  C       -1.0714850     0.2632460     0.3951280
  C        1.2951670     0.0546483     0.2735978
  C       -2.3562760     1.0018630     0.5198060
  C        2.4849120     0.8120840     0.3409220
  C       -1.6830070    -2.1819480    -0.0885940
  C        1.5125100    -2.3214750    -0.1762480
  C       -2.8486430     1.5569180    -0.8246800
  C        2.8130920     1.5744450    -0.9510270
  H        3.2336060     0.0303330     0.5193890
  H        2.5305840     1.4962520     1.1974230
  H       -2.2159340     1.8224920     1.2344330
  H       -3.1130010     0.3316860     0.9491040
  H       -1.4229750    -3.0387300     0.5441040
  H       -2.7119990    -1.8902510     0.1457090
  H       -1.6650160    -2.5262940    -1.1310850
  H        2.5139960    -2.0634500    -0.5387900
  H        1.6307130    -2.9166200     0.7385330
  H        1.0429930    -2.9642660    -0.9286680
  H        2.8128660     0.8932150    -1.8063400
  H        3.7971100     2.0487280    -0.8855010
  H        2.0638530     2.3513280    -1.1313670
  H       -2.0994070     2.2298930    -1.2537260
  H       -3.7828960     2.1123340    -0.7007770
  H       -3.0218850     0.7415120    -1.5334270
units angstrom
no_reorient  #important for SAPT in psi4, default
symmetry c1  #important for SAPT in psi4, default
}

set PROPERTIES_ORIGIN ["COM"]
properties('MP2/aug-cc-pvtz', properties = ['dipole'])
--------------------------------------------------------------------------

    Molecular point group: c1
  Charge       = 0
  Multiplicity = 1
  Basis Set: AUG-CC-PVTZ
    Blend: AUG-CC-PVTZ
  Basis Set: (AUG-CC-PVTZ AUX)
    Blend: AUG-CC-PVTZ-JKFIT

    Orbital Energies [Eh]
    ---------------------

    Doubly Occupied:

       1A    -20.564946     2A    -11.276016     3A    -11.268894
       4A    -11.232036     5A    -11.229513     6A    -11.226733
       7A    -11.224841     8A    -11.221973     9A    -11.216480
      10A    -11.216209    11A    -11.209734    12A     -1.364455
      13A     -1.108485    14A     -1.081370    15A     -1.041763
      16A     -0.996752    17A     -0.931836    18A     -0.918652
      19A     -0.877716    20A     -0.824628    21A     -0.728075
      22A     -0.715800    23A     -0.648340    24A     -0.622880
      25A     -0.614220    26A     -0.604828    27A     -0.589786
      28A     -0.577953    29A     -0.560424    30A     -0.556952
      31A     -0.549885    32A     -0.534041    33A     -0.529206
      34A     -0.520033    35A     -0.508908    36A     -0.504793
      37A     -0.496299    38A     -0.493162    39A     -0.478599
      40A     -0.456674    41A     -0.367711    42A     -0.284546

  @DF-RHF Final Energy:  -462.97571346477514

   => Energetics <=

    Nuclear Repulsion Energy =            627.9039694480690059
    One-Electron Energy =               -1873.8070609083945328
    Two-Electron Energy =                 782.9273779955502732
    Total Energy =                       -462.9757134647751400
  Basis Set: (AUG-CC-PVTZ AUX)
    Blend: AUG-CC-PVTZ-RI
    Molecular point group: c1

    Geometry (in Angstrom), charge = 0, multiplicity = 1:

       Center              X                  Y                   Z               Mass
    ------------   -----------------  -----------------  -----------------  -----------------
         O            0.060154325991     1.031939723519     0.510137260708    15.994914619570
         C           -0.754058674009    -1.029093276481     0.129314260708    12.000000000000
         C            0.676141325991    -1.083939276481     0.064655260708    12.000000000000
         C           -1.083719674009     0.272927723519     0.397471260708    12.000000000000
         C            1.282932325991     0.064330023519     0.275941060708    12.000000000000
         C           -2.368510674009     1.011544723519     0.522149260708    12.000000000000
         C            2.472677325991     0.821765723519     0.343265260708    12.000000000000
         C           -1.695241674009    -2.172266276481    -0.086250739292    12.000000000000
         C            1.500275325991    -2.311793276481    -0.173904739292    12.000000000000
         C           -2.860877674009     1.566599723519    -0.822336739292    12.000000000000
         C            2.800857325991     1.584126723519    -0.948683739292    12.000000000000
         H            3.221371325991     0.040014723519     0.521732260708     1.007825032230
         H            2.518349325991     1.505933723519     1.199766260708     1.007825032230
         H           -2.228168674009     1.832173723519     1.236776260708     1.007825032230
         H           -3.125235674009     0.341367723519     0.951447260708     1.007825032230
         H           -1.435209674009    -3.029048276481     0.546447260708     1.007825032230
         H           -2.724233674009    -1.880569276481     0.148052260708     1.007825032230
         H           -1.677250674009    -2.516612276481    -1.128741739292     1.007825032230
         H            2.501761325991    -2.053768276481    -0.536446739292     1.007825032230
         H            1.618478325991    -2.906938276481     0.740876260708     1.007825032230
         H            1.030758325991    -2.954584276481    -0.926324739292     1.007825032230
         H            2.800631325991     0.902896723519    -1.803996739292     1.007825032230
         H            3.784875325991     2.058409723519    -0.883157739292     1.007825032230
         H            2.051618325991     2.361009723519    -1.129023739292     1.007825032230
         H           -2.111641674009     2.239574723519    -1.251382739292     1.007825032230
         H           -3.795130674009     2.122015723519    -0.698433739292     1.007825032230
         H           -3.034119674009     0.751193723519    -1.531083739292     1.007825032230

  Basis Set: AUG-CC-PVTZ
    Blend: AUG-CC-PVTZ
  Basis Set: (AUG-CC-PVTZ AUX)
    Blend: AUG-CC-PVTZ-JKFIT
	 Reference Energy          =    -462.9757134647751400 [Eh]
	 Singles Energy            =      -0.0000000000000000 [Eh]
	 Same-Spin Energy          =      -0.4984017075390607 [Eh]
	 Opposite-Spin Energy      =      -1.6714141437331826 [Eh]
	 Correlation Energy        =      -2.1698158512722432 [Eh]
	 Total Energy              =    -465.1455293160473730 [Eh]

	 ================> DF-SCS-MP2 Energies <==================
	-----------------------------------------------------------
	 SCS Same-Spin Scale       =       0.3333333333333333 [-]
	 SCS Opposite-Spin Scale   =       1.2000000000000000 [-]
	 SCS Same-Spin Energy      =      -0.1661339025130202 [Eh]
	 SCS Opposite-Spin Energy  =      -2.0056969724798193 [Eh]
	 SCS Correlation Energy    =      -2.1718308749928394 [Eh]
	 SCS Total Energy          =    -465.1475443397679896 [Eh]
	-----------------------------------------------------------

  Dipole Moment: [D]
     X:     0.3170      Y:    -0.8027      Z:    -0.3012     Total:     0.9141

*** Psi4 exiting successfully. Buy a developer a beer!
