                               Psi4 1.3.2 release

  ==> Input File <==

--------------------------------------------------------------------------
#psi4
#
memory 32 gb

molecule  {
0 1
  S        0.1264700    -0.7742460     0.0000110
  N        2.6648510     0.5909190    -0.0000260
  C       -0.9579250     0.7018891     0.0000507
  C       -2.4242840     0.1891640    -0.0000380
  C        1.6149060     0.0390340    -0.0000080
  H       -0.7718060     1.2803900     0.8886850
  H       -0.7716890     1.2805110    -0.8884740
  H       -2.6381270    -0.4115180    -0.8874520
  H       -2.6382870    -0.4114970     0.8873540
  H       -3.1001780     1.0479890    -0.0001390
units angstrom
no_reorient  #important for SAPT in psi4, default
symmetry c1  #important for SAPT in psi4, default
}

set PROPERTIES_ORIGIN ["COM"]
properties('MP2/aug-cc-pvtz', properties = ['dipole'])
--------------------------------------------------------------------------

    Molecular point group: c1
  Charge       = 0
  Multiplicity = 1
  Basis Set: AUG-CC-PVTZ
    Blend: AUG-CC-PVTZ
  Basis Set: (AUG-CC-PVTZ AUX)
    Blend: AUG-CC-PVTZ-JKFIT

    Orbital Energies [Eh]
    ---------------------

    Doubly Occupied:

       1A    -92.016125     2A    -15.587731     3A    -11.303503
       4A    -11.295100     5A    -11.255235     6A     -9.015951
       7A     -6.697460     8A     -6.695772     9A     -6.694917
      10A     -1.213495    11A     -1.111472    12A     -1.003197
      13A     -0.866738    14A     -0.695082    15A     -0.665433
      16A     -0.591746    17A     -0.567186    18A     -0.551308
      19A     -0.541854    20A     -0.520448    21A     -0.507177
      22A     -0.444110    23A     -0.381377

  @DF-RHF Final Energy:  -568.55033974060098

   => Energetics <=

    Nuclear Repulsion Energy =            198.0084365772389390
    One-Electron Energy =               -1172.6727171011502833
    Two-Electron Energy =                 406.1139407833102268
    Total Energy =                       -568.5503397406010890
  Basis Set: (AUG-CC-PVTZ AUX)
    Blend: AUG-CC-PVTZ-RI
    Molecular point group: c1

    Geometry (in Angstrom), charge = 0, multiplicity = 1:

       Center              X                  Y                   Z               Mass
    ------------   -----------------  -----------------  -----------------  -----------------
         S            0.009773444768    -0.745390434592     0.000010795328    31.972071174400
         N            2.548154444768     0.619774565408    -0.000026204672    14.003074004430
         C           -1.074621555232     0.730744665408     0.000050495328    12.000000000000
         C           -2.540980555232     0.218019565408    -0.000038204672    12.000000000000
         C            1.498209444768     0.067889565408    -0.000008204672    12.000000000000
         H           -0.888502555232     1.309245565408     0.888684795328     1.007825032230
         H           -0.888385555232     1.309366565408    -0.888474204672     1.007825032230
         H           -2.754823555232    -0.382662434592    -0.887452204672     1.007825032230
         H           -2.754983555232    -0.382641434592     0.887353795328     1.007825032230
         H           -3.216874555232     1.076844565408    -0.000139204672     1.007825032230

  Basis Set: AUG-CC-PVTZ
    Blend: AUG-CC-PVTZ
  Basis Set: (AUG-CC-PVTZ AUX)
    Blend: AUG-CC-PVTZ-JKFIT
	 Reference Energy          =    -568.5503397406009753 [Eh]
	 Singles Energy            =      -0.0000000000000000 [Eh]
	 Same-Spin Energy          =      -0.2344680419105233 [Eh]
	 Opposite-Spin Energy      =      -0.7587994572249401 [Eh]
	 Correlation Energy        =      -0.9932674991354634 [Eh]
	 Total Energy              =    -569.5436072397363887 [Eh]

	 ================> DF-SCS-MP2 Energies <==================
	-----------------------------------------------------------
	 SCS Same-Spin Scale       =       0.3333333333333333 [-]
	 SCS Opposite-Spin Scale   =       1.2000000000000000 [-]
	 SCS Same-Spin Energy      =      -0.0781560139701744 [Eh]
	 SCS Opposite-Spin Energy  =      -0.9105593486699282 [Eh]
	 SCS Correlation Energy    =      -0.9887153626401026 [Eh]
	 SCS Total Energy          =    -569.5390551032410258 [Eh]
	-----------------------------------------------------------

  Dipole Moment: [D]
     X:    -4.5348      Y:    -0.0407      Z:     0.0001     Total:     4.5350

*** Psi4 exiting successfully. Buy a developer a beer!
