                               Psi4 1.3.2 release

  ==> Input File <==

--------------------------------------------------------------------------
#psi4
#
memory 32 gb

molecule  {
0 1
  S        0.1264700    -0.7742460     0.0000110
  N        2.6648510     0.5909190    -0.0000260
  C       -0.9835220     0.6827390     0.0000510
  C       -2.4242840     0.1891640    -0.0000380
  C        1.4393966    -0.0568642    -0.0000058
  H       -0.7718060     1.2803900     0.8886850
  H       -0.7716890     1.2805110    -0.8884740
  H       -2.6381270    -0.4115180    -0.8874520
  H       -2.6382870    -0.4114970     0.8873540
  H       -3.1001780     1.0479890    -0.0001390
units angstrom
no_reorient  #important for SAPT in psi4, default
symmetry c1  #important for SAPT in psi4, default
}

set PROPERTIES_ORIGIN ["COM"]
properties('MP2/aug-cc-pvtz', properties = ['dipole'])
--------------------------------------------------------------------------

    Molecular point group: c1
  Charge       = 0
  Multiplicity = 1
  Basis Set: AUG-CC-PVTZ
    Blend: AUG-CC-PVTZ
  Basis Set: (AUG-CC-PVTZ AUX)
    Blend: AUG-CC-PVTZ-JKFIT

    Orbital Energies [Eh]
    ---------------------

    Doubly Occupied:

       1A    -92.017087     2A    -15.623042     3A    -11.331280
       4A    -11.297911     5A    -11.256024     6A     -9.023827
       7A     -6.706167     8A     -6.703096     9A     -6.702822
      10A     -1.186377    11A     -1.090786    12A     -1.032593
      13A     -0.877742    14A     -0.718960    15A     -0.667831
      16A     -0.598833    17A     -0.576602    18A     -0.554240
      19A     -0.541384    20A     -0.528544    21A     -0.502855
      22A     -0.380726    23A     -0.362177

  @DF-RHF Final Energy:  -568.43021973122165

   => Energetics <=

    Nuclear Repulsion Energy =            200.2076292957319197
    One-Electron Energy =               -1176.7138863342486275
    Two-Electron Energy =                 408.0760373072949392
    Total Energy =                       -568.4302197312217686
  Basis Set: (AUG-CC-PVTZ AUX)
    Blend: AUG-CC-PVTZ-RI
    Molecular point group: c1

    Geometry (in Angstrom), charge = 0, multiplicity = 1:

       Center              X                  Y                   Z               Mass
    ------------   -----------------  -----------------  -----------------  -----------------
         S            0.037507709396    -0.729524306030     0.000010450557    31.972071174400
         N            2.575888709396     0.635640693970    -0.000026549443    14.003074004430
         C           -1.072484290604     0.727460693970     0.000050450557    12.000000000000
         C           -2.513246290604     0.233885693970    -0.000038549443    12.000000000000
         C            1.350434309396    -0.012142506030    -0.000006349443    12.000000000000
         H           -0.860768290604     1.325111693970     0.888684450557     1.007825032230
         H           -0.860651290604     1.325232693970    -0.888474549443     1.007825032230
         H           -2.727089290604    -0.366796306030    -0.887452549443     1.007825032230
         H           -2.727249290604    -0.366775306030     0.887353450557     1.007825032230
         H           -3.189140290604     1.092710693970    -0.000139549443     1.007825032230

  Basis Set: AUG-CC-PVTZ
    Blend: AUG-CC-PVTZ
  Basis Set: (AUG-CC-PVTZ AUX)
    Blend: AUG-CC-PVTZ-JKFIT
	 Reference Energy          =    -568.4302197312216549 [Eh]
	 Singles Energy            =      -0.0000000000000000 [Eh]
	 Same-Spin Energy          =      -0.2491628068385481 [Eh]
	 Opposite-Spin Energy      =      -0.7829927407482299 [Eh]
	 Correlation Energy        =      -1.0321555475867781 [Eh]
	 Total Energy              =    -569.4623752788083948 [Eh]

	 ================> DF-SCS-MP2 Energies <==================
	-----------------------------------------------------------
	 SCS Same-Spin Scale       =       0.3333333333333333 [-]
	 SCS Opposite-Spin Scale   =       1.2000000000000000 [-]
	 SCS Same-Spin Energy      =      -0.0830542689461827 [Eh]
	 SCS Opposite-Spin Energy  =      -0.9395912888978758 [Eh]
	 SCS Correlation Energy    =      -1.0226455578440585 [Eh]
	 SCS Total Energy          =    -569.4528652890656986 [Eh]
	-----------------------------------------------------------

  Dipole Moment: [D]
     X:    -5.5318      Y:    -0.2263      Z:     0.0001     Total:     5.5364

*** Psi4 exiting successfully. Buy a developer a beer!
