                               Psi4 1.4a3.dev225

  ==> Input File <==

--------------------------------------------------------------------------
#psi4
#
memory 32 gb

molecule  {
0 1
  S        0.1265690    -0.7744540    -0.0000030
  N        2.6645760     0.5912410     0.0000080
  C       -0.9835110     0.6826500    -0.0000140
  C       -2.4242400     0.1893500     0.0000110
  C        1.5709893     0.0150618     0.0000019
  H       -0.7715750     1.2803170     0.8885550
  H       -0.7715930     1.2802920    -0.8886040
  H       -2.6383020    -0.4113120    -0.8873620
  H       -2.6382940    -0.4112530     0.8874280
  H       -3.1000420     1.0482750    -0.0000140
units angstrom
no_reorient  #important for SAPT in psi4, default
symmetry c1  #important for SAPT in psi4, default
}

set PROPERTIES_ORIGIN ["COM"]
properties('MP2/aug-cc-pvtz', properties = ['dipole'])
--------------------------------------------------------------------------

    Molecular point group: c1
  Charge       = 0
  Multiplicity = 1
  Basis Set: AUG-CC-PVTZ
    Blend: AUG-CC-PVTZ
  Basis Set: (AUG-CC-PVTZ AUX)
    Blend: AUG-CC-PVTZ-JKFIT

    Orbital Energies [Eh]
    ---------------------

    Doubly Occupied:

       1A    -92.015079     2A    -15.600777     3A    -11.315973
       4A    -11.297403     5A    -11.254616     6A     -9.016382
       7A     -6.698078     8A     -6.696199     9A     -6.695419
      10A     -1.194536    11A     -1.115901    12A     -1.015437
      13A     -0.867452    14A     -0.703176    15A     -0.664013
      16A     -0.594621    17A     -0.573975    18A     -0.549185
      19A     -0.545385    20A     -0.520567    21A     -0.501758
      22A     -0.429614    23A     -0.375380

  @DF-RHF Final Energy:  -568.53325613080222

   => Energetics <=

    Nuclear Repulsion Energy =            198.4727080701470072
    One-Electron Energy =               -1173.5300751516931541
    Two-Electron Energy =                 406.5241109507439887
    Total Energy =                       -568.5332561308021013
  Basis Set: (AUG-CC-PVTZ AUX)
    Blend: AUG-CC-PVTZ-RI
    Molecular point group: c1

    Geometry (in Angstrom), charge = 0, multiplicity = 1:

       Center              X                  Y                   Z               Mass
    ------------   -----------------  -----------------  -----------------  -----------------
         S            0.019456008570    -0.739645418786    -0.000003068171    31.972071174400
         N            2.557463008570     0.626049581214     0.000007931829    14.003074004430
         C           -1.090623991430     0.717458581214    -0.000014068171    12.000000000000
         C           -2.531352991430     0.224158581214     0.000010931829    12.000000000000
         C            1.463876308570     0.049870381214     0.000001831829    12.000000000000
         H           -0.878687991430     1.315125581214     0.888554931829     1.007825032230
         H           -0.878705991430     1.315100581214    -0.888604068171     1.007825032230
         H           -2.745414991430    -0.376503418786    -0.887362068171     1.007825032230
         H           -2.745406991430    -0.376444418786     0.887427931829     1.007825032230
         H           -3.207154991430     1.083083581214    -0.000014068171     1.007825032230

  Basis Set: AUG-CC-PVTZ
    Blend: AUG-CC-PVTZ
  Basis Set: (AUG-CC-PVTZ AUX)
    Blend: AUG-CC-PVTZ-JKFIT
	 Reference Energy          =    -568.5332561308022150 [Eh]
	 Singles Energy            =      -0.0000000000000000 [Eh]
	 Same-Spin Energy          =      -0.2387580161113372 [Eh]
	 Opposite-Spin Energy      =      -0.7658548002462444 [Eh]
	 Correlation Energy        =      -1.0046128163575816 [Eh]
	 Total Energy              =    -569.5378689471598364 [Eh]

	 ================> DF-SCS-MP2 Energies <==================
	-----------------------------------------------------------
	 SCS Same-Spin Scale       =       0.3333333333333333 [-]
	 SCS Opposite-Spin Scale   =       1.2000000000000000 [-]
	 SCS Same-Spin Energy      =      -0.0795860053704457 [Eh]
	 SCS Opposite-Spin Energy  =      -0.9190257602954932 [Eh]
	 SCS Correlation Energy    =      -0.9986117656659389 [Eh]
	 SCS Total Energy          =    -569.5318678964681567 [Eh]
	-----------------------------------------------------------

  Dipole Moment: [D]
     X:    -4.6116      Y:    -0.0404      Z:    -0.0000     Total:     4.6117

*** Psi4 exiting successfully. Buy a developer a beer!
