                               Psi4 1.3.2 release

  ==> Input File <==

--------------------------------------------------------------------------
#psi4
#
memory 32 gb

molecule  {
0 1
  S        0.1264700    -0.7742460     0.0000110
  N        2.6648510     0.5909190    -0.0000260
  C       -1.1047243     0.8418302     0.0000554
  C       -2.4242840     0.1891640    -0.0000380
  C        1.6149060     0.0390340    -0.0000080
  H       -0.7718060     1.2803900     0.8886850
  H       -0.7716890     1.2805110    -0.8884740
  H       -2.6381270    -0.4115180    -0.8874520
  H       -2.6382870    -0.4114970     0.8873540
  H       -3.1001780     1.0479890    -0.0001390
units angstrom
no_reorient  #important for SAPT in psi4, default
symmetry c1  #important for SAPT in psi4, default
}

set PROPERTIES_ORIGIN ["COM"]
properties('MP2/aug-cc-pvtz', properties = ['dipole'])
--------------------------------------------------------------------------

    Molecular point group: c1
  Charge       = 0
  Multiplicity = 1
  Basis Set: AUG-CC-PVTZ
    Blend: AUG-CC-PVTZ
  Basis Set: (AUG-CC-PVTZ AUX)
    Blend: AUG-CC-PVTZ-JKFIT

    Orbital Energies [Eh]
    ---------------------

    Doubly Occupied:

       1A    -92.001362     2A    -15.578325     3A    -11.311438
       4A    -11.297011     5A    -11.259266     6A     -9.000611
       7A     -6.682009     8A     -6.680172     9A     -6.679476
      10A     -1.204782    11A     -1.109612    12A     -1.005382
      13A     -0.879787    14A     -0.691267    15A     -0.675674
      16A     -0.609577    17A     -0.587122    18A     -0.559139
      19A     -0.537577    20A     -0.505785    21A     -0.504816
      22A     -0.411693    23A     -0.373815

  @DF-RHF Final Energy:  -568.53211157563851

   => Energetics <=

    Nuclear Repulsion Energy =            195.5920820271883542
    One-Electron Energy =               -1167.9569920725843986
    Two-Electron Energy =                 403.8327984697574493
    Total Energy =                       -568.5321115756386234
  Basis Set: (AUG-CC-PVTZ AUX)
    Blend: AUG-CC-PVTZ-RI
    Molecular point group: c1

    Geometry (in Angstrom), charge = 0, multiplicity = 1:

       Center              X                  Y                   Z               Mass
    ------------   -----------------  -----------------  -----------------  -----------------
         S            0.030018303377    -0.764689489718     0.000010147158    31.972071174400
         N            2.568399303377     0.600475510282    -0.000026852842    14.003074004430
         C           -1.201175996623     0.851386710282     0.000054547158    12.000000000000
         C           -2.520735696623     0.198720510282    -0.000038852842    12.000000000000
         C            1.518454303377     0.048590510282    -0.000008852842    12.000000000000
         H           -0.868257696623     1.289946510282     0.888684147158     1.007825032230
         H           -0.868140696623     1.290067510282    -0.888474852842     1.007825032230
         H           -2.734578696623    -0.401961489718    -0.887452852842     1.007825032230
         H           -2.734738696623    -0.401940489718     0.887353147158     1.007825032230
         H           -3.196629696623     1.057545510282    -0.000139852842     1.007825032230

  Basis Set: AUG-CC-PVTZ
    Blend: AUG-CC-PVTZ
  Basis Set: (AUG-CC-PVTZ AUX)
    Blend: AUG-CC-PVTZ-JKFIT
	 Reference Energy          =    -568.5321115756385097 [Eh]
	 Singles Energy            =      -0.0000000000000000 [Eh]
	 Same-Spin Energy          =      -0.2347709323802821 [Eh]
	 Opposite-Spin Energy      =      -0.7589256492467888 [Eh]
	 Correlation Energy        =      -0.9936965816270709 [Eh]
	 Total Energy              =    -569.5258081572656010 [Eh]

	 ================> DF-SCS-MP2 Energies <==================
	-----------------------------------------------------------
	 SCS Same-Spin Scale       =       0.3333333333333333 [-]
	 SCS Opposite-Spin Scale   =       1.2000000000000000 [-]
	 SCS Same-Spin Energy      =      -0.0782569774600940 [Eh]
	 SCS Opposite-Spin Energy  =      -0.9107107790961466 [Eh]
	 SCS Correlation Energy    =      -0.9889677565562407 [Eh]
	 SCS Total Energy          =    -569.5210793321947449 [Eh]
	-----------------------------------------------------------

  Dipole Moment: [D]
     X:    -5.0807      Y:     0.2249      Z:     0.0001     Total:     5.0856

*** Psi4 exiting successfully. Buy a developer a beer!
