                               Psi4 1.3.2 release

  ==> Input File <==

--------------------------------------------------------------------------
#psi4
#
memory 32 gb

molecule  {
0 1
  S        0.2254003    -0.6932677     0.0000199
  N        2.6648510     0.5909190    -0.0000260
  C       -0.9835220     0.6827390     0.0000510
  C       -2.4242840     0.1891640    -0.0000380
  C        1.6149060     0.0390340    -0.0000080
  H       -0.7718060     1.2803900     0.8886850
  H       -0.7716890     1.2805110    -0.8884740
  H       -2.6381270    -0.4115180    -0.8874520
  H       -2.6382870    -0.4114970     0.8873540
  H       -3.1001780     1.0479890    -0.0001390
units angstrom
no_reorient  #important for SAPT in psi4, default
symmetry c1  #important for SAPT in psi4, default
}

set PROPERTIES_ORIGIN ["COM"]
properties('MP2/aug-cc-pvtz', properties = ['dipole'])
--------------------------------------------------------------------------

    Molecular point group: c1
  Charge       = 0
  Multiplicity = 1
  Basis Set: AUG-CC-PVTZ
    Blend: AUG-CC-PVTZ
  Basis Set: (AUG-CC-PVTZ AUX)
    Blend: AUG-CC-PVTZ-JKFIT

    Orbital Energies [Eh]
    ---------------------

    Doubly Occupied:

       1A    -92.003996     2A    -15.585457     3A    -11.297550
       4A    -11.295725     5A    -11.255985     6A     -9.008449
       7A     -6.690645     8A     -6.688300     9A     -6.687591
      10A     -1.219686    11A     -1.120908    12A     -1.027280
      13A     -0.873383    14A     -0.700538    15A     -0.664121
      16A     -0.591533    17A     -0.578595    18A     -0.554194
      19A     -0.553136    20A     -0.523853    21A     -0.516937
      22A     -0.431572    23A     -0.372277

  @DF-RHF Final Energy:  -568.53976219963431

   => Energetics <=

    Nuclear Repulsion Energy =            200.9089428893155969
    One-Electron Energy =               -1178.4139896443509770
    Two-Electron Energy =                 408.9652845554010696
    Total Energy =                       -568.5397621996344242
  Basis Set: (AUG-CC-PVTZ AUX)
    Blend: AUG-CC-PVTZ-RI
    Molecular point group: c1

    Geometry (in Angstrom), charge = 0, multiplicity = 1:

       Center              X                  Y                   Z               Mass
    ------------   -----------------  -----------------  -----------------  -----------------
         S            0.075883351265    -0.691525420286     0.000016383785    31.972071174400
         N            2.515334051265     0.592661279714    -0.000029516215    14.003074004430
         C           -1.133038948735     0.684481279714     0.000047483785    12.000000000000
         C           -2.573800948735     0.190906279714    -0.000041516215    12.000000000000
         C            1.465389051265     0.040776279714    -0.000011516215    12.000000000000
         H           -0.921322948735     1.282132279714     0.888681483785     1.007825032230
         H           -0.921205948735     1.282253279714    -0.888477516215     1.007825032230
         H           -2.787643948735    -0.409775720286    -0.887455516215     1.007825032230
         H           -2.787803948735    -0.409754720286     0.887350483785     1.007825032230
         H           -3.249694948735     1.049731279714    -0.000142516215     1.007825032230

  Basis Set: AUG-CC-PVTZ
    Blend: AUG-CC-PVTZ
  Basis Set: (AUG-CC-PVTZ AUX)
    Blend: AUG-CC-PVTZ-JKFIT
	 Reference Energy          =    -568.5397621996343105 [Eh]
	 Singles Energy            =      -0.0000000000000000 [Eh]
	 Same-Spin Energy          =      -0.2362462662980021 [Eh]
	 Opposite-Spin Energy      =      -0.7588534414619050 [Eh]
	 Correlation Energy        =      -0.9950997077599071 [Eh]
	 Total Energy              =    -569.5348619073942018 [Eh]

	 ================> DF-SCS-MP2 Energies <==================
	-----------------------------------------------------------
	 SCS Same-Spin Scale       =       0.3333333333333333 [-]
	 SCS Opposite-Spin Scale   =       1.2000000000000000 [-]
	 SCS Same-Spin Energy      =      -0.0787487554326674 [Eh]
	 SCS Opposite-Spin Energy  =      -0.9106241297542860 [Eh]
	 SCS Correlation Energy    =      -0.9893728851869533 [Eh]
	 SCS Total Energy          =    -569.5291350848212915 [Eh]
	-----------------------------------------------------------

  Dipole Moment: [D]
     X:    -4.7086      Y:     0.0291      Z:     0.0001     Total:     4.7087

*** Psi4 exiting successfully. Buy a developer a beer!
