                               Psi4 1.3.2 release

  ==> Input File <==

--------------------------------------------------------------------------
#psi4
#
memory 32 gb

molecule  {
0 1
  S        0.1264700    -0.7742460     0.0000110
  N        2.6648510     0.5909190    -0.0000260
  C       -1.0441232     0.7622846     0.0000532
  C       -2.4242840     0.1891640    -0.0000380
  C        1.6149060     0.0390340    -0.0000080
  H       -0.7718060     1.2803900     0.8886850
  H       -0.7716890     1.2805110    -0.8884740
  H       -2.6381270    -0.4115180    -0.8874520
  H       -2.6382870    -0.4114970     0.8873540
  H       -3.1001780     1.0479890    -0.0001390
units angstrom
no_reorient  #important for SAPT in psi4, default
symmetry c1  #important for SAPT in psi4, default
}

set PROPERTIES_ORIGIN ["COM"]
properties('MP2/aug-cc-pvtz', properties = ['dipole'])
--------------------------------------------------------------------------

    Molecular point group: c1
  Charge       = 0
  Multiplicity = 1
  Basis Set: AUG-CC-PVTZ
    Blend: AUG-CC-PVTZ
  Basis Set: (AUG-CC-PVTZ AUX)
    Blend: AUG-CC-PVTZ-JKFIT

    Orbital Energies [Eh]
    ---------------------

    Doubly Occupied:

       1A    -92.009667     2A    -15.583905     3A    -11.302042
       4A    -11.300991     5A    -11.255498     6A     -9.008994
       7A     -6.690457     8A     -6.688672     9A     -6.687932
      10A     -1.209714    11A     -1.108997    12A     -1.007440
      13A     -0.871325    14A     -0.685452    15A     -0.676826
      16A     -0.595651    17A     -0.583579    18A     -0.552636
      19A     -0.541203    20A     -0.514573    21A     -0.506973
      22A     -0.429336    23A     -0.378265

  @DF-RHF Final Energy:  -568.54642971694989

   => Energetics <=

    Nuclear Repulsion Energy =            196.8329030855504982
    One-Electron Energy =               -1170.3784024897095151
    Two-Electron Energy =                 404.9990696872092144
    Total Energy =                       -568.5464297169498877
  Basis Set: (AUG-CC-PVTZ AUX)
    Blend: AUG-CC-PVTZ-RI
    Molecular point group: c1

    Geometry (in Angstrom), charge = 0, multiplicity = 1:

       Center              X                  Y                   Z               Mass
    ------------   -----------------  -----------------  -----------------  -----------------
         S            0.021660901802    -0.753719482197     0.000010450557    31.972071174400
         N            2.560041901802     0.611445517803    -0.000026549443    14.003074004430
         C           -1.148932298198     0.782811117803     0.000052650557    12.000000000000
         C           -2.529093098198     0.209690517803    -0.000038549443    12.000000000000
         C            1.510096901802     0.059560517803    -0.000008549443    12.000000000000
         H           -0.876615098198     1.300916517803     0.888684450557     1.007825032230
         H           -0.876498098198     1.301037517803    -0.888474549443     1.007825032230
         H           -2.742936098198    -0.390991482197    -0.887452549443     1.007825032230
         H           -2.743096098198    -0.390970482197     0.887353450557     1.007825032230
         H           -3.204987098198     1.068515517803    -0.000139549443     1.007825032230

  Basis Set: AUG-CC-PVTZ
    Blend: AUG-CC-PVTZ
  Basis Set: (AUG-CC-PVTZ AUX)
    Blend: AUG-CC-PVTZ-JKFIT
	 Reference Energy          =    -568.5464297169498877 [Eh]
	 Singles Energy            =      -0.0000000000000000 [Eh]
	 Same-Spin Energy          =      -0.2344804814868341 [Eh]
	 Opposite-Spin Energy      =      -0.7585578927245649 [Eh]
	 Correlation Energy        =      -0.9930383742113990 [Eh]
	 Total Energy              =    -569.5394680911613250 [Eh]

	 ================> DF-SCS-MP2 Energies <==================
	-----------------------------------------------------------
	 SCS Same-Spin Scale       =       0.3333333333333333 [-]
	 SCS Opposite-Spin Scale   =       1.2000000000000000 [-]
	 SCS Same-Spin Energy      =      -0.0781601604956114 [Eh]
	 SCS Opposite-Spin Energy  =      -0.9102694712694778 [Eh]
	 SCS Correlation Energy    =      -0.9884296317650891 [Eh]
	 SCS Total Energy          =    -569.5348593487150310 [Eh]
	-----------------------------------------------------------

  Dipole Moment: [D]
     X:    -4.7903      Y:     0.0949      Z:     0.0001     Total:     4.7912

*** Psi4 exiting successfully. Buy a developer a beer!
