                               Psi4 1.4a3.dev225

  ==> Input File <==

--------------------------------------------------------------------------
#psi4
#
memory 32 gb

molecule  {
0 1
  S        0.1265690    -0.7744540    -0.0000030
  N        2.6645760     0.5912410     0.0000080
  C       -0.9835110     0.6826500    -0.0000140
  C       -2.4242400     0.1893500     0.0000110
  C        1.6587367     0.0630242     0.0000021
  H       -0.7715750     1.2803170     0.8885550
  H       -0.7715930     1.2802920    -0.8886040
  H       -2.6383020    -0.4113120    -0.8873620
  H       -2.6382940    -0.4112530     0.8874280
  H       -3.1000420     1.0482750    -0.0000140
units angstrom
no_reorient  #important for SAPT in psi4, default
symmetry c1  #important for SAPT in psi4, default
}

set PROPERTIES_ORIGIN ["COM"]
properties('MP2/aug-cc-pvtz', properties = ['dipole'])
--------------------------------------------------------------------------

    Molecular point group: c1
  Charge       = 0
  Multiplicity = 1
  Basis Set: AUG-CC-PVTZ
    Blend: AUG-CC-PVTZ
  Basis Set: (AUG-CC-PVTZ AUX)
    Blend: AUG-CC-PVTZ-JKFIT

    Orbital Energies [Eh]
    ---------------------

    Doubly Occupied:

       1A    -92.016626     2A    -15.573804     3A    -11.295469
       4A    -11.290026     5A    -11.253587     6A     -9.015301
       7A     -6.696657     8A     -6.695145     9A     -6.694225
      10A     -1.236356    11A     -1.110552    12A     -0.998076
      13A     -0.859398    14A     -0.688465    15A     -0.661678
      16A     -0.590853    17A     -0.571816    18A     -0.547563
      19A     -0.544457    20A     -0.520674    21A     -0.512339
      22A     -0.457001    23A     -0.385178

  @DF-RHF Final Energy:  -568.55744154497131

   => Energetics <=

    Nuclear Repulsion Energy =            197.9095032274559287
    One-Electron Energy =               -1172.5033963578064231
    Two-Electron Energy =                 406.0364515853791545
    Total Energy =                       -568.5574415449713115
  Basis Set: (AUG-CC-PVTZ AUX)
    Blend: AUG-CC-PVTZ-RI
    Molecular point group: c1

    Geometry (in Angstrom), charge = 0, multiplicity = 1:

       Center              X                  Y                   Z               Mass
    ------------   -----------------  -----------------  -----------------  -----------------
         S            0.007354903821    -0.746259837292    -0.000003095753    31.972071174400
         N            2.545361903821     0.619435162708     0.000007904247    14.003074004430
         C           -1.102725096179     0.710844162708    -0.000014095753    12.000000000000
         C           -2.543454096179     0.217544162708     0.000010904247    12.000000000000
         C            1.539522603821     0.091218362708     0.000002004247    12.000000000000
         H           -0.890789096179     1.308511162708     0.888554904247     1.007825032230
         H           -0.890807096179     1.308486162708    -0.888604095753     1.007825032230
         H           -2.757516096179    -0.383117837292    -0.887362095753     1.007825032230
         H           -2.757508096179    -0.383058837292     0.887427904247     1.007825032230
         H           -3.219256096179     1.076469162708    -0.000014095753     1.007825032230

  Basis Set: AUG-CC-PVTZ
    Blend: AUG-CC-PVTZ
  Basis Set: (AUG-CC-PVTZ AUX)
    Blend: AUG-CC-PVTZ-JKFIT
	 Reference Energy          =    -568.5574415449713115 [Eh]
	 Singles Energy            =      -0.0000000000000000 [Eh]
	 Same-Spin Energy          =      -0.2307159991844095 [Eh]
	 Opposite-Spin Energy      =      -0.7521882360124892 [Eh]
	 Correlation Energy        =      -0.9829042351968986 [Eh]
	 Total Energy              =    -569.5403457801681952 [Eh]

	 ================> DF-SCS-MP2 Energies <==================
	-----------------------------------------------------------
	 SCS Same-Spin Scale       =       0.3333333333333333 [-]
	 SCS Opposite-Spin Scale   =       1.2000000000000000 [-]
	 SCS Same-Spin Energy      =      -0.0769053330614698 [Eh]
	 SCS Opposite-Spin Energy  =      -0.9026258832149869 [Eh]
	 SCS Correlation Energy    =      -0.9795312162764568 [Eh]
	 SCS Total Energy          =    -569.5369727612477391 [Eh]
	-----------------------------------------------------------

  Dipole Moment: [D]
     X:    -4.5057      Y:    -0.0115      Z:    -0.0000     Total:     4.5057

*** Psi4 exiting successfully. Buy a developer a beer!
