                               Psi4 1.3.2 release

  ==> Input File <==

--------------------------------------------------------------------------
#psi4
#
memory 32 gb

molecule  {
0 1
  S        0.0221320    -0.8481260     0.0000023
  N        2.6648510     0.5909190    -0.0000260
  C       -0.9835220     0.6827390     0.0000510
  C       -2.4242840     0.1891640    -0.0000380
  C        1.6149060     0.0390340    -0.0000080
  H       -0.7718060     1.2803900     0.8886850
  H       -0.7716890     1.2805110    -0.8884740
  H       -2.6381270    -0.4115180    -0.8874520
  H       -2.6382870    -0.4114970     0.8873540
  H       -3.1001780     1.0479890    -0.0001390
units angstrom
no_reorient  #important for SAPT in psi4, default
symmetry c1  #important for SAPT in psi4, default
}

set PROPERTIES_ORIGIN ["COM"]
properties('MP2/aug-cc-pvtz', properties = ['dipole'])
--------------------------------------------------------------------------

    Molecular point group: c1
  Charge       = 0
  Multiplicity = 1
  Basis Set: AUG-CC-PVTZ
    Blend: AUG-CC-PVTZ
  Basis Set: (AUG-CC-PVTZ AUX)
    Blend: AUG-CC-PVTZ-JKFIT

    Orbital Energies [Eh]
    ---------------------

    Doubly Occupied:

       1A    -92.027018     2A    -15.588283     3A    -11.307377
       4A    -11.295979     5A    -11.253041     6A     -9.023869
       7A     -6.704937     8A     -6.703444     9A     -6.702498
      10A     -1.209156    11A     -1.110867    12A     -0.987972
      13A     -0.855940    14A     -0.688536    15A     -0.662573
      16A     -0.594813    17A     -0.569544    18A     -0.545058
      19A     -0.532987    20A     -0.517640    21A     -0.494744
      22A     -0.451304    23A     -0.388990

  @DF-RHF Final Energy:  -568.54208018577162

   => Energetics <=

    Nuclear Repulsion Energy =            195.7956024388988112
    One-Electron Energy =               -1168.2422269727096591
    Two-Electron Energy =                 403.9045443480392237
    Total Energy =                       -568.5420801857715105
  Basis Set: (AUG-CC-PVTZ AUX)
    Blend: AUG-CC-PVTZ-RI
    Molecular point group: c1

    Geometry (in Angstrom), charge = 0, multiplicity = 1:

       Center              X                  Y                   Z               Mass
    ------------   -----------------  -----------------  -----------------  -----------------
         S           -0.052697101216    -0.789483391522     0.000005250638    31.972071174400
         N            2.590021898784     0.649561608478    -0.000023049362    14.003074004430
         C           -1.058351101216     0.741381608478     0.000053950638    12.000000000000
         C           -2.499113101216     0.247806608478    -0.000035049362    12.000000000000
         C            1.540076898784     0.097676608478    -0.000005049362    12.000000000000
         H           -0.846635101216     1.339032608478     0.888687950638     1.007825032230
         H           -0.846518101216     1.339153608478    -0.888471049362     1.007825032230
         H           -2.712956101216    -0.352875391522    -0.887449049362     1.007825032230
         H           -2.713116101216    -0.352854391522     0.887356950638     1.007825032230
         H           -3.175007101216     1.106631608478    -0.000136049362     1.007825032230

  Basis Set: AUG-CC-PVTZ
    Blend: AUG-CC-PVTZ
  Basis Set: (AUG-CC-PVTZ AUX)
    Blend: AUG-CC-PVTZ-JKFIT
	 Reference Energy          =    -568.5420801857716242 [Eh]
	 Singles Energy            =      -0.0000000000000000 [Eh]
	 Same-Spin Energy          =      -0.2335268174489858 [Eh]
	 Opposite-Spin Energy      =      -0.7597751818668873 [Eh]
	 Correlation Energy        =      -0.9933019993158732 [Eh]
	 Total Energy              =    -569.5353821850875420 [Eh]

	 ================> DF-SCS-MP2 Energies <==================
	-----------------------------------------------------------
	 SCS Same-Spin Scale       =       0.3333333333333333 [-]
	 SCS Opposite-Spin Scale   =       1.2000000000000000 [-]
	 SCS Same-Spin Energy      =      -0.0778422724829953 [Eh]
	 SCS Opposite-Spin Energy  =      -0.9117302182402647 [Eh]
	 SCS Correlation Energy    =      -0.9895724907232599 [Eh]
	 SCS Total Energy          =    -569.5316526764949003 [Eh]
	-----------------------------------------------------------

  Dipole Moment: [D]
     X:    -4.4800      Y:    -0.0819      Z:     0.0001     Total:     4.4808

*** Psi4 exiting successfully. Buy a developer a beer!
