                               Psi4 1.3.2 release

  ==> Input File <==

--------------------------------------------------------------------------
#psi4
#
memory 32 gb

molecule  {
0 1
  S        0.1557598    -0.8256962    -0.0000036
  N        2.6648510     0.5909190    -0.0000260
  C       -0.9835220     0.6827390     0.0000510
  C       -2.4242840     0.1891640    -0.0000380
  C        1.6149060     0.0390340    -0.0000080
  H       -0.7718060     1.2803900     0.8886850
  H       -0.7716890     1.2805110    -0.8884740
  H       -2.6381270    -0.4115180    -0.8874520
  H       -2.6382870    -0.4114970     0.8873540
  H       -3.1001780     1.0479890    -0.0001390
units angstrom
no_reorient  #important for SAPT in psi4, default
symmetry c1  #important for SAPT in psi4, default
}

set PROPERTIES_ORIGIN ["COM"]
properties('MP2/aug-cc-pvtz', properties = ['dipole'])
--------------------------------------------------------------------------

    Molecular point group: c1
  Charge       = 0
  Multiplicity = 1
  Basis Set: AUG-CC-PVTZ
    Blend: AUG-CC-PVTZ
  Basis Set: (AUG-CC-PVTZ AUX)
    Blend: AUG-CC-PVTZ-JKFIT

    Orbital Energies [Eh]
    ---------------------

    Doubly Occupied:

       1A    -92.017107     2A    -15.586747     3A    -11.303269
       4A    -11.301632     5A    -11.253827     6A     -9.016158
       7A     -6.697628     8A     -6.695907     9A     -6.695110
      10A     -1.212394    11A     -1.104801    12A     -1.007258
      13A     -0.863069    14A     -0.689574    15A     -0.660798
      16A     -0.594171    17A     -0.570975    18A     -0.546596
      19A     -0.544069    20A     -0.519467    21A     -0.506120
      22A     -0.439716    23A     -0.381507

  @DF-RHF Final Energy:  -568.54953296131202

   => Energetics <=

    Nuclear Repulsion Energy =            196.7121731343407305
    One-Electron Energy =               -1170.1076130630322041
    Two-Electron Energy =                 404.8459069673794488
    Total Energy =                       -568.5495329613120248
  Basis Set: (AUG-CC-PVTZ AUX)
    Blend: AUG-CC-PVTZ-RI
    Molecular point group: c1

    Geometry (in Angstrom), charge = 0, multiplicity = 1:

       Center              X                  Y                   Z               Mass
    ------------   -----------------  -----------------  -----------------  -----------------
         S            0.031831194579    -0.775295080639     0.000001518503    31.972071174400
         N            2.540922394579     0.641320119361    -0.000020881497    14.003074004430
         C           -1.107450605421     0.733140119361     0.000056118503    12.000000000000
         C           -2.548212605421     0.239565119361    -0.000032881497    12.000000000000
         C            1.490977394579     0.089435119361    -0.000002881497    12.000000000000
         H           -0.895734605421     1.330791119361     0.888690118503     1.007825032230
         H           -0.895617605421     1.330912119361    -0.888468881497     1.007825032230
         H           -2.762055605421    -0.361116880639    -0.887446881497     1.007825032230
         H           -2.762215605421    -0.361095880639     0.887359118503     1.007825032230
         H           -3.224106605421     1.098390119361    -0.000133881497     1.007825032230

  Basis Set: AUG-CC-PVTZ
    Blend: AUG-CC-PVTZ
  Basis Set: (AUG-CC-PVTZ AUX)
    Blend: AUG-CC-PVTZ-JKFIT
	 Reference Energy          =    -568.5495329613120248 [Eh]
	 Singles Energy            =      -0.0000000000000000 [Eh]
	 Same-Spin Energy          =      -0.2342606451344212 [Eh]
	 Opposite-Spin Energy      =      -0.7589727185790950 [Eh]
	 Correlation Energy        =      -0.9932333637135161 [Eh]
	 Total Energy              =    -569.5427663250255819 [Eh]

	 ================> DF-SCS-MP2 Energies <==================
	-----------------------------------------------------------
	 SCS Same-Spin Scale       =       0.3333333333333333 [-]
	 SCS Opposite-Spin Scale   =       1.2000000000000000 [-]
	 SCS Same-Spin Energy      =      -0.0780868817114737 [Eh]
	 SCS Opposite-Spin Energy  =      -0.9107672622949139 [Eh]
	 SCS Correlation Energy    =      -0.9888541440063876 [Eh]
	 SCS Total Energy          =    -569.5383871053184066 [Eh]
	-----------------------------------------------------------

  Dipole Moment: [D]
     X:    -4.5737      Y:    -0.0666      Z:     0.0001     Total:     4.5742

*** Psi4 exiting successfully. Buy a developer a beer!
