                               Psi4 1.4a3.dev225

  ==> Input File <==

--------------------------------------------------------------------------
#psi4
#
memory 32 gb

molecule  {
0 1
  S        0.1265690    -0.7744540    -0.0000030
  N        2.6645760     0.5912410     0.0000080
  C       -0.9835110     0.6826500    -0.0000140
  C       -2.4242400     0.1893500     0.0000110
  C        1.5971627     0.0297318     0.0000019
  H       -0.7715750     1.2803170     0.8885550
  H       -0.7715930     1.2802920    -0.8886040
  H       -2.6383020    -0.4113120    -0.8873620
  H       -2.6382940    -0.4112530     0.8874280
  H       -3.1000420     1.0482750    -0.0000140
units angstrom
no_reorient  #important for SAPT in psi4, default
symmetry c1  #important for SAPT in psi4, default
}

set PROPERTIES_ORIGIN ["COM"]
properties('MP2/aug-cc-pvtz', properties = ['dipole'])
--------------------------------------------------------------------------

    Molecular point group: c1
  Charge       = 0
  Multiplicity = 1
  Basis Set: AUG-CC-PVTZ
    Blend: AUG-CC-PVTZ
  Basis Set: (AUG-CC-PVTZ AUX)
    Blend: AUG-CC-PVTZ-JKFIT

    Orbital Energies [Eh]
    ---------------------

    Doubly Occupied:

       1A    -92.015348     2A    -15.593628     3A    -11.309108
       4A    -11.296783     5A    -11.254239     6A     -9.015781
       7A     -6.697368     8A     -6.695624     9A     -6.694793
      10A     -1.205649    11A     -1.114884    12A     -1.010233
      13A     -0.865028    14A     -0.699088    15A     -0.663214
      16A     -0.593707    17A     -0.573309    18A     -0.548458
      19A     -0.545306    20A     -0.519813    21A     -0.503839
      22A     -0.438409    23A     -0.378651

  @DF-RHF Final Energy:  -568.54520621320182

   => Energetics <=

    Nuclear Repulsion Energy =            198.2538996107911089
    One-Electron Energy =               -1173.1336947583372421
    Two-Electron Energy =                 406.3345889343443673
    Total Energy =                       -568.5452062132017090
  Basis Set: (AUG-CC-PVTZ AUX)
    Blend: AUG-CC-PVTZ-RI
    Molecular point group: c1

    Geometry (in Angstrom), charge = 0, multiplicity = 1:

       Center              X                  Y                   Z               Mass
    ------------   -----------------  -----------------  -----------------  -----------------
         S            0.015846476492    -0.741668535217    -0.000003068171    31.972071174400
         N            2.553853476492     0.624026464783     0.000007931829    14.003074004430
         C           -1.094233523508     0.715435464783    -0.000014068171    12.000000000000
         C           -2.534962523508     0.222135464783     0.000010931829    12.000000000000
         C            1.486440176492     0.062517264783     0.000001831829    12.000000000000
         H           -0.882297523508     1.313102464783     0.888554931829     1.007825032230
         H           -0.882315523508     1.313077464783    -0.888604068171     1.007825032230
         H           -2.749024523508    -0.378526535217    -0.887362068171     1.007825032230
         H           -2.749016523508    -0.378467535217     0.887427931829     1.007825032230
         H           -3.210764523508     1.081060464783    -0.000014068171     1.007825032230

  Basis Set: AUG-CC-PVTZ
    Blend: AUG-CC-PVTZ
  Basis Set: (AUG-CC-PVTZ AUX)
    Blend: AUG-CC-PVTZ-JKFIT
	 Reference Energy          =    -568.5452062132018227 [Eh]
	 Singles Energy            =      -0.0000000000000000 [Eh]
	 Same-Spin Energy          =      -0.2362251310116574 [Eh]
	 Opposite-Spin Energy      =      -0.7615720877834149 [Eh]
	 Correlation Energy        =      -0.9977972187950723 [Eh]
	 Total Energy              =    -569.5430034319969081 [Eh]

	 ================> DF-SCS-MP2 Energies <==================
	-----------------------------------------------------------
	 SCS Same-Spin Scale       =       0.3333333333333333 [-]
	 SCS Opposite-Spin Scale   =       1.2000000000000000 [-]
	 SCS Same-Spin Energy      =      -0.0787417103372191 [Eh]
	 SCS Opposite-Spin Energy  =      -0.9138865053400979 [Eh]
	 SCS Correlation Energy    =      -0.9926282156773170 [Eh]
	 SCS Total Energy          =    -569.5378344288791368 [Eh]
	-----------------------------------------------------------

  Dipole Moment: [D]
     X:    -4.5670      Y:    -0.0293      Z:    -0.0000     Total:     4.5671

*** Psi4 exiting successfully. Buy a developer a beer!
