                               Psi4 1.4a3.dev225

  ==> Input File <==

--------------------------------------------------------------------------
#psi4
#
memory 32 gb

molecule  {
0 1
  S        0.1265690    -0.7744540    -0.0000030
  N        2.6645760     0.5912410     0.0000080
  C       -0.9835110     0.6826500    -0.0000140
  C       -2.4242400     0.1893500     0.0000110
  C        1.6324125     0.0486355     0.0000021
  H       -0.7715750     1.2803170     0.8885550
  H       -0.7715930     1.2802920    -0.8886040
  H       -2.6383020    -0.4113120    -0.8873620
  H       -2.6382940    -0.4112530     0.8874280
  H       -3.1000420     1.0482750    -0.0000140
units angstrom
no_reorient  #important for SAPT in psi4, default
symmetry c1  #important for SAPT in psi4, default
}

set PROPERTIES_ORIGIN ["COM"]
properties('MP2/aug-cc-pvtz', properties = ['dipole'])
--------------------------------------------------------------------------

    Molecular point group: c1
  Charge       = 0
  Multiplicity = 1
  Basis Set: AUG-CC-PVTZ
    Blend: AUG-CC-PVTZ
  Basis Set: (AUG-CC-PVTZ AUX)
    Blend: AUG-CC-PVTZ-JKFIT

    Orbital Energies [Eh]
    ---------------------

    Doubly Occupied:

       1A    -92.015979     2A    -15.582806     3A    -11.298661
       4A    -11.296000     5A    -11.253828     6A     -9.015363
       7A     -6.696814     8A     -6.695215     9A     -6.694329
      10A     -1.222695    11A     -1.112515    12A     -1.003221
      13A     -0.861799    14A     -0.693199    15A     -0.662278
      16A     -0.592216    17A     -0.572446    18A     -0.547785
      19A     -0.544908    20A     -0.519772    21A     -0.508084
      22A     -0.449427    23A     -0.382603

  @DF-RHF Final Energy:  -568.55518194452907

   => Energetics <=

    Nuclear Repulsion Energy =            198.0272323939589967
    One-Electron Energy =               -1172.7209420863546256
    Two-Electron Energy =                 406.1385277478665898
    Total Energy =                       -568.5551819445290676
  Basis Set: (AUG-CC-PVTZ AUX)
    Blend: AUG-CC-PVTZ-RI
    Molecular point group: c1

    Geometry (in Angstrom), charge = 0, multiplicity = 1:

       Center              X                  Y                   Z               Mass
    ------------   -----------------  -----------------  -----------------  -----------------
         S            0.010985232488    -0.744275514499    -0.000003095753    31.972071174400
         N            2.548992232488     0.621419485501     0.000007904247    14.003074004430
         C           -1.099094767512     0.712828485501    -0.000014095753    12.000000000000
         C           -2.539823767512     0.219528485501     0.000010904247    12.000000000000
         C            1.516828732488     0.078813985501     0.000002004247    12.000000000000
         H           -0.887158767512     1.310495485501     0.888554904247     1.007825032230
         H           -0.887176767512     1.310470485501    -0.888604095753     1.007825032230
         H           -2.753885767512    -0.381133514499    -0.887362095753     1.007825032230
         H           -2.753877767512    -0.381074514499     0.887427904247     1.007825032230
         H           -3.215625767512     1.078453485501    -0.000014095753     1.007825032230

  Basis Set: AUG-CC-PVTZ
    Blend: AUG-CC-PVTZ
  Basis Set: (AUG-CC-PVTZ AUX)
    Blend: AUG-CC-PVTZ-JKFIT
	 Reference Energy          =    -568.5551819445290676 [Eh]
	 Singles Energy            =      -0.0000000000000000 [Eh]
	 Same-Spin Energy          =      -0.2329915617340686 [Eh]
	 Opposite-Spin Energy      =      -0.7560773130441840 [Eh]
	 Correlation Energy        =      -0.9890688747782526 [Eh]
	 Total Energy              =    -569.5442508193073081 [Eh]

	 ================> DF-SCS-MP2 Energies <==================
	-----------------------------------------------------------
	 SCS Same-Spin Scale       =       0.3333333333333333 [-]
	 SCS Opposite-Spin Scale   =       1.2000000000000000 [-]
	 SCS Same-Spin Energy      =      -0.0776638539113562 [Eh]
	 SCS Opposite-Spin Energy  =      -0.9072927756530208 [Eh]
	 SCS Correlation Energy    =      -0.9849566295643770 [Eh]
	 SCS Total Energy          =    -569.5401385740934757 [Eh]
	-----------------------------------------------------------

  Dipole Moment: [D]
     X:    -4.5258      Y:    -0.0175      Z:    -0.0000     Total:     4.5258

*** Psi4 exiting successfully. Buy a developer a beer!
