                               Psi4 1.3.2 release

  ==> Input File <==

--------------------------------------------------------------------------
#psi4
#
memory 32 gb

molecule  {
0 1
  S        0.1518623    -0.7534999     0.0548949
  N        2.6648510     0.5909190    -0.0000260
  C       -0.9835220     0.6827390     0.0000510
  C       -2.4242840     0.1891640    -0.0000380
  C        1.6149060     0.0390340    -0.0000080
  H       -0.7718060     1.2803900     0.8886850
  H       -0.7716890     1.2805110    -0.8884740
  H       -2.6381270    -0.4115180    -0.8874520
  H       -2.6382870    -0.4114970     0.8873540
  H       -3.1001780     1.0479890    -0.0001390
units angstrom
no_reorient  #important for SAPT in psi4, default
symmetry c1  #important for SAPT in psi4, default
}

set PROPERTIES_ORIGIN ["COM"]
properties('MP2/aug-cc-pvtz', properties = ['dipole'])
--------------------------------------------------------------------------

    Molecular point group: c1
  Charge       = 0
  Multiplicity = 1
  Basis Set: AUG-CC-PVTZ
    Blend: AUG-CC-PVTZ
  Basis Set: (AUG-CC-PVTZ AUX)
    Blend: AUG-CC-PVTZ-JKFIT

    Orbital Energies [Eh]
    ---------------------

    Doubly Occupied:

       1A    -92.012769     2A    -15.587983     3A    -11.302480
       4A    -11.296598     5A    -11.254435     6A     -9.013634
       7A     -6.695294     8A     -6.693519     9A     -6.692687
      10A     -1.215175    11A     -1.115154    12A     -1.011773
      13A     -0.865736    14A     -0.697696    15A     -0.662823
      16A     -0.592590    17A     -0.574019    18A     -0.549530
      19A     -0.547316    20A     -0.520528    21A     -0.508477
      22A     -0.441407    23A     -0.378533

  @DF-RHF Final Energy:  -568.55039907635762

   => Energetics <=

    Nuclear Repulsion Energy =            198.7770015679940627
    One-Electron Energy =               -1174.1944878188360235
    Two-Electron Energy =                 406.8670871744844248
    Total Energy =                       -568.5503990763575075
  Basis Set: (AUG-CC-PVTZ AUX)
    Blend: AUG-CC-PVTZ-RI
    Molecular point group: c1

    Geometry (in Angstrom), charge = 0, multiplicity = 1:

       Center              X                  Y                   Z               Mass
    ------------   -----------------  -----------------  -----------------  -----------------
         S            0.029365771719    -0.729626213818     0.034728399038    31.972071174400
         N            2.542354471719     0.614792686182    -0.020192500962    14.003074004430
         C           -1.106018528281     0.706612686182    -0.020115500962    12.000000000000
         C           -2.546780528281     0.213037686182    -0.020204500962    12.000000000000
         C            1.492409471719     0.062907686182    -0.020174500962    12.000000000000
         H           -0.894302528281     1.304263686182     0.868518499038     1.007825032230
         H           -0.894185528281     1.304384686182    -0.908640500962     1.007825032230
         H           -2.760623528281    -0.387644313818    -0.907618500962     1.007825032230
         H           -2.760783528281    -0.387623313818     0.867187499038     1.007825032230
         H           -3.222674528281     1.071862686182    -0.020305500962     1.007825032230

  Basis Set: AUG-CC-PVTZ
    Blend: AUG-CC-PVTZ
  Basis Set: (AUG-CC-PVTZ AUX)
    Blend: AUG-CC-PVTZ-JKFIT
	 Reference Energy          =    -568.5503990763576212 [Eh]
	 Singles Energy            =      -0.0000000000000000 [Eh]
	 Same-Spin Energy          =      -0.2349505398364972 [Eh]
	 Opposite-Spin Energy      =      -0.7587248463044469 [Eh]
	 Correlation Energy        =      -0.9936753861409442 [Eh]
	 Total Energy              =    -569.5440744624985427 [Eh]

	 ================> DF-SCS-MP2 Energies <==================
	-----------------------------------------------------------
	 SCS Same-Spin Scale       =       0.3333333333333333 [-]
	 SCS Opposite-Spin Scale   =       1.2000000000000000 [-]
	 SCS Same-Spin Energy      =      -0.0783168466121657 [Eh]
	 SCS Opposite-Spin Energy  =      -0.9104698155653362 [Eh]
	 SCS Correlation Energy    =      -0.9887866621775020 [Eh]
	 SCS Total Energy          =    -569.5391857385351386 [Eh]
	-----------------------------------------------------------

  Dipole Moment: [D]
     X:    -4.5751      Y:    -0.0076      Z:     0.0097     Total:     4.5751

*** Psi4 exiting successfully. Buy a developer a beer!
