                               Psi4 1.3.2 release

  ==> Input File <==

--------------------------------------------------------------------------
#psi4
#
memory 32 gb

molecule  {
0 1
  S        0.1264700    -0.7742460     0.0000110
  N        2.6648510     0.5909190    -0.0000260
  C       -1.1297378     0.5587317     0.0000523
  C       -2.4242840     0.1891640    -0.0000380
  C        1.6149060     0.0390340    -0.0000080
  H       -0.7718060     1.2803900     0.8886850
  H       -0.7716890     1.2805110    -0.8884740
  H       -2.6381270    -0.4115180    -0.8874520
  H       -2.6382870    -0.4114970     0.8873540
  H       -3.1001780     1.0479890    -0.0001390
units angstrom
no_reorient  #important for SAPT in psi4, default
symmetry c1  #important for SAPT in psi4, default
}

set PROPERTIES_ORIGIN ["COM"]
properties('MP2/aug-cc-pvtz', properties = ['dipole'])
--------------------------------------------------------------------------

    Molecular point group: c1
  Charge       = 0
  Multiplicity = 1
  Basis Set: AUG-CC-PVTZ
    Blend: AUG-CC-PVTZ
  Basis Set: (AUG-CC-PVTZ AUX)
    Blend: AUG-CC-PVTZ-JKFIT

    Orbital Energies [Eh]
    ---------------------

    Doubly Occupied:

       1A    -92.014598     2A    -15.592704     3A    -11.307965
       4A    -11.307465     5A    -11.246044     6A     -9.014643
       7A     -6.696187     8A     -6.694695     9A     -6.693774
      10A     -1.216854    11A     -1.139237    12A     -1.028252
      13A     -0.841769    14A     -0.703699    15A     -0.660365
      16A     -0.623632    17A     -0.598833    18A     -0.554223
      19A     -0.532366    20A     -0.507625    21A     -0.484109
      22A     -0.439663    23A     -0.374582

  @DF-RHF Final Energy:  -568.50771405030468

   => Energetics <=

    Nuclear Repulsion Energy =            199.0562910579378126
    One-Electron Energy =               -1174.5814429297111019
    Two-Electron Energy =                 407.0174378214684907
    Total Energy =                       -568.5077140503046849
  Basis Set: (AUG-CC-PVTZ AUX)
    Blend: AUG-CC-PVTZ-RI
    Molecular point group: c1

    Geometry (in Angstrom), charge = 0, multiplicity = 1:

       Center              X                  Y                   Z               Mass
    ------------   -----------------  -----------------  -----------------  -----------------
         S            0.033467875485    -0.725647824635     0.000010574674    31.972071174400
         N            2.571848875485     0.639517175365    -0.000026425326    14.003074004430
         C           -1.222739924515     0.607329875365     0.000051874674    12.000000000000
         C           -2.517286124515     0.237762175365    -0.000038425326    12.000000000000
         C            1.521903875485     0.087632175365    -0.000008425326    12.000000000000
         H           -0.864808124515     1.328988175365     0.888684574674     1.007825032230
         H           -0.864691124515     1.329109175365    -0.888474425326     1.007825032230
         H           -2.731129124515    -0.362919824635    -0.887452425326     1.007825032230
         H           -2.731289124515    -0.362898824635     0.887353574674     1.007825032230
         H           -3.193180124515     1.096587175365    -0.000139425326     1.007825032230

  Basis Set: AUG-CC-PVTZ
    Blend: AUG-CC-PVTZ
  Basis Set: (AUG-CC-PVTZ AUX)
    Blend: AUG-CC-PVTZ-JKFIT
	 Reference Energy          =    -568.5077140503046849 [Eh]
	 Singles Energy            =      -0.0000000000000000 [Eh]
	 Same-Spin Energy          =      -0.2368279903088058 [Eh]
	 Opposite-Spin Energy      =      -0.7617517785652144 [Eh]
	 Correlation Energy        =      -0.9985797688740201 [Eh]
	 Total Energy              =    -569.5062938191787225 [Eh]

	 ================> DF-SCS-MP2 Energies <==================
	-----------------------------------------------------------
	 SCS Same-Spin Scale       =       0.3333333333333333 [-]
	 SCS Opposite-Spin Scale   =       1.2000000000000000 [-]
	 SCS Same-Spin Energy      =      -0.0789426634362686 [Eh]
	 SCS Opposite-Spin Energy  =      -0.9141021342782572 [Eh]
	 SCS Correlation Energy    =      -0.9930447977145258 [Eh]
	 SCS Total Energy          =    -569.5007588480192453 [Eh]
	-----------------------------------------------------------

  Dipole Moment: [D]
     X:    -4.6440      Y:     0.0462      Z:     0.0001     Total:     4.6442

*** Psi4 exiting successfully. Buy a developer a beer!
