                               Psi4 1.3.2 release

  ==> Input File <==

--------------------------------------------------------------------------
#psi4
#
memory 32 gb

molecule  {
0 1
  S        0.1264700    -0.7742460     0.0000110
  N        2.6648510     0.5909190    -0.0000260
  C       -0.9835220     0.6827390     0.0000510
  C       -2.4242840     0.1891640    -0.0000380
  C        1.7904154     0.1349322    -0.0000102
  H       -0.7718060     1.2803900     0.8886850
  H       -0.7716890     1.2805110    -0.8884740
  H       -2.6381270    -0.4115180    -0.8874520
  H       -2.6382870    -0.4114970     0.8873540
  H       -3.1001780     1.0479890    -0.0001390
units angstrom
no_reorient  #important for SAPT in psi4, default
symmetry c1  #important for SAPT in psi4, default
}

set PROPERTIES_ORIGIN ["COM"]
properties('MP2/aug-cc-pvtz', properties = ['dipole'])
--------------------------------------------------------------------------

    Molecular point group: c1
  Charge       = 0
  Multiplicity = 1
  Basis Set: AUG-CC-PVTZ
    Blend: AUG-CC-PVTZ
  Basis Set: (AUG-CC-PVTZ AUX)
    Blend: AUG-CC-PVTZ-JKFIT

    Orbital Energies [Eh]
    ---------------------

    Doubly Occupied:

       1A    -92.020921     2A    -15.520942     3A    -11.293677
       4A    -11.253141     5A    -11.242065     6A     -9.016918
       7A     -6.697877     8A     -6.696623     9A     -6.695581
      10A     -1.303826    11A     -1.102839    12A     -0.976488
      13A     -0.848436    14A     -0.662444    15A     -0.659806
      16A     -0.582401    17A     -0.568434    18A     -0.560756
      19A     -0.549446    20A     -0.536753    21A     -0.533651
      22A     -0.480239    23A     -0.392968

  @DF-RHF Final Energy:  -568.46976828562515

   => Energetics <=

    Nuclear Repulsion Energy =            198.0350731809941749
    One-Electron Energy =               -1172.6172179193590637
    Two-Electron Energy =                 406.1123764527397384
    Total Energy =                       -568.4697682856251504
  Basis Set: (AUG-CC-PVTZ AUX)
    Blend: AUG-CC-PVTZ-RI
    Molecular point group: c1

    Geometry (in Angstrom), charge = 0, multiplicity = 1:

       Center              X                  Y                   Z               Mass
    ------------   -----------------  -----------------  -----------------  -----------------
         S           -0.010900736524    -0.755974643325     0.000011057354    31.972071174400
         N            2.527480263476     0.609190356675    -0.000025942646    14.003074004430
         C           -1.120892736524     0.701010356675     0.000051057354    12.000000000000
         C           -2.561654736524     0.207435356675    -0.000037942646    12.000000000000
         C            1.653044663476     0.153203556675    -0.000010142646    12.000000000000
         H           -0.909176736524     1.298661356675     0.888685057354     1.007825032230
         H           -0.909059736524     1.298782356675    -0.888473942646     1.007825032230
         H           -2.775497736524    -0.393246643325    -0.887451942646     1.007825032230
         H           -2.775657736524    -0.393225643325     0.887354057354     1.007825032230
         H           -3.237548736524     1.066260356675    -0.000138942646     1.007825032230

  Basis Set: AUG-CC-PVTZ
    Blend: AUG-CC-PVTZ
  Basis Set: (AUG-CC-PVTZ AUX)
    Blend: AUG-CC-PVTZ-JKFIT
	 Reference Energy          =    -568.4697682856251504 [Eh]
	 Singles Energy            =      -0.0000000000000000 [Eh]
	 Same-Spin Energy          =      -0.2215939790298656 [Eh]
	 Opposite-Spin Energy      =      -0.7362468614817022 [Eh]
	 Correlation Energy        =      -0.9578408405115677 [Eh]
	 Total Energy              =    -569.4276091261367583 [Eh]

	 ================> DF-SCS-MP2 Energies <==================
	-----------------------------------------------------------
	 SCS Same-Spin Scale       =       0.3333333333333333 [-]
	 SCS Opposite-Spin Scale   =       1.2000000000000000 [-]
	 SCS Same-Spin Energy      =      -0.0738646596766219 [Eh]
	 SCS Opposite-Spin Energy  =      -0.8834962337780425 [Eh]
	 SCS Correlation Energy    =      -0.9573608934546645 [Eh]
	 SCS Total Energy          =    -569.4271291790797704 [Eh]
	-----------------------------------------------------------

  Dipole Moment: [D]
     X:    -4.5072      Y:    -0.0124      Z:     0.0001     Total:     4.5072

*** Psi4 exiting successfully. Buy a developer a beer!
