                               Psi4 1.3.2 release

  ==> Input File <==

--------------------------------------------------------------------------
#psi4
#
memory 32 gb

molecule  {
0 1
  S        0.0989937    -0.7218049     0.0000256
  N        2.6648510     0.5909190    -0.0000260
  C       -0.9835220     0.6827390     0.0000510
  C       -2.4242840     0.1891640    -0.0000380
  C        1.6149060     0.0390340    -0.0000080
  H       -0.7718060     1.2803900     0.8886850
  H       -0.7716890     1.2805110    -0.8884740
  H       -2.6381270    -0.4115180    -0.8874520
  H       -2.6382870    -0.4114970     0.8873540
  H       -3.1001780     1.0479890    -0.0001390
units angstrom
no_reorient  #important for SAPT in psi4, default
symmetry c1  #important for SAPT in psi4, default
}

set PROPERTIES_ORIGIN ["COM"]
properties('MP2/aug-cc-pvtz', properties = ['dipole'])
--------------------------------------------------------------------------

    Molecular point group: c1
  Charge       = 0
  Multiplicity = 1
  Basis Set: AUG-CC-PVTZ
    Blend: AUG-CC-PVTZ
  Basis Set: (AUG-CC-PVTZ AUX)
    Blend: AUG-CC-PVTZ-JKFIT

    Orbital Energies [Eh]
    ---------------------

    Doubly Occupied:

       1A    -92.013417     2A    -15.589902     3A    -11.304701
       4A    -11.291325     5A    -11.254649     6A     -9.014363
       7A     -6.695923     8A     -6.694331     9A     -6.693373
      10A     -1.215427    11A     -1.124096    12A     -1.006130
      13A     -0.864297    14A     -0.702958    15A     -0.665514
      16A     -0.591921    17A     -0.575427    18A     -0.549982
      19A     -0.546812    20A     -0.518704    21A     -0.505264
      22A     -0.447556    23A     -0.379166

  @DF-RHF Final Energy:  -568.54974275072425

   => Energetics <=

    Nuclear Repulsion Energy =            199.6059838474285755
    One-Electron Energy =               -1175.8209708214510556
    Two-Electron Energy =                 407.6652442232982594
    Total Energy =                       -568.5497427507242492
  Basis Set: (AUG-CC-PVTZ AUX)
    Blend: AUG-CC-PVTZ-RI
    Molecular point group: c1

    Geometry (in Angstrom), charge = 0, multiplicity = 1:

       Center              X                  Y                   Z               Mass
    ------------   -----------------  -----------------  -----------------  -----------------
         S           -0.004077064720    -0.709577059861     0.000019989407    31.972071174400
         N            2.561780235280     0.603146840139    -0.000031610593    14.003074004430
         C           -1.086592764720     0.694966840139     0.000045389407    12.000000000000
         C           -2.527354764720     0.201391840139    -0.000043610593    12.000000000000
         C            1.511835235280     0.051261840139    -0.000013610593    12.000000000000
         H           -0.874876764720     1.292617840139     0.888679389407     1.007825032230
         H           -0.874759764720     1.292738840139    -0.888479610593     1.007825032230
         H           -2.741197764720    -0.399290159861    -0.887457610593     1.007825032230
         H           -2.741357764720    -0.399269159861     0.887348389407     1.007825032230
         H           -3.203248764720     1.060216840139    -0.000144610593     1.007825032230

  Basis Set: AUG-CC-PVTZ
    Blend: AUG-CC-PVTZ
  Basis Set: (AUG-CC-PVTZ AUX)
    Blend: AUG-CC-PVTZ-JKFIT
	 Reference Energy          =    -568.5497427507242492 [Eh]
	 Singles Energy            =      -0.0000000000000000 [Eh]
	 Same-Spin Energy          =      -0.2350030230742935 [Eh]
	 Opposite-Spin Energy      =      -0.7587660728240955 [Eh]
	 Correlation Energy        =      -0.9937690958983889 [Eh]
	 Total Energy              =    -569.5435118466226641 [Eh]

	 ================> DF-SCS-MP2 Energies <==================
	-----------------------------------------------------------
	 SCS Same-Spin Scale       =       0.3333333333333333 [-]
	 SCS Opposite-Spin Scale   =       1.2000000000000000 [-]
	 SCS Same-Spin Energy      =      -0.0783343410247645 [Eh]
	 SCS Opposite-Spin Energy  =      -0.9105192873889145 [Eh]
	 SCS Correlation Energy    =      -0.9888536284136791 [Eh]
	 SCS Total Energy          =    -569.5385963791379709 [Eh]
	-----------------------------------------------------------

  Dipole Moment: [D]
     X:    -4.5293      Y:     0.0328      Z:     0.0001     Total:     4.5294

*** Psi4 exiting successfully. Buy a developer a beer!
