                               Psi4 1.4a3.dev225

  ==> Input File <==

--------------------------------------------------------------------------
#psi4
#
memory 32 gb

molecule  {
0 1
  S        0.1265690    -0.7744540    -0.0000030
  N        2.6645760     0.5912410     0.0000080
  C       -0.9835110     0.6826500    -0.0000140
  C       -2.4242400     0.1893500     0.0000110
  C        1.5706122     0.0157650     0.0000017
  H       -0.7715750     1.2803170     0.8885550
  H       -0.7715930     1.2802920    -0.8886040
  H       -2.6383020    -0.4113120    -0.8873620
  H       -2.6382940    -0.4112530     0.8874280
  H       -3.1000420     1.0482750    -0.0000140
units angstrom
no_reorient  #important for SAPT in psi4, default
symmetry c1  #important for SAPT in psi4, default
}

set PROPERTIES_ORIGIN ["COM"]
properties('MP2/aug-cc-pvtz', properties = ['dipole'])
--------------------------------------------------------------------------

    Molecular point group: c1
  Charge       = 0
  Multiplicity = 1
  Basis Set: AUG-CC-PVTZ
    Blend: AUG-CC-PVTZ
  Basis Set: (AUG-CC-PVTZ AUX)
    Blend: AUG-CC-PVTZ-JKFIT

    Orbital Energies [Eh]
    ---------------------

    Doubly Occupied:

       1A    -92.015089     2A    -15.600772     3A    -11.315969
       4A    -11.297396     5A    -11.254608     6A     -9.016392
       7A     -6.698087     8A     -6.696208     9A     -6.695428
      10A     -1.194532    11A     -1.115908    12A     -1.015433
      13A     -0.867436    14A     -0.703170    15A     -0.664013
      16A     -0.594630    17A     -0.573974    18A     -0.549186
      19A     -0.545367    20A     -0.520581    21A     -0.501748
      22A     -0.429615    23A     -0.375383

  @DF-RHF Final Energy:  -568.53324880717935

   => Energetics <=

    Nuclear Repulsion Energy =            198.4751471056154344
    One-Electron Energy =               -1173.5349401172704802
    Two-Electron Energy =                 406.5265442044756128
    Total Energy =                       -568.5332488071794614
  Basis Set: (AUG-CC-PVTZ AUX)
    Blend: AUG-CC-PVTZ-RI
    Molecular point group: c1

    Geometry (in Angstrom), charge = 0, multiplicity = 1:

       Center              X                  Y                   Z               Mass
    ------------   -----------------  -----------------  -----------------  -----------------
         S            0.019508013833    -0.739742395983    -0.000003040589    31.972071174400
         N            2.557515013833     0.625952604017     0.000007959411    14.003074004430
         C           -1.090571986167     0.717361604017    -0.000014040589    12.000000000000
         C           -2.531300986167     0.224061604017     0.000010959411    12.000000000000
         C            1.463551213833     0.050476604017     0.000001659411    12.000000000000
         H           -0.878635986167     1.315028604017     0.888554959411     1.007825032230
         H           -0.878653986167     1.315003604017    -0.888604040589     1.007825032230
         H           -2.745362986167    -0.376600395983    -0.887362040589     1.007825032230
         H           -2.745354986167    -0.376541395983     0.887427959411     1.007825032230
         H           -3.207102986167     1.082986604017    -0.000014040589     1.007825032230

  Basis Set: AUG-CC-PVTZ
    Blend: AUG-CC-PVTZ
  Basis Set: (AUG-CC-PVTZ AUX)
    Blend: AUG-CC-PVTZ-JKFIT
	 Reference Energy          =    -568.5332488071793478 [Eh]
	 Singles Energy            =      -0.0000000000000000 [Eh]
	 Same-Spin Energy          =      -0.2387603480043947 [Eh]
	 Opposite-Spin Energy      =      -0.7658599553103007 [Eh]
	 Correlation Energy        =      -1.0046203033146954 [Eh]
	 Total Energy              =    -569.5378691104940572 [Eh]

	 ================> DF-SCS-MP2 Energies <==================
	-----------------------------------------------------------
	 SCS Same-Spin Scale       =       0.3333333333333333 [-]
	 SCS Opposite-Spin Scale   =       1.2000000000000000 [-]
	 SCS Same-Spin Energy      =      -0.0795867826681316 [Eh]
	 SCS Opposite-Spin Energy  =      -0.9190319463723609 [Eh]
	 SCS Correlation Energy    =      -0.9986187290404924 [Eh]
	 SCS Total Energy          =    -569.5318675362198064 [Eh]
	-----------------------------------------------------------

  Dipole Moment: [D]
     X:    -4.6117      Y:    -0.0409      Z:    -0.0000     Total:     4.6118

*** Psi4 exiting successfully. Buy a developer a beer!
