                               Psi4 1.3.2 release

  ==> Input File <==

--------------------------------------------------------------------------
#psi4
#
memory 32 gb

molecule  {
0 1
  S        0.1264700    -0.7742460     0.0000110
  N        2.6648510     0.5909190    -0.0000260
  C       -0.8791840     0.7566190     0.0000499
  C       -2.4242840     0.1891640    -0.0000380
  C        1.6149060     0.0390340    -0.0000080
  H       -0.7718060     1.2803900     0.8886850
  H       -0.7716890     1.2805110    -0.8884740
  H       -2.6381270    -0.4115180    -0.8874520
  H       -2.6382870    -0.4114970     0.8873540
  H       -3.1001780     1.0479890    -0.0001390
units angstrom
no_reorient  #important for SAPT in psi4, default
symmetry c1  #important for SAPT in psi4, default
}

set PROPERTIES_ORIGIN ["COM"]
properties('MP2/aug-cc-pvtz', properties = ['dipole'])
--------------------------------------------------------------------------

    Molecular point group: c1
  Charge       = 0
  Multiplicity = 1
  Basis Set: AUG-CC-PVTZ
    Blend: AUG-CC-PVTZ
  Basis Set: (AUG-CC-PVTZ AUX)
    Blend: AUG-CC-PVTZ-JKFIT

    Orbital Energies [Eh]
    ---------------------

    Doubly Occupied:

       1A    -92.018125     2A    -15.585748     3A    -11.301970
       4A    -11.292604     5A    -11.258441     6A     -9.017677
       7A     -6.699154     8A     -6.697419     9A     -6.696570
      10A     -1.212378    11A     -1.106739    12A     -0.993639
      13A     -0.875754    14A     -0.691661    15A     -0.676553
      16A     -0.588639    17A     -0.559431    18A     -0.557980
      19A     -0.537014    20A     -0.510201    21A     -0.509685
      22A     -0.443011    23A     -0.383137

  @DF-RHF Final Energy:  -568.53760885635370

   => Energetics <=

    Nuclear Repulsion Energy =            197.6890331933391849
    One-Electron Energy =               -1172.0262207740656777
    Two-Electron Energy =                 405.7995787243727932
    Total Energy =                       -568.5376088563536996
  Basis Set: (AUG-CC-PVTZ AUX)
    Blend: AUG-CC-PVTZ-RI
    Molecular point group: c1

    Geometry (in Angstrom), charge = 0, multiplicity = 1:

       Center              X                  Y                   Z               Mass
    ------------   -----------------  -----------------  -----------------  -----------------
         S           -0.001085601643    -0.752938148288     0.000010905654    31.972071174400
         N            2.537295398357     0.612226851712    -0.000026094346    14.003074004430
         C           -1.006739601643     0.777926851712     0.000049805654    12.000000000000
         C           -2.551839601643     0.210471851712    -0.000038094346    12.000000000000
         C            1.487350398357     0.060341851712    -0.000008094346    12.000000000000
         H           -0.899361601643     1.301697851712     0.888684905654     1.007825032230
         H           -0.899244601643     1.301818851712    -0.888474094346     1.007825032230
         H           -2.765682601643    -0.390210148288    -0.887452094346     1.007825032230
         H           -2.765842601643    -0.390189148288     0.887353905654     1.007825032230
         H           -3.227733601643     1.069296851712    -0.000139094346     1.007825032230

  Basis Set: AUG-CC-PVTZ
    Blend: AUG-CC-PVTZ
  Basis Set: (AUG-CC-PVTZ AUX)
    Blend: AUG-CC-PVTZ-JKFIT
	 Reference Energy          =    -568.5376088563536996 [Eh]
	 Singles Energy            =      -0.0000000000000000 [Eh]
	 Same-Spin Energy          =      -0.2345291493945400 [Eh]
	 Opposite-Spin Energy      =      -0.7596218897699901 [Eh]
	 Correlation Energy        =      -0.9941510391645301 [Eh]
	 Total Energy              =    -569.5317598955182348 [Eh]

	 ================> DF-SCS-MP2 Energies <==================
	-----------------------------------------------------------
	 SCS Same-Spin Scale       =       0.3333333333333333 [-]
	 SCS Opposite-Spin Scale   =       1.2000000000000000 [-]
	 SCS Same-Spin Energy      =      -0.0781763831315133 [Eh]
	 SCS Opposite-Spin Energy  =      -0.9115462677239881 [Eh]
	 SCS Correlation Energy    =      -0.9897226508555014 [Eh]
	 SCS Total Energy          =    -569.5273315072091691 [Eh]
	-----------------------------------------------------------

  Dipole Moment: [D]
     X:    -4.5144      Y:    -0.1028      Z:     0.0001     Total:     4.5156

*** Psi4 exiting successfully. Buy a developer a beer!
