                               Psi4 1.3.2 release

  ==> Input File <==

--------------------------------------------------------------------------
#psi4
#
memory 32 gb

molecule  {
0 1
  S        0.1766419    -0.7346203     0.0000154
  N        2.6648510     0.5909190    -0.0000260
  C       -0.9835220     0.6827390     0.0000510
  C       -2.4242840     0.1891640    -0.0000380
  C        1.6149060     0.0390340    -0.0000080
  H       -0.7718060     1.2803900     0.8886850
  H       -0.7716890     1.2805110    -0.8884740
  H       -2.6381270    -0.4115180    -0.8874520
  H       -2.6382870    -0.4114970     0.8873540
  H       -3.1001780     1.0479890    -0.0001390
units angstrom
no_reorient  #important for SAPT in psi4, default
symmetry c1  #important for SAPT in psi4, default
}

set PROPERTIES_ORIGIN ["COM"]
properties('MP2/aug-cc-pvtz', properties = ['dipole'])
--------------------------------------------------------------------------

    Molecular point group: c1
  Charge       = 0
  Multiplicity = 1
  Basis Set: AUG-CC-PVTZ
    Blend: AUG-CC-PVTZ
  Basis Set: (AUG-CC-PVTZ AUX)
    Blend: AUG-CC-PVTZ-JKFIT

    Orbital Energies [Eh]
    ---------------------

    Doubly Occupied:

       1A    -92.009869     2A    -15.587317     3A    -11.300541
       4A    -11.296904     5A    -11.254909     6A     -9.011820
       7A     -6.693641     8A     -6.691718     9A     -6.690923
      10A     -1.216499    11A     -1.116834    12A     -1.017016
      13A     -0.868213    14A     -0.698814    15A     -0.663278
      16A     -0.592179    17A     -0.575339    18A     -0.550664
      19A     -0.549786    20A     -0.521454    21A     -0.511371
      22A     -0.438443    23A     -0.376489

  @DF-RHF Final Energy:  -568.54864714490327

   => Energetics <=

    Nuclear Repulsion Energy =            199.4612854189691120
    One-Electron Energy =               -1175.5518204403254003
    Two-Electron Energy =                 407.5418878764530746
    Total Energy =                       -568.5486471449032706
  Basis Set: (AUG-CC-PVTZ AUX)
    Blend: AUG-CC-PVTZ-RI
    Molecular point group: c1

    Geometry (in Angstrom), charge = 0, multiplicity = 1:

       Center              X                  Y                   Z               Mass
    ------------   -----------------  -----------------  -----------------  -----------------
         S            0.045040484304    -0.717683635902     0.000013537242    31.972071174400
         N            2.533249584304     0.607855664098    -0.000027862758    14.003074004430
         C           -1.115123415696     0.699675664098     0.000049137242    12.000000000000
         C           -2.555885415696     0.206100664098    -0.000039862758    12.000000000000
         C            1.483304584304     0.055970664098    -0.000009862758    12.000000000000
         H           -0.903407415696     1.297326664098     0.888683137242     1.007825032230
         H           -0.903290415696     1.297447664098    -0.888475862758     1.007825032230
         H           -2.769728415696    -0.394581335902    -0.887453862758     1.007825032230
         H           -2.769888415696    -0.394560335902     0.887352137242     1.007825032230
         H           -3.231779415696     1.064925664098    -0.000140862758     1.007825032230

  Basis Set: AUG-CC-PVTZ
    Blend: AUG-CC-PVTZ
  Basis Set: (AUG-CC-PVTZ AUX)
    Blend: AUG-CC-PVTZ-JKFIT
	 Reference Energy          =    -568.5486471449032706 [Eh]
	 Singles Energy            =      -0.0000000000000000 [Eh]
	 Same-Spin Energy          =      -0.2353428908366306 [Eh]
	 Opposite-Spin Energy      =      -0.7586823802596815 [Eh]
	 Correlation Energy        =      -0.9940252710963120 [Eh]
	 Total Energy              =    -569.5426724159996184 [Eh]

	 ================> DF-SCS-MP2 Energies <==================
	-----------------------------------------------------------
	 SCS Same-Spin Scale       =       0.3333333333333333 [-]
	 SCS Opposite-Spin Scale   =       1.2000000000000000 [-]
	 SCS Same-Spin Energy      =      -0.0784476302788769 [Eh]
	 SCS Opposite-Spin Energy  =      -0.9104188563116178 [Eh]
	 SCS Correlation Energy    =      -0.9888664865904946 [Eh]
	 SCS Total Energy          =    -569.5375136314937663 [Eh]
	-----------------------------------------------------------

  Dipole Moment: [D]
     X:    -4.6139      Y:     0.0050      Z:     0.0001     Total:     4.6139

*** Psi4 exiting successfully. Buy a developer a beer!
