                               Psi4 1.3.2 release

  ==> Input File <==

--------------------------------------------------------------------------
#psi4
#
memory 32 gb

molecule  {
0 1
  S        0.1984679    -0.7067855     0.1643954
  N        2.6648510     0.5909190    -0.0000260
  C       -0.9835220     0.6827390     0.0000510
  C       -2.4242840     0.1891640    -0.0000380
  C        1.6149060     0.0390340    -0.0000080
  H       -0.7718060     1.2803900     0.8886850
  H       -0.7716890     1.2805110    -0.8884740
  H       -2.6381270    -0.4115180    -0.8874520
  H       -2.6382870    -0.4114970     0.8873540
  H       -3.1001780     1.0479890    -0.0001390
units angstrom
no_reorient  #important for SAPT in psi4, default
symmetry c1  #important for SAPT in psi4, default
}

set PROPERTIES_ORIGIN ["COM"]
properties('MP2/aug-cc-pvtz', properties = ['dipole'])
--------------------------------------------------------------------------

    Molecular point group: c1
  Charge       = 0
  Multiplicity = 1
  Basis Set: AUG-CC-PVTZ
    Blend: AUG-CC-PVTZ
  Basis Set: (AUG-CC-PVTZ AUX)
    Blend: AUG-CC-PVTZ-JKFIT

    Orbital Energies [Eh]
    ---------------------

    Doubly Occupied:

       1A    -92.007531     2A    -15.586817     3A    -11.298847
       4A    -11.296938     5A    -11.255253     6A     -9.010396
       7A     -6.692342     8A     -6.690287     9A     -6.689510
      10A     -1.217878    11A     -1.118179    12A     -1.020786
      13A     -0.870184    14A     -0.700225    15A     -0.662308
      16A     -0.591974    17A     -0.576739    18A     -0.553523
      19A     -0.549484    20A     -0.522932    21A     -0.512897
      22A     -0.435875    23A     -0.374125

  @DF-RHF Final Energy:  -568.54424860043491

   => Energetics <=

    Nuclear Repulsion Energy =            200.0093884360508980
    One-Electron Energy =               -1176.6372131085167894
    Two-Electron Energy =                 408.0835760720309509
    Total Energy =                       -568.5442486004349121
  Basis Set: (AUG-CC-PVTZ AUX)
    Blend: AUG-CC-PVTZ-RI
    Molecular point group: c1

    Geometry (in Angstrom), charge = 0, multiplicity = 1:

       Center              X                  Y                   Z               Mass
    ------------   -----------------  -----------------  -----------------  -----------------
         S            0.058846852321    -0.700076310123     0.103994604525    31.972071174400
         N            2.525229952321     0.597628189877    -0.060426795475    14.003074004430
         C           -1.123143047679     0.689448189877    -0.060349795475    12.000000000000
         C           -2.563905047679     0.195873189877    -0.060438795475    12.000000000000
         C            1.475284952321     0.045743189877    -0.060408795475    12.000000000000
         H           -0.911427047679     1.287099189877     0.828284204525     1.007825032230
         H           -0.911310047679     1.287220189877    -0.948874795475     1.007825032230
         H           -2.777748047679    -0.404808810123    -0.947852795475     1.007825032230
         H           -2.777908047679    -0.404787810123     0.826953204525     1.007825032230
         H           -3.239799047679     1.054698189877    -0.060539795475     1.007825032230

  Basis Set: AUG-CC-PVTZ
    Blend: AUG-CC-PVTZ
  Basis Set: (AUG-CC-PVTZ AUX)
    Blend: AUG-CC-PVTZ-JKFIT
	 Reference Energy          =    -568.5442486004349121 [Eh]
	 Singles Energy            =      -0.0000000000000000 [Eh]
	 Same-Spin Energy          =      -0.2357499915722190 [Eh]
	 Opposite-Spin Energy      =      -0.7589232458469459 [Eh]
	 Correlation Energy        =      -0.9946732374191649 [Eh]
	 Total Energy              =    -569.5389218378541045 [Eh]

	 ================> DF-SCS-MP2 Energies <==================
	-----------------------------------------------------------
	 SCS Same-Spin Scale       =       0.3333333333333333 [-]
	 SCS Opposite-Spin Scale   =       1.2000000000000000 [-]
	 SCS Same-Spin Energy      =      -0.0785833305240730 [Eh]
	 SCS Opposite-Spin Energy  =      -0.9107078950163351 [Eh]
	 SCS Correlation Energy    =      -0.9892912255404080 [Eh]
	 SCS Total Energy          =    -569.5335398259753674 [Eh]
	-----------------------------------------------------------

  Dipole Moment: [D]
     X:    -4.6402      Y:     0.0222      Z:     0.0274     Total:     4.6403

*** Psi4 exiting successfully. Buy a developer a beer!
