                               Psi4 1.4a3.dev225

  ==> Input File <==

--------------------------------------------------------------------------
#psi4
#
memory 32 gb

molecule  {
0 1
  S        0.1265690    -0.7744540    -0.0000030
  N        2.6645760     0.5912410     0.0000080
  C       -0.9835110     0.6826500    -0.0000140
  C       -2.4242400     0.1893500     0.0000110
  C        1.5973135     0.0294505     0.0000019
  H       -0.7715750     1.2803170     0.8885550
  H       -0.7715930     1.2802920    -0.8886040
  H       -2.6383020    -0.4113120    -0.8873620
  H       -2.6382940    -0.4112530     0.8874280
  H       -3.1000420     1.0482750    -0.0000140
units angstrom
no_reorient  #important for SAPT in psi4, default
symmetry c1  #important for SAPT in psi4, default
}

set PROPERTIES_ORIGIN ["COM"]
properties('MP2/aug-cc-pvtz', properties = ['dipole'])
--------------------------------------------------------------------------

    Molecular point group: c1
  Charge       = 0
  Multiplicity = 1
  Basis Set: AUG-CC-PVTZ
    Blend: AUG-CC-PVTZ
  Basis Set: (AUG-CC-PVTZ AUX)
    Blend: AUG-CC-PVTZ-JKFIT

    Orbital Energies [Eh]
    ---------------------

    Doubly Occupied:

       1A    -92.015344     2A    -15.593629     3A    -11.309110
       4A    -11.296786     5A    -11.254242     6A     -9.015777
       7A     -6.697364     8A     -6.695620     9A     -6.694789
      10A     -1.205651    11A     -1.114881    12A     -1.010234
      13A     -0.865034    14A     -0.699090    15A     -0.663214
      16A     -0.593703    17A     -0.573309    18A     -0.548458
      19A     -0.545313    20A     -0.519808    21A     -0.503843
      22A     -0.438408    23A     -0.378650

  @DF-RHF Final Energy:  -568.54520859549746

   => Energetics <=

    Nuclear Repulsion Energy =            198.2529473263052466
    One-Electron Energy =               -1173.1317955987742607
    Two-Electron Energy =                 406.3336396769715861
    Total Energy =                       -568.5452085954973427
  Basis Set: (AUG-CC-PVTZ AUX)
    Blend: AUG-CC-PVTZ-RI
    Molecular point group: c1

    Geometry (in Angstrom), charge = 0, multiplicity = 1:

       Center              X                  Y                   Z               Mass
    ------------   -----------------  -----------------  -----------------  -----------------
         S            0.015825679903    -0.741629741580    -0.000003068171    31.972071174400
         N            2.553832679903     0.624065258420     0.000007931829    14.003074004430
         C           -1.094254320097     0.715474258420    -0.000014068171    12.000000000000
         C           -2.534983320097     0.222174258420     0.000010931829    12.000000000000
         C            1.486570179903     0.062274758420     0.000001831829    12.000000000000
         H           -0.882318320097     1.313141258420     0.888554931829     1.007825032230
         H           -0.882336320097     1.313116258420    -0.888604068171     1.007825032230
         H           -2.749045320097    -0.378487741580    -0.887362068171     1.007825032230
         H           -2.749037320097    -0.378428741580     0.887427931829     1.007825032230
         H           -3.210785320097     1.081099258420    -0.000014068171     1.007825032230

  Basis Set: AUG-CC-PVTZ
    Blend: AUG-CC-PVTZ
  Basis Set: (AUG-CC-PVTZ AUX)
    Blend: AUG-CC-PVTZ-JKFIT
	 Reference Energy          =    -568.5452085954974564 [Eh]
	 Singles Energy            =      -0.0000000000000000 [Eh]
	 Same-Spin Energy          =      -0.2362242886795858 [Eh]
	 Opposite-Spin Energy      =      -0.7615701759970200 [Eh]
	 Correlation Energy        =      -0.9977944646766058 [Eh]
	 Total Energy              =    -569.5430030601741009 [Eh]

	 ================> DF-SCS-MP2 Energies <==================
	-----------------------------------------------------------
	 SCS Same-Spin Scale       =       0.3333333333333333 [-]
	 SCS Opposite-Spin Scale   =       1.2000000000000000 [-]
	 SCS Same-Spin Energy      =      -0.0787414295598619 [Eh]
	 SCS Opposite-Spin Energy  =      -0.9138842111964240 [Eh]
	 SCS Correlation Energy    =      -0.9926256407562860 [Eh]
	 SCS Total Energy          =    -569.5378342362537296 [Eh]
	-----------------------------------------------------------

  Dipole Moment: [D]
     X:    -4.5670      Y:    -0.0292      Z:    -0.0000     Total:     4.5671

*** Psi4 exiting successfully. Buy a developer a beer!
