                               Psi4 1.3.2 release

  ==> Input File <==

--------------------------------------------------------------------------
#psi4
#
memory 32 gb

molecule  {
0 1
  S        0.1264700    -0.7742460     0.0000110
  N        2.6648510     0.5909190    -0.0000260
  C       -0.9835220     0.6827390     0.0000510
  C       -2.4242840     0.1891640    -0.0000380
  C        1.5271513    -0.0089151    -0.0000069
  H       -0.7718060     1.2803900     0.8886850
  H       -0.7716890     1.2805110    -0.8884740
  H       -2.6381270    -0.4115180    -0.8874520
  H       -2.6382870    -0.4114970     0.8873540
  H       -3.1001780     1.0479890    -0.0001390
units angstrom
no_reorient  #important for SAPT in psi4, default
symmetry c1  #important for SAPT in psi4, default
}

set PROPERTIES_ORIGIN ["COM"]
properties('MP2/aug-cc-pvtz', properties = ['dipole'])
--------------------------------------------------------------------------

    Molecular point group: c1
  Charge       = 0
  Multiplicity = 1
  Basis Set: AUG-CC-PVTZ
    Blend: AUG-CC-PVTZ
  Basis Set: (AUG-CC-PVTZ AUX)
    Blend: AUG-CC-PVTZ-JKFIT

    Orbital Energies [Eh]
    ---------------------

    Doubly Occupied:

       1A    -92.015132     2A    -15.610712     3A    -11.325133
       4A    -11.298337     5A    -11.255314     6A     -9.018052
       7A     -6.699943     8A     -6.697777     9A     -6.697109
      10A     -1.181962    11A     -1.113828    12A     -1.023459
      13A     -0.871380    14A     -0.709366    15A     -0.665466
      16A     -0.595940    17A     -0.575057    18A     -0.550732
      19A     -0.544887    20A     -0.522858    21A     -0.500248
      22A     -0.414130    23A     -0.369747

  @DF-RHF Final Energy:  -568.50612613167868

   => Energetics <=

    Nuclear Repulsion Energy =            198.9331698268015316
    One-Electron Energy =               -1174.3654545730209975
    Two-Electron Energy =                 406.9261586145408387
    Total Energy =                       -568.5061261316786840
  Basis Set: (AUG-CC-PVTZ AUX)
    Blend: AUG-CC-PVTZ-RI
    Molecular point group: c1

    Geometry (in Angstrom), charge = 0, multiplicity = 1:

       Center              X                  Y                   Z               Mass
    ------------   -----------------  -----------------  -----------------  -----------------
         S            0.025405597916    -0.736136890353     0.000010602256    31.972071174400
         N            2.563786597916     0.629028109647    -0.000026397744    14.003074004430
         C           -1.084586402084     0.720848109647     0.000050602256    12.000000000000
         C           -2.525348402084     0.227273109647    -0.000038397744    12.000000000000
         C            1.426086897916     0.029194009647    -0.000007297744    12.000000000000
         H           -0.872870402084     1.318499109647     0.888684602256     1.007825032230
         H           -0.872753402084     1.318620109647    -0.888474397744     1.007825032230
         H           -2.739191402084    -0.373408890353    -0.887452397744     1.007825032230
         H           -2.739351402084    -0.373387890353     0.887353602256     1.007825032230
         H           -3.201242402084     1.086098109647    -0.000139397744     1.007825032230

  Basis Set: AUG-CC-PVTZ
    Blend: AUG-CC-PVTZ
  Basis Set: (AUG-CC-PVTZ AUX)
    Blend: AUG-CC-PVTZ-JKFIT
	 Reference Energy          =    -568.5061261316786840 [Eh]
	 Singles Energy            =      -0.0000000000000000 [Eh]
	 Same-Spin Energy          =      -0.2430122213201904 [Eh]
	 Opposite-Spin Energy      =      -0.7730074116214366 [Eh]
	 Correlation Energy        =      -1.0160196329416271 [Eh]
	 Total Energy              =    -569.5221457646202907 [Eh]

	 ================> DF-SCS-MP2 Energies <==================
	-----------------------------------------------------------
	 SCS Same-Spin Scale       =       0.3333333333333333 [-]
	 SCS Opposite-Spin Scale   =       1.2000000000000000 [-]
	 SCS Same-Spin Energy      =      -0.0810040737733968 [Eh]
	 SCS Opposite-Spin Energy  =      -0.9276088939457239 [Eh]
	 SCS Correlation Energy    =      -1.0086129677191207 [Eh]
	 SCS Total Energy          =    -569.5147390993978433 [Eh]
	-----------------------------------------------------------

  Dipole Moment: [D]
     X:    -4.7305      Y:    -0.0642      Z:     0.0001     Total:     4.7310

*** Psi4 exiting successfully. Buy a developer a beer!
