                               Psi4 1.3.2 release

  ==> Input File <==

--------------------------------------------------------------------------
#psi4
#
memory 32 gb

molecule  {
0 1
  S        0.0496129    -0.6142068     0.0000546
  N        2.6648510     0.5909190    -0.0000260
  C       -0.9835220     0.6827390     0.0000510
  C       -2.4242840     0.1891640    -0.0000380
  C        1.6149060     0.0390340    -0.0000080
  H       -0.7718060     1.2803900     0.8886850
  H       -0.7716890     1.2805110    -0.8884740
  H       -2.6381270    -0.4115180    -0.8874520
  H       -2.6382870    -0.4114970     0.8873540
  H       -3.1001780     1.0479890    -0.0001390
units angstrom
no_reorient  #important for SAPT in psi4, default
symmetry c1  #important for SAPT in psi4, default
}

set PROPERTIES_ORIGIN ["COM"]
properties('MP2/aug-cc-pvtz', properties = ['dipole'])
--------------------------------------------------------------------------

    Molecular point group: c1
  Charge       = 0
  Multiplicity = 1
  Basis Set: AUG-CC-PVTZ
    Blend: AUG-CC-PVTZ
  Basis Set: (AUG-CC-PVTZ AUX)
    Blend: AUG-CC-PVTZ-JKFIT

    Orbital Energies [Eh]
    ---------------------

    Doubly Occupied:

       1A    -92.006730     2A    -15.592217     3A    -11.305378
       4A    -11.281961     5A    -11.257207     6A     -9.010545
       7A     -6.692215     8A     -6.690753     9A     -6.689504
      10A     -1.218644    11A     -1.148608    12A     -1.005289
      13A     -0.867495    14A     -0.716115    15A     -0.674041
      16A     -0.590028    17A     -0.583076    18A     -0.554957
      19A     -0.551505    20A     -0.513750    21A     -0.504135
      22A     -0.451681    23A     -0.373713

  @DF-RHF Final Energy:  -568.53494910648919

   => Energetics <=

    Nuclear Repulsion Energy =            202.7350038988076903
    One-Electron Energy =               -1181.9808120575257817
    Two-Electron Energy =                 410.7108590522288978
    Total Energy =                       -568.5349491064891936
  Basis Set: (AUG-CC-PVTZ AUX)
    Blend: AUG-CC-PVTZ-RI
    Molecular point group: c1

    Geometry (in Angstrom), charge = 0, multiplicity = 1:

       Center              X                  Y                   Z               Mass
    ------------   -----------------  -----------------  -----------------  -----------------
         S           -0.035313640260    -0.641514246406     0.000038333798    31.972071174400
         N            2.579924459740     0.563611553594    -0.000042266202    14.003074004430
         C           -1.068448540260     0.655431553594     0.000034733798    12.000000000000
         C           -2.509210540260     0.161856553594    -0.000054266202    12.000000000000
         C            1.529979459740     0.011726553594    -0.000024266202    12.000000000000
         H           -0.856732540260     1.253082553594     0.888668733798     1.007825032230
         H           -0.856615540260     1.253203553594    -0.888490266202     1.007825032230
         H           -2.723053540260    -0.438825446406    -0.887468266202     1.007825032230
         H           -2.723213540260    -0.438804446406     0.887337733798     1.007825032230
         H           -3.185104540260     1.020681553594    -0.000155266202     1.007825032230

  Basis Set: AUG-CC-PVTZ
    Blend: AUG-CC-PVTZ
  Basis Set: (AUG-CC-PVTZ AUX)
    Blend: AUG-CC-PVTZ-JKFIT
	 Reference Energy          =    -568.5349491064891936 [Eh]
	 Singles Energy            =      -0.0000000000000000 [Eh]
	 Same-Spin Energy          =      -0.2361634551872261 [Eh]
	 Opposite-Spin Energy      =      -0.7592777341896131 [Eh]
	 Correlation Energy        =      -0.9954411893768392 [Eh]
	 Total Energy              =    -569.5303902958660274 [Eh]

	 ================> DF-SCS-MP2 Energies <==================
	-----------------------------------------------------------
	 SCS Same-Spin Scale       =       0.3333333333333333 [-]
	 SCS Opposite-Spin Scale   =       1.2000000000000000 [-]
	 SCS Same-Spin Energy      =      -0.0787211517290754 [Eh]
	 SCS Opposite-Spin Energy  =      -0.9111332810275357 [Eh]
	 SCS Correlation Energy    =      -0.9898544327566110 [Eh]
	 SCS Total Energy          =    -569.5248035392457950 [Eh]
	-----------------------------------------------------------

  Dipole Moment: [D]
     X:    -4.5475      Y:     0.1752      Z:     0.0001     Total:     4.5509

*** Psi4 exiting successfully. Buy a developer a beer!
