                               Psi4 1.3.2 release

  ==> Input File <==

--------------------------------------------------------------------------
#psi4
#
memory 32 gb

molecule  {
0 1
  S        0.1132647    -0.7839549    -0.0274351
  N        2.6648510     0.5909190    -0.0000260
  C       -0.9835220     0.6827390     0.0000510
  C       -2.4242840     0.1891640    -0.0000380
  C        1.6149060     0.0390340    -0.0000080
  H       -0.7718060     1.2803900     0.8886850
  H       -0.7716890     1.2805110    -0.8884740
  H       -2.6381270    -0.4115180    -0.8874520
  H       -2.6382870    -0.4114970     0.8873540
  H       -3.1001780     1.0479890    -0.0001390
units angstrom
no_reorient  #important for SAPT in psi4, default
symmetry c1  #important for SAPT in psi4, default
}

set PROPERTIES_ORIGIN ["COM"]
properties('MP2/aug-cc-pvtz', properties = ['dipole'])
--------------------------------------------------------------------------

    Molecular point group: c1
  Charge       = 0
  Multiplicity = 1
  Basis Set: AUG-CC-PVTZ
    Blend: AUG-CC-PVTZ
  Basis Set: (AUG-CC-PVTZ AUX)
    Blend: AUG-CC-PVTZ-JKFIT

    Orbital Energies [Eh]
    ---------------------

    Doubly Occupied:

       1A    -92.017115     2A    -15.588577     3A    -11.304782
       4A    -11.296269     5A    -11.253839     6A     -9.016539
       7A     -6.697987     8A     -6.696365     9A     -6.695490
      10A     -1.213298    11A     -1.113166    12A     -1.004080
      13A     -0.862269    14A     -0.695436    15A     -0.662594
      16A     -0.593232    17A     -0.572315    18A     -0.547578
      19A     -0.543706    20A     -0.519277    21A     -0.504276
      22A     -0.445268    23A     -0.381763

  @DF-RHF Final Energy:  -568.55081702802045

   => Energetics <=

    Nuclear Repulsion Energy =            197.8019116116633711
    One-Electron Energy =               -1172.2550132151386606
    Two-Electron Energy =                 405.9022845754548143
    Total Energy =                       -568.5508170280204467
  Basis Set: (AUG-CC-PVTZ AUX)
    Blend: AUG-CC-PVTZ-RI
    Molecular point group: c1

    Geometry (in Angstrom), charge = 0, multiplicity = 1:

       Center              X                  Y                   Z               Mass
    ------------   -----------------  -----------------  -----------------  -----------------
         S            0.004950273224    -0.748890986930    -0.017350693732    31.972071174400
         N            2.556536573224     0.625982913070     0.010058406268    14.003074004430
         C           -1.091836426776     0.717802913070     0.010135406268    12.000000000000
         C           -2.532598426776     0.224227913070     0.010046406268    12.000000000000
         C            1.506591573224     0.074097913070     0.010076406268    12.000000000000
         H           -0.880120426776     1.315453913070     0.898769406268     1.007825032230
         H           -0.880003426776     1.315574913070    -0.878389593732     1.007825032230
         H           -2.746441426776    -0.376454086930    -0.877367593732     1.007825032230
         H           -2.746601426776    -0.376433086930     0.897438406268     1.007825032230
         H           -3.208492426776     1.083052913070     0.009945406268     1.007825032230

  Basis Set: AUG-CC-PVTZ
    Blend: AUG-CC-PVTZ
  Basis Set: (AUG-CC-PVTZ AUX)
    Blend: AUG-CC-PVTZ-JKFIT
	 Reference Energy          =    -568.5508170280204467 [Eh]
	 Singles Energy            =      -0.0000000000000000 [Eh]
	 Same-Spin Energy          =      -0.2344161346668509 [Eh]
	 Opposite-Spin Energy      =      -0.7588697674422720 [Eh]
	 Correlation Energy        =      -0.9932859021091229 [Eh]
	 Total Energy              =    -569.5441029301296112 [Eh]

	 ================> DF-SCS-MP2 Energies <==================
	-----------------------------------------------------------
	 SCS Same-Spin Scale       =       0.3333333333333333 [-]
	 SCS Opposite-Spin Scale   =       1.2000000000000000 [-]
	 SCS Same-Spin Energy      =      -0.0781387115556170 [Eh]
	 SCS Opposite-Spin Energy  =      -0.9106437209307263 [Eh]
	 SCS Correlation Energy    =      -0.9887824324863432 [Eh]
	 SCS Total Energy          =    -569.5395994605067926 [Eh]
	-----------------------------------------------------------

  Dipole Moment: [D]
     X:    -4.5303      Y:    -0.0296      Z:    -0.0050     Total:     4.5304

*** Psi4 exiting successfully. Buy a developer a beer!
