                               Psi4 1.3.2 release

  ==> Input File <==

--------------------------------------------------------------------------
#psi4
#
memory 32 gb

molecule  {
0 1
  S        0.1517288    -0.7546521     0.0000132
  N        2.6648510     0.5909190    -0.0000260
  C       -0.9835220     0.6827390     0.0000510
  C       -2.4242840     0.1891640    -0.0000380
  C        1.6149060     0.0390340    -0.0000080
  H       -0.7718060     1.2803900     0.8886850
  H       -0.7716890     1.2805110    -0.8884740
  H       -2.6381270    -0.4115180    -0.8874520
  H       -2.6382870    -0.4114970     0.8873540
  H       -3.1001780     1.0479890    -0.0001390
units angstrom
no_reorient  #important for SAPT in psi4, default
symmetry c1  #important for SAPT in psi4, default
}

set PROPERTIES_ORIGIN ["COM"]
properties('MP2/aug-cc-pvtz', properties = ['dipole'])
--------------------------------------------------------------------------

    Molecular point group: c1
  Charge       = 0
  Multiplicity = 1
  Basis Set: AUG-CC-PVTZ
    Blend: AUG-CC-PVTZ
  Basis Set: (AUG-CC-PVTZ AUX)
    Blend: AUG-CC-PVTZ-JKFIT

    Orbital Energies [Eh]
    ---------------------

    Doubly Occupied:

       1A    -92.012759     2A    -15.587963     3A    -11.302468
       4A    -11.296621     5A    -11.254442     6A     -9.013631
       7A     -6.695293     8A     -6.693516     9A     -6.692686
      10A     -1.215160    11A     -1.115174    12A     -1.011827
      13A     -0.865755    14A     -0.697631    15A     -0.662962
      16A     -0.592577    17A     -0.574006    18A     -0.549268
      19A     -0.547610    20A     -0.520474    21A     -0.508556
      22A     -0.441399    23A     -0.378594

  @DF-RHF Final Energy:  -568.55058088612566

   => Energetics <=

    Nuclear Repulsion Energy =            198.7813695089909061
    One-Electron Energy =               -1174.2031589079817877
    Two-Electron Energy =                 406.8712085128652234
    Total Energy =                       -568.5505808861256583
  Basis Set: (AUG-CC-PVTZ AUX)
    Blend: AUG-CC-PVTZ-RI
    Molecular point group: c1

    Geometry (in Angstrom), charge = 0, multiplicity = 1:

       Center              X                  Y                   Z               Mass
    ------------   -----------------  -----------------  -----------------  -----------------
         S            0.029281324265    -0.730355055440     0.000012145599    31.972071174400
         N            2.542403524265     0.615216044560    -0.000027054401    14.003074004430
         C           -1.105969475735     0.707036044560     0.000049945599    12.000000000000
         C           -2.546731475735     0.213461044560    -0.000039054401    12.000000000000
         C            1.492458524265     0.063331044560    -0.000009054401    12.000000000000
         H           -0.894253475735     1.304687044560     0.888683945599     1.007825032230
         H           -0.894136475735     1.304808044560    -0.888475054401     1.007825032230
         H           -2.760574475735    -0.387220955440    -0.887453054401     1.007825032230
         H           -2.760734475735    -0.387199955440     0.887352945599     1.007825032230
         H           -3.222625475735     1.072286044560    -0.000140054401     1.007825032230

  Basis Set: AUG-CC-PVTZ
    Blend: AUG-CC-PVTZ
  Basis Set: (AUG-CC-PVTZ AUX)
    Blend: AUG-CC-PVTZ-JKFIT
	 Reference Energy          =    -568.5505808861256583 [Eh]
	 Singles Energy            =      -0.0000000000000000 [Eh]
	 Same-Spin Energy          =      -0.2349456666993391 [Eh]
	 Opposite-Spin Energy      =      -0.7587032205732893 [Eh]
	 Correlation Energy        =      -0.9936488872726283 [Eh]
	 Total Energy              =    -569.5442297733983423 [Eh]

	 ================> DF-SCS-MP2 Energies <==================
	-----------------------------------------------------------
	 SCS Same-Spin Scale       =       0.3333333333333333 [-]
	 SCS Opposite-Spin Scale   =       1.2000000000000000 [-]
	 SCS Same-Spin Energy      =      -0.0783152222331130 [Eh]
	 SCS Opposite-Spin Energy  =      -0.9104438646879471 [Eh]
	 SCS Correlation Energy    =      -0.9887590869210602 [Eh]
	 SCS Total Energy          =    -569.5393399730467081 [Eh]
	-----------------------------------------------------------

  Dipole Moment: [D]
     X:    -4.5760      Y:    -0.0083      Z:     0.0001     Total:     4.5761

*** Psi4 exiting successfully. Buy a developer a beer!
