                               Psi4 1.4a3.dev225

  ==> Input File <==

--------------------------------------------------------------------------
#psi4
#
memory 32 gb

molecule  {
0 1
  S        0.1265690    -0.7744540    -0.0000030
  N        2.6645760     0.5912410     0.0000080
  C       -0.9835110     0.6826500    -0.0000140
  C       -2.4242400     0.1893500     0.0000110
  C        1.6591138     0.0623210     0.0000023
  H       -0.7715750     1.2803170     0.8885550
  H       -0.7715930     1.2802920    -0.8886040
  H       -2.6383020    -0.4113120    -0.8873620
  H       -2.6382940    -0.4112530     0.8874280
  H       -3.1000420     1.0482750    -0.0000140
units angstrom
no_reorient  #important for SAPT in psi4, default
symmetry c1  #important for SAPT in psi4, default
}

set PROPERTIES_ORIGIN ["COM"]
properties('MP2/aug-cc-pvtz', properties = ['dipole'])
--------------------------------------------------------------------------

    Molecular point group: c1
  Charge       = 0
  Multiplicity = 1
  Basis Set: AUG-CC-PVTZ
    Blend: AUG-CC-PVTZ
  Basis Set: (AUG-CC-PVTZ AUX)
    Blend: AUG-CC-PVTZ-JKFIT

    Orbital Energies [Eh]
    ---------------------

    Doubly Occupied:

       1A    -92.016615     2A    -15.573807     3A    -11.295477
       4A    -11.290031     5A    -11.253596     6A     -9.015290
       7A     -6.696647     8A     -6.695135     9A     -6.694215
      10A     -1.236363    11A     -1.110546    12A     -0.998077
      13A     -0.859412    14A     -0.688472    15A     -0.661679
      16A     -0.590844    17A     -0.571817    18A     -0.547563
      19A     -0.544472    20A     -0.520669    21A     -0.512349
      22A     -0.456993    23A     -0.385172

  @DF-RHF Final Energy:  -568.55744441085176

   => Energetics <=

    Nuclear Repulsion Energy =            197.9072557138771913
    One-Electron Energy =               -1172.4989151537022281
    Two-Electron Energy =                 406.0342150289732217
    Total Energy =                       -568.5574444108517582
  Basis Set: (AUG-CC-PVTZ AUX)
    Blend: AUG-CC-PVTZ-RI
    Molecular point group: c1

    Geometry (in Angstrom), charge = 0, multiplicity = 1:

       Center              X                  Y                   Z               Mass
    ------------   -----------------  -----------------  -----------------  -----------------
         S            0.007302898558    -0.746162860096    -0.000003123334    31.972071174400
         N            2.545309898558     0.619532139904     0.000007876666    14.003074004430
         C           -1.102777101442     0.710941139904    -0.000014123334    12.000000000000
         C           -2.543506101442     0.217641139904     0.000010876666    12.000000000000
         C            1.539847698558     0.090612139904     0.000002176666    12.000000000000
         H           -0.890841101442     1.308608139904     0.888554876666     1.007825032230
         H           -0.890859101442     1.308583139904    -0.888604123334     1.007825032230
         H           -2.757568101442    -0.383020860096    -0.887362123334     1.007825032230
         H           -2.757560101442    -0.382961860096     0.887427876666     1.007825032230
         H           -3.219308101442     1.076566139904    -0.000014123334     1.007825032230

  Basis Set: AUG-CC-PVTZ
    Blend: AUG-CC-PVTZ
  Basis Set: (AUG-CC-PVTZ AUX)
    Blend: AUG-CC-PVTZ-JKFIT
	 Reference Energy          =    -568.5574444108517582 [Eh]
	 Singles Energy            =      -0.0000000000000000 [Eh]
	 Same-Spin Energy          =      -0.2307141778416669 [Eh]
	 Opposite-Spin Energy      =      -0.7521838492506443 [Eh]
	 Correlation Energy        =      -0.9828980270923112 [Eh]
	 Total Energy              =    -569.5403424379441049 [Eh]

	 ================> DF-SCS-MP2 Energies <==================
	-----------------------------------------------------------
	 SCS Same-Spin Scale       =       0.3333333333333333 [-]
	 SCS Opposite-Spin Scale   =       1.2000000000000000 [-]
	 SCS Same-Spin Energy      =      -0.0769047259472223 [Eh]
	 SCS Opposite-Spin Energy  =      -0.9026206191007731 [Eh]
	 SCS Correlation Energy    =      -0.9795253450479954 [Eh]
	 SCS Total Energy          =    -569.5369697558998041 [Eh]
	-----------------------------------------------------------

  Dipole Moment: [D]
     X:    -4.5056      Y:    -0.0112      Z:    -0.0000     Total:     4.5056

*** Psi4 exiting successfully. Buy a developer a beer!
