                               Psi4 1.3.2 release

  ==> Input File <==

--------------------------------------------------------------------------
#psi4
#
memory 32 gb

molecule  {
0 1
  S        0.0423108    -0.8257434    -0.1643730
  N        2.6648510     0.5909190    -0.0000260
  C       -0.9835220     0.6827390     0.0000510
  C       -2.4242840     0.1891640    -0.0000380
  C        1.6149060     0.0390340    -0.0000080
  H       -0.7718060     1.2803900     0.8886850
  H       -0.7716890     1.2805110    -0.8884740
  H       -2.6381270    -0.4115180    -0.8874520
  H       -2.6382870    -0.4114970     0.8873540
  H       -3.1001780     1.0479890    -0.0001390
units angstrom
no_reorient  #important for SAPT in psi4, default
symmetry c1  #important for SAPT in psi4, default
}

set PROPERTIES_ORIGIN ["COM"]
properties('MP2/aug-cc-pvtz', properties = ['dipole'])
--------------------------------------------------------------------------

    Molecular point group: c1
  Charge       = 0
  Multiplicity = 1
  Basis Set: AUG-CC-PVTZ
    Blend: AUG-CC-PVTZ
  Basis Set: (AUG-CC-PVTZ AUX)
    Blend: AUG-CC-PVTZ-JKFIT

    Orbital Energies [Eh]
    ---------------------

    Doubly Occupied:

       1A    -92.025059     2A    -15.588672     3A    -11.307148
       4A    -11.295817     5A    -11.253132     6A     -9.022337
       7A     -6.703461     8A     -6.701967     9A     -6.701024
      10A     -1.210137    11A     -1.111023    12A     -0.990782
      13A     -0.856840    14A     -0.690758    15A     -0.661330
      16A     -0.594618    17A     -0.570099    18A     -0.545973
      19A     -0.534773    20A     -0.518020    21A     -0.496243
      22A     -0.450330    23A     -0.387068

  @DF-RHF Final Energy:  -568.54311691915746

   => Energetics <=

    Nuclear Repulsion Energy =            196.1514372211298678
    One-Electron Energy =               -1168.9558827802759424
    Two-Electron Energy =                 404.2613286399885055
    Total Energy =                       -568.5431169191575691
  Basis Set: (AUG-CC-PVTZ AUX)
    Blend: AUG-CC-PVTZ-RI
    Molecular point group: c1

    Geometry (in Angstrom), charge = 0, multiplicity = 1:

       Center              X                  Y                   Z               Mass
    ------------   -----------------  -----------------  -----------------  -----------------
         S           -0.039932694594    -0.775324937716    -0.103972843589    31.972071174400
         N            2.582607505406     0.641337462284     0.060374156411    14.003074004430
         C           -1.065765494594     0.733157462284     0.060451156411    12.000000000000
         C           -2.506527494594     0.239582462284     0.060362156411    12.000000000000
         C            1.532662505406     0.089452462284     0.060392156411    12.000000000000
         H           -0.854049494594     1.330808462284     0.949085156411     1.007825032230
         H           -0.853932494594     1.330929462284    -0.828073843589     1.007825032230
         H           -2.720370494594    -0.361099537716    -0.827051843589     1.007825032230
         H           -2.720530494594    -0.361078537716     0.947754156411     1.007825032230
         H           -3.182421494594     1.098407462284     0.060261156411     1.007825032230

  Basis Set: AUG-CC-PVTZ
    Blend: AUG-CC-PVTZ
  Basis Set: (AUG-CC-PVTZ AUX)
    Blend: AUG-CC-PVTZ-JKFIT
	 Reference Energy          =    -568.5431169191574554 [Eh]
	 Singles Energy            =      -0.0000000000000000 [Eh]
	 Same-Spin Energy          =      -0.2337136407673185 [Eh]
	 Opposite-Spin Energy      =      -0.7597026060221613 [Eh]
	 Correlation Energy        =      -0.9934162467894798 [Eh]
	 Total Energy              =    -569.5365331659469348 [Eh]

	 ================> DF-SCS-MP2 Energies <==================
	-----------------------------------------------------------
	 SCS Same-Spin Scale       =       0.3333333333333333 [-]
	 SCS Opposite-Spin Scale   =       1.2000000000000000 [-]
	 SCS Same-Spin Energy      =      -0.0779045469224395 [Eh]
	 SCS Opposite-Spin Energy  =      -0.9116431272265936 [Eh]
	 SCS Correlation Energy    =      -0.9895476741490331 [Eh]
	 SCS Total Energy          =    -569.5326645933064356 [Eh]
	-----------------------------------------------------------

  Dipole Moment: [D]
     X:    -4.4782      Y:    -0.0647      Z:    -0.0323     Total:     4.4787

*** Psi4 exiting successfully. Buy a developer a beer!
