                               Psi4 1.4a3.dev225

  ==> Input File <==

--------------------------------------------------------------------------
#psi4
#
memory 32 gb

molecule  {
0 1
  S        0.1265690    -0.7744540    -0.0000030
  N        2.6645760     0.5912410     0.0000080
  C       -0.9713908     0.6667409    -0.0000139
  C       -2.4242400     0.1893500     0.0000110
  C        1.6148630     0.0390430     0.0000020
  H       -0.7715750     1.2803170     0.8885550
  H       -0.7715930     1.2802920    -0.8886040
  H       -2.6383020    -0.4113120    -0.8873620
  H       -2.6382940    -0.4112530     0.8874280
  H       -3.1000420     1.0482750    -0.0000140
units angstrom
no_reorient  #important for SAPT in psi4, default
symmetry c1  #important for SAPT in psi4, default
}

set PROPERTIES_ORIGIN ["COM"]
properties('MP2/aug-cc-pvtz', properties = ['dipole'])
--------------------------------------------------------------------------

    Molecular point group: c1
  Charge       = 0
  Multiplicity = 1
  Basis Set: AUG-CC-PVTZ
    Blend: AUG-CC-PVTZ
  Basis Set: (AUG-CC-PVTZ AUX)
    Blend: AUG-CC-PVTZ-JKFIT

    Orbital Energies [Eh]
    ---------------------

    Doubly Occupied:

       1A    -92.016492     2A    -15.589159     3A    -11.304551
       4A    -11.295703     5A    -11.254027     6A     -9.016574
       7A     -6.698100     8A     -6.696466     9A     -6.695570
      10A     -1.214700    11A     -1.115458    12A     -1.006260
      13A     -0.861959    14A     -0.698437    15A     -0.660121
      16A     -0.592945    17A     -0.571274    18A     -0.547525
      19A     -0.546415    20A     -0.519292    21A     -0.505028
      22A     -0.446492    23A     -0.380867

  @DF-RHF Final Energy:  -568.55051032430913

   => Energetics <=

    Nuclear Repulsion Energy =            198.4000828945227966
    One-Electron Energy =               -1173.4343576589242275
    Two-Electron Energy =                 406.4837644400922727
    Total Energy =                       -568.5505103243091298
  Basis Set: (AUG-CC-PVTZ AUX)
    Blend: AUG-CC-PVTZ-RI
    Molecular point group: c1

    Geometry (in Angstrom), charge = 0, multiplicity = 1:

       Center              X                  Y                   Z               Mass
    ------------   -----------------  -----------------  -----------------  -----------------
         S            0.011733978639    -0.740758629293    -0.000003095753    31.972071174400
         N            2.549740978639     0.624936370707     0.000007904247    14.003074004430
         C           -1.086225821361     0.700436270707    -0.000013995753    12.000000000000
         C           -2.539075021361     0.223045370707     0.000010904247    12.000000000000
         C            1.500027978639     0.072738370707     0.000001904247    12.000000000000
         H           -0.886410021361     1.314012370707     0.888554904247     1.007825032230
         H           -0.886428021361     1.313987370707    -0.888604095753     1.007825032230
         H           -2.753137021361    -0.377616629293    -0.887362095753     1.007825032230
         H           -2.753129021361    -0.377557629293     0.887427904247     1.007825032230
         H           -3.214877021361     1.081970370707    -0.000014095753     1.007825032230

  Basis Set: AUG-CC-PVTZ
    Blend: AUG-CC-PVTZ
  Basis Set: (AUG-CC-PVTZ AUX)
    Blend: AUG-CC-PVTZ-JKFIT
	 Reference Energy          =    -568.5505103243091298 [Eh]
	 Singles Energy            =      -0.0000000000000000 [Eh]
	 Same-Spin Energy          =      -0.2346665283533130 [Eh]
	 Opposite-Spin Energy      =      -0.7589250534332860 [Eh]
	 Correlation Energy        =      -0.9935915817865990 [Eh]
	 Total Energy              =    -569.5441019060957615 [Eh]

	 ================> DF-SCS-MP2 Energies <==================
	-----------------------------------------------------------
	 SCS Same-Spin Scale       =       0.3333333333333333 [-]
	 SCS Opposite-Spin Scale   =       1.2000000000000000 [-]
	 SCS Same-Spin Energy      =      -0.0782221761177710 [Eh]
	 SCS Opposite-Spin Energy  =      -0.9107100641199432 [Eh]
	 SCS Correlation Energy    =      -0.9889322402377142 [Eh]
	 SCS Total Energy          =    -569.5394425645467891 [Eh]
	-----------------------------------------------------------

  Dipole Moment: [D]
     X:    -4.5024      Y:    -0.0437      Z:    -0.0000     Total:     4.5027

*** Psi4 exiting successfully. Buy a developer a beer!
