                               Psi4 1.3.2 release

  ==> Input File <==

--------------------------------------------------------------------------
#psi4
#
memory 32 gb

molecule  {
0 1
  S        0.1264700    -0.7742460     0.0000110
  N        2.6648510     0.5909190    -0.0000260
  C       -0.9835220     0.6827390     0.0000510
  C       -2.4242840     0.1891640    -0.0000380
  C        1.7034227     0.0855613    -0.0000095
  H       -0.7718060     1.2803900     0.8886850
  H       -0.7716890     1.2805110    -0.8884740
  H       -2.6381270    -0.4115180    -0.8874520
  H       -2.6382870    -0.4114970     0.8873540
  H       -3.1001780     1.0479890    -0.0001390
units angstrom
no_reorient  #important for SAPT in psi4, default
symmetry c1  #important for SAPT in psi4, default
}

set PROPERTIES_ORIGIN ["COM"]
properties('MP2/aug-cc-pvtz', properties = ['dipole'])
--------------------------------------------------------------------------

    Molecular point group: c1
  Charge       = 0
  Multiplicity = 1
  Basis Set: AUG-CC-PVTZ
    Blend: AUG-CC-PVTZ
  Basis Set: (AUG-CC-PVTZ AUX)
    Blend: AUG-CC-PVTZ-JKFIT

    Orbital Energies [Eh]
    ---------------------

    Doubly Occupied:

       1A    -92.017915     2A    -15.557387     3A    -11.294732
       4A    -11.274552     5A    -11.253340     6A     -9.015548
       7A     -6.696758     8A     -6.695360     9A     -6.694392
      10A     -1.259658    11A     -1.107487    12A     -0.989987
      13A     -0.855539    14A     -0.680105    15A     -0.660863
      16A     -0.588051    17A     -0.570751    18A     -0.548082
      19A     -0.543732    20A     -0.524379    21A     -0.521160
      22A     -0.467746    23A     -0.388653

  @DF-RHF Final Energy:  -568.54910540982269

   => Energetics <=

    Nuclear Repulsion Energy =            197.8099349568382195
    One-Electron Energy =               -1172.3057287386725420
    Two-Electron Energy =                 405.9466883720116357
    Total Energy =                       -568.5491054098226869
  Basis Set: (AUG-CC-PVTZ AUX)
    Blend: AUG-CC-PVTZ-RI
    Molecular point group: c1

    Geometry (in Angstrom), charge = 0, multiplicity = 1:

       Center              X                  Y                   Z               Mass
    ------------   -----------------  -----------------  -----------------  -----------------
         S            0.001096288745    -0.749165980818     0.000010960818    31.972071174400
         N            2.539477288745     0.615999019182    -0.000026039182    14.003074004430
         C           -1.108895711255     0.707819019182     0.000050960818    12.000000000000
         C           -2.549657711255     0.214244019182    -0.000038039182    12.000000000000
         C            1.578048988745     0.110641319182    -0.000009539182    12.000000000000
         H           -0.897179711255     1.305470019182     0.888684960818     1.007825032230
         H           -0.897062711255     1.305591019182    -0.888474039182     1.007825032230
         H           -2.763500711255    -0.386437980818    -0.887452039182     1.007825032230
         H           -2.763660711255    -0.386416980818     0.887353960818     1.007825032230
         H           -3.225551711255     1.073069019182    -0.000139039182     1.007825032230

  Basis Set: AUG-CC-PVTZ
    Blend: AUG-CC-PVTZ
  Basis Set: (AUG-CC-PVTZ AUX)
    Blend: AUG-CC-PVTZ-JKFIT
	 Reference Energy          =    -568.5491054098226869 [Eh]
	 Singles Energy            =      -0.0000000000000000 [Eh]
	 Same-Spin Energy          =      -0.2272498341405388 [Eh]
	 Opposite-Spin Energy      =      -0.7462109226663048 [Eh]
	 Correlation Energy        =      -0.9734607568068436 [Eh]
	 Total Energy              =    -569.5225661666295309 [Eh]

	 ================> DF-SCS-MP2 Energies <==================
	-----------------------------------------------------------
	 SCS Same-Spin Scale       =       0.3333333333333333 [-]
	 SCS Opposite-Spin Scale   =       1.2000000000000000 [-]
	 SCS Same-Spin Energy      =      -0.0757499447135129 [Eh]
	 SCS Opposite-Spin Energy  =      -0.8954531071995658 [Eh]
	 SCS Correlation Energy    =      -0.9712030519130788 [Eh]
	 SCS Total Energy          =    -569.5203084617357945 [Eh]
	-----------------------------------------------------------

  Dipole Moment: [D]
     X:    -4.4897      Y:    -0.0058      Z:     0.0001     Total:     4.4897

*** Psi4 exiting successfully. Buy a developer a beer!
