                               Psi4 1.3.2 release

  ==> Input File <==

--------------------------------------------------------------------------
#psi4
#
memory 32 gb

molecule  {
0 1
  S        0.1264700    -0.7742460     0.0000110
  N        2.6648510     0.5909190    -0.0000260
  C       -0.9835220     0.6827390     0.0000510
  C       -2.4242840     0.1891640    -0.0000380
  C        1.4378725    -0.0540205    -0.0000050
  H       -0.7718060     1.2803900     0.8886850
  H       -0.7716890     1.2805110    -0.8884740
  H       -2.6381270    -0.4115180    -0.8874520
  H       -2.6382870    -0.4114970     0.8873540
  H       -3.1001780     1.0479890    -0.0001390
units angstrom
no_reorient  #important for SAPT in psi4, default
symmetry c1  #important for SAPT in psi4, default
}

set PROPERTIES_ORIGIN ["COM"]
properties('MP2/aug-cc-pvtz', properties = ['dipole'])
--------------------------------------------------------------------------

    Molecular point group: c1
  Charge       = 0
  Multiplicity = 1
  Basis Set: AUG-CC-PVTZ
    Blend: AUG-CC-PVTZ
  Basis Set: (AUG-CC-PVTZ AUX)
    Blend: AUG-CC-PVTZ-JKFIT

    Orbital Energies [Eh]
    ---------------------

    Doubly Occupied:

       1A    -92.017116     2A    -15.622999     3A    -11.331293
       4A    -11.297909     5A    -11.255999     6A     -9.023860
       7A     -6.706197     8A     -6.703129     9A     -6.702851
      10A     -1.186445    11A     -1.090759    12A     -1.032560
      13A     -0.877677    14A     -0.718950    15A     -0.667843
      16A     -0.598916    17A     -0.576576    18A     -0.554254
      19A     -0.541292    20A     -0.528624    21A     -0.502823
      22A     -0.380706    23A     -0.362134

  @DF-RHF Final Energy:  -568.43014768166154

   => Energetics <=

    Nuclear Repulsion Energy =            200.2186560922971239
    One-Electron Energy =               -1176.7357864255598088
    Two-Electron Energy =                 408.0869826516011472
    Total Energy =                       -568.4301476816615377
  Basis Set: (AUG-CC-PVTZ AUX)
    Blend: AUG-CC-PVTZ-RI
    Molecular point group: c1

    Geometry (in Angstrom), charge = 0, multiplicity = 1:

       Center              X                  Y                   Z               Mass
    ------------   -----------------  -----------------  -----------------  -----------------
         S            0.037717895609    -0.729916476186     0.000010340230    31.972071174400
         N            2.576098895609     0.635248523814    -0.000026659770    14.003074004430
         C           -1.072274104391     0.727068523814     0.000050340230    12.000000000000
         C           -2.513036104391     0.233493523814    -0.000038659770    12.000000000000
         C            1.349120395609    -0.009690976186    -0.000005659770    12.000000000000
         H           -0.860558104391     1.324719523814     0.888684340230     1.007825032230
         H           -0.860441104391     1.324840523814    -0.888474659770     1.007825032230
         H           -2.726879104391    -0.367188476186    -0.887452659770     1.007825032230
         H           -2.727039104391    -0.367167476186     0.887353340230     1.007825032230
         H           -3.188930104391     1.092318523814    -0.000139659770     1.007825032230

  Basis Set: AUG-CC-PVTZ
    Blend: AUG-CC-PVTZ
  Basis Set: (AUG-CC-PVTZ AUX)
    Blend: AUG-CC-PVTZ-JKFIT
	 Reference Energy          =    -568.4301476816615377 [Eh]
	 Singles Energy            =      -0.0000000000000000 [Eh]
	 Same-Spin Energy          =      -0.2491917363884147 [Eh]
	 Opposite-Spin Energy      =      -0.7830492995269984 [Eh]
	 Correlation Energy        =      -1.0322410359154133 [Eh]
	 Total Energy              =    -569.4623887175769141 [Eh]

	 ================> DF-SCS-MP2 Energies <==================
	-----------------------------------------------------------
	 SCS Same-Spin Scale       =       0.3333333333333333 [-]
	 SCS Opposite-Spin Scale   =       1.2000000000000000 [-]
	 SCS Same-Spin Energy      =      -0.0830639121294716 [Eh]
	 SCS Opposite-Spin Energy  =      -0.9396591594323981 [Eh]
	 SCS Correlation Energy    =      -1.0227230715618696 [Eh]
	 SCS Total Energy          =    -569.4528707532233511 [Eh]
	-----------------------------------------------------------

  Dipole Moment: [D]
     X:    -5.5308      Y:    -0.2267      Z:     0.0001     Total:     5.5354

*** Psi4 exiting successfully. Buy a developer a beer!
