                               Psi4 1.3.2 release

  ==> Input File <==

--------------------------------------------------------------------------
#psi4
#
memory 32 gb

molecule  {
0 1
  S        0.1264700    -0.7742460     0.0000110
  N        2.6648510     0.5909190    -0.0000260
  C       -0.9835220     0.6827390     0.0000510
  C       -2.4242840     0.1891640    -0.0000380
  C        1.7026607     0.0869831    -0.0000091
  H       -0.7718060     1.2803900     0.8886850
  H       -0.7716890     1.2805110    -0.8884740
  H       -2.6381270    -0.4115180    -0.8874520
  H       -2.6382870    -0.4114970     0.8873540
  H       -3.1001780     1.0479890    -0.0001390
units angstrom
no_reorient  #important for SAPT in psi4, default
symmetry c1  #important for SAPT in psi4, default
}

set PROPERTIES_ORIGIN ["COM"]
properties('MP2/aug-cc-pvtz', properties = ['dipole'])
--------------------------------------------------------------------------

    Molecular point group: c1
  Charge       = 0
  Multiplicity = 1
  Basis Set: AUG-CC-PVTZ
    Blend: AUG-CC-PVTZ
  Basis Set: (AUG-CC-PVTZ AUX)
    Blend: AUG-CC-PVTZ-JKFIT

    Orbital Energies [Eh]
    ---------------------

    Doubly Occupied:

       1A    -92.017938     2A    -15.557382     3A    -11.294717
       4A    -11.274540     5A    -11.253322     6A     -9.015570
       7A     -6.696780     8A     -6.695381     9A     -6.694413
      10A     -1.259642    11A     -1.107496    12A     -0.989989
      13A     -0.855515    14A     -0.680091    15A     -0.660860
      16A     -0.588071    17A     -0.570745    18A     -0.548081
      19A     -0.543708    20A     -0.524369    21A     -0.521140
      22A     -0.467773    23A     -0.388666

  @DF-RHF Final Energy:  -568.54910500093138

   => Energetics <=

    Nuclear Repulsion Energy =            197.8142781050948429
    One-Electron Energy =               -1172.3143914501965810
    Two-Electron Energy =                 405.9510083441701909
    Total Energy =                       -568.5491050009314904
  Basis Set: (AUG-CC-PVTZ AUX)
    Blend: AUG-CC-PVTZ-RI
    Molecular point group: c1

    Geometry (in Angstrom), charge = 0, multiplicity = 1:

       Center              X                  Y                   Z               Mass
    ------------   -----------------  -----------------  -----------------  -----------------
         S            0.001201374956    -0.749362059001     0.000010905654    31.972071174400
         N            2.539582374956     0.615802940999    -0.000026094346    14.003074004430
         C           -1.108790625044     0.707622940999     0.000050905654    12.000000000000
         C           -2.549552625044     0.214047940999    -0.000038094346    12.000000000000
         C            1.577392074956     0.111867040999    -0.000009194346    12.000000000000
         H           -0.897074625044     1.305273940999     0.888684905654     1.007825032230
         H           -0.896957625044     1.305394940999    -0.888474094346     1.007825032230
         H           -2.763395625044    -0.386634059001    -0.887452094346     1.007825032230
         H           -2.763555625044    -0.386613059001     0.887353905654     1.007825032230
         H           -3.225446625044     1.072872940999    -0.000139094346     1.007825032230

  Basis Set: AUG-CC-PVTZ
    Blend: AUG-CC-PVTZ
  Basis Set: (AUG-CC-PVTZ AUX)
    Blend: AUG-CC-PVTZ-JKFIT
	 Reference Energy          =    -568.5491050009313767 [Eh]
	 Singles Energy            =      -0.0000000000000000 [Eh]
	 Same-Spin Energy          =      -0.2272532329839687 [Eh]
	 Opposite-Spin Energy      =      -0.7462194981501123 [Eh]
	 Correlation Energy        =      -0.9734727311340809 [Eh]
	 Total Energy              =    -569.5225777320654288 [Eh]

	 ================> DF-SCS-MP2 Energies <==================
	-----------------------------------------------------------
	 SCS Same-Spin Scale       =       0.3333333333333333 [-]
	 SCS Opposite-Spin Scale   =       1.2000000000000000 [-]
	 SCS Same-Spin Energy      =      -0.0757510776613229 [Eh]
	 SCS Opposite-Spin Energy  =      -0.8954633977801348 [Eh]
	 SCS Correlation Energy    =      -0.9712144754414578 [Eh]
	 SCS Total Energy          =    -569.5203194763728334 [Eh]
	-----------------------------------------------------------

  Dipole Moment: [D]
     X:    -4.4901      Y:    -0.0061      Z:     0.0001     Total:     4.4901

*** Psi4 exiting successfully. Buy a developer a beer!
