                               Psi4 1.3.2 release

  ==> Input File <==

--------------------------------------------------------------------------
#psi4
#
memory 32 gb

molecule  {
0 1
  S        0.1264700    -0.7742460     0.0000110
  N        2.6648510     0.5909190    -0.0000260
  C       -0.9835220     0.6827390     0.0000510
  C       -2.4242840     0.1891640    -0.0000380
  C        1.7919395     0.1320885    -0.0000110
  H       -0.7718060     1.2803900     0.8886850
  H       -0.7716890     1.2805110    -0.8884740
  H       -2.6381270    -0.4115180    -0.8874520
  H       -2.6382870    -0.4114970     0.8873540
  H       -3.1001780     1.0479890    -0.0001390
units angstrom
no_reorient  #important for SAPT in psi4, default
symmetry c1  #important for SAPT in psi4, default
}

set PROPERTIES_ORIGIN ["COM"]
properties('MP2/aug-cc-pvtz', properties = ['dipole'])
--------------------------------------------------------------------------

    Molecular point group: c1
  Charge       = 0
  Multiplicity = 1
  Basis Set: AUG-CC-PVTZ
    Blend: AUG-CC-PVTZ
  Basis Set: (AUG-CC-PVTZ AUX)
    Blend: AUG-CC-PVTZ-JKFIT

    Orbital Energies [Eh]
    ---------------------

    Doubly Occupied:

       1A    -92.020873     2A    -15.520951     3A    -11.293704
       4A    -11.253176     5A    -11.242091     6A     -9.016872
       7A     -6.697832     8A     -6.696580     9A     -6.695537
      10A     -1.303858    11A     -1.102831    12A     -0.976478
      13A     -0.848471    14A     -0.662477    15A     -0.659813
      16A     -0.582354    17A     -0.568462    18A     -0.560778
      19A     -0.549447    20A     -0.536777    21A     -0.533765
      22A     -0.480139    23A     -0.392939

  @DF-RHF Final Energy:  -568.46973614783167

   => Energetics <=

    Nuclear Repulsion Energy =            198.0271771292239293
    One-Electron Energy =               -1172.6014197023857832
    Two-Electron Energy =                 406.1045064253301575
    Total Energy =                       -568.4697361478317816
  Basis Set: (AUG-CC-PVTZ AUX)
    Blend: AUG-CC-PVTZ-RI
    Molecular point group: c1

    Geometry (in Angstrom), charge = 0, multiplicity = 1:

       Center              X                  Y                   Z               Mass
    ------------   -----------------  -----------------  -----------------  -----------------
         S           -0.011110922738    -0.755582473169     0.000011167680    31.972071174400
         N            2.527270077262     0.609582526831    -0.000025832320    14.003074004430
         C           -1.121102922738     0.701402526831     0.000051167680    12.000000000000
         C           -2.561864922738     0.207827526831    -0.000037832320    12.000000000000
         C            1.654358577262     0.150752026831    -0.000010832320    12.000000000000
         H           -0.909386922738     1.299053526831     0.888685167680     1.007825032230
         H           -0.909269922738     1.299174526831    -0.888473832320     1.007825032230
         H           -2.775707922738    -0.392854473169    -0.887451832320     1.007825032230
         H           -2.775867922738    -0.392833473169     0.887354167680     1.007825032230
         H           -3.237758922738     1.066652526831    -0.000138832320     1.007825032230

  Basis Set: AUG-CC-PVTZ
    Blend: AUG-CC-PVTZ
  Basis Set: (AUG-CC-PVTZ AUX)
    Blend: AUG-CC-PVTZ-JKFIT
	 Reference Energy          =    -568.4697361478316679 [Eh]
	 Singles Energy            =      -0.0000000000000000 [Eh]
	 Same-Spin Energy          =      -0.2215881789343565 [Eh]
	 Opposite-Spin Energy      =      -0.7362307435299886 [Eh]
	 Correlation Energy        =      -0.9578189224643452 [Eh]
	 Total Energy              =    -569.4275550702959663 [Eh]

	 ================> DF-SCS-MP2 Energies <==================
	-----------------------------------------------------------
	 SCS Same-Spin Scale       =       0.3333333333333333 [-]
	 SCS Opposite-Spin Scale   =       1.2000000000000000 [-]
	 SCS Same-Spin Energy      =      -0.0738627263114522 [Eh]
	 SCS Opposite-Spin Energy  =      -0.8834768922359864 [Eh]
	 SCS Correlation Energy    =      -0.9573396185474385 [Eh]
	 SCS Total Energy          =    -569.4270757663790619 [Eh]
	-----------------------------------------------------------

  Dipole Moment: [D]
     X:    -4.5060      Y:    -0.0129      Z:     0.0001     Total:     4.5060

*** Psi4 exiting successfully. Buy a developer a beer!
