                               Psi4 1.4a3.dev225

  ==> Input File <==

--------------------------------------------------------------------------
#psi4
#
memory 32 gb

molecule  {
0 1
  S        0.1265690    -0.7744540    -0.0000030
  N        2.6645760     0.5912410     0.0000080
  C       -0.9835110     0.6826500    -0.0000140
  C       -2.4242400     0.1893500     0.0000110
  C        1.6325633     0.0483542     0.0000021
  H       -0.7715750     1.2803170     0.8885550
  H       -0.7715930     1.2802920    -0.8886040
  H       -2.6383020    -0.4113120    -0.8873620
  H       -2.6382940    -0.4112530     0.8874280
  H       -3.1000420     1.0482750    -0.0000140
units angstrom
no_reorient  #important for SAPT in psi4, default
symmetry c1  #important for SAPT in psi4, default
}

set PROPERTIES_ORIGIN ["COM"]
properties('MP2/aug-cc-pvtz', properties = ['dipole'])
--------------------------------------------------------------------------

    Molecular point group: c1
  Charge       = 0
  Multiplicity = 1
  Basis Set: AUG-CC-PVTZ
    Blend: AUG-CC-PVTZ
  Basis Set: (AUG-CC-PVTZ AUX)
    Blend: AUG-CC-PVTZ-JKFIT

    Orbital Energies [Eh]
    ---------------------

    Doubly Occupied:

       1A    -92.015975     2A    -15.582807     3A    -11.298663
       4A    -11.296003     5A    -11.253831     6A     -9.015359
       7A     -6.696810     8A     -6.695211     9A     -6.694325
      10A     -1.222697    11A     -1.112512    12A     -1.003222
      13A     -0.861805    14A     -0.693201    15A     -0.662278
      16A     -0.592213    17A     -0.572446    18A     -0.547785
      19A     -0.544915    20A     -0.519768    21A     -0.508088
      22A     -0.449425    23A     -0.382601

  @DF-RHF Final Energy:  -568.55518363765702

   => Energetics <=

    Nuclear Repulsion Energy =            198.0263106491792655
    One-Electron Energy =               -1172.7191041980968294
    Two-Electron Energy =                 406.1376099112604834
    Total Energy =                       -568.5551836376570236
  Basis Set: (AUG-CC-PVTZ AUX)
    Blend: AUG-CC-PVTZ-RI
    Molecular point group: c1

    Geometry (in Angstrom), charge = 0, multiplicity = 1:

       Center              X                  Y                   Z               Mass
    ------------   -----------------  -----------------  -----------------  -----------------
         S            0.010964435899    -0.744236720862    -0.000003095753    31.972071174400
         N            2.548971435899     0.621458279138     0.000007904247    14.003074004430
         C           -1.099115564101     0.712867279138    -0.000014095753    12.000000000000
         C           -2.539844564101     0.219567279138     0.000010904247    12.000000000000
         C            1.516958735899     0.078571479138     0.000002004247    12.000000000000
         H           -0.887179564101     1.310534279138     0.888554904247     1.007825032230
         H           -0.887197564101     1.310509279138    -0.888604095753     1.007825032230
         H           -2.753906564101    -0.381094720862    -0.887362095753     1.007825032230
         H           -2.753898564101    -0.381035720862     0.887427904247     1.007825032230
         H           -3.215646564101     1.078492279138    -0.000014095753     1.007825032230

  Basis Set: AUG-CC-PVTZ
    Blend: AUG-CC-PVTZ
  Basis Set: (AUG-CC-PVTZ AUX)
    Blend: AUG-CC-PVTZ-JKFIT
	 Reference Energy          =    -568.5551836376570236 [Eh]
	 Singles Energy            =      -0.0000000000000000 [Eh]
	 Same-Spin Energy          =      -0.2329907950408420 [Eh]
	 Opposite-Spin Energy      =      -0.7560755123053302 [Eh]
	 Correlation Energy        =      -0.9890663073461723 [Eh]
	 Total Energy              =    -569.5442499450032301 [Eh]

	 ================> DF-SCS-MP2 Energies <==================
	-----------------------------------------------------------
	 SCS Same-Spin Scale       =       0.3333333333333333 [-]
	 SCS Opposite-Spin Scale   =       1.2000000000000000 [-]
	 SCS Same-Spin Energy      =      -0.0776635983469473 [Eh]
	 SCS Opposite-Spin Energy  =      -0.9072906147663962 [Eh]
	 SCS Correlation Energy    =      -0.9849542131133435 [Eh]
	 SCS Total Energy          =    -569.5401378507704067 [Eh]
	-----------------------------------------------------------

  Dipole Moment: [D]
     X:    -4.5257      Y:    -0.0174      Z:    -0.0000     Total:     4.5258

*** Psi4 exiting successfully. Buy a developer a beer!
