                               Psi4 1.4a3.dev225

  ==> Input File <==

--------------------------------------------------------------------------
#psi4
#
memory 32 gb

molecule  {
0 1
  S        0.1265690    -0.7744540    -0.0000030
  N        2.6645760     0.5912410     0.0000080
  C       -0.9956312     0.6985591    -0.0000141
  C       -2.4242400     0.1893500     0.0000110
  C        1.6148630     0.0390430     0.0000020
  H       -0.7715750     1.2803170     0.8885550
  H       -0.7715930     1.2802920    -0.8886040
  H       -2.6383020    -0.4113120    -0.8873620
  H       -2.6382940    -0.4112530     0.8874280
  H       -3.1000420     1.0482750    -0.0000140
units angstrom
no_reorient  #important for SAPT in psi4, default
symmetry c1  #important for SAPT in psi4, default
}

set PROPERTIES_ORIGIN ["COM"]
properties('MP2/aug-cc-pvtz', properties = ['dipole'])
--------------------------------------------------------------------------

    Molecular point group: c1
  Charge       = 0
  Multiplicity = 1
  Basis Set: AUG-CC-PVTZ
    Blend: AUG-CC-PVTZ
  Basis Set: (AUG-CC-PVTZ AUX)
    Blend: AUG-CC-PVTZ-JKFIT

    Orbital Energies [Eh]
    ---------------------

    Doubly Occupied:

       1A    -92.014646     2A    -15.587584     3A    -11.303516
       4A    -11.297212     5A    -11.254118     6A     -9.014378
       7A     -6.695886     8A     -6.694189     9A     -6.693361
      10A     -1.213161    11A     -1.112339    12A     -1.007083
      13A     -0.864918    14A     -0.693994    15A     -0.665423
      16A     -0.593127    17A     -0.574808    18A     -0.548755
      19A     -0.544103    20A     -0.519399    21A     -0.506320
      22A     -0.441401    23A     -0.380409

  @DF-RHF Final Energy:  -568.55115358821149

   => Energetics <=

    Nuclear Repulsion Energy =            197.8646199560407410
    One-Electron Energy =               -1172.3912859891083826
    Two-Electron Energy =                 405.9755124448560650
    Total Energy =                       -568.5511535882114913
  Basis Set: (AUG-CC-PVTZ AUX)
    Blend: AUG-CC-PVTZ-RI
    Molecular point group: c1

    Geometry (in Angstrom), charge = 0, multiplicity = 1:

       Center              X                  Y                   Z               Mass
    ------------   -----------------  -----------------  -----------------  -----------------
         S            0.015076933752    -0.745146626785    -0.000003068171    31.972071174400
         N            2.553083933752     0.620548373215     0.000007931829    14.003074004430
         C           -1.107123266248     0.727866473215    -0.000014168171    12.000000000000
         C           -2.535732066248     0.218657373215     0.000010931829    12.000000000000
         C            1.503370933752     0.068350373215     0.000001931829    12.000000000000
         H           -0.883067066248     1.309624373215     0.888554931829     1.007825032230
         H           -0.883085066248     1.309599373215    -0.888604068171     1.007825032230
         H           -2.749794066248    -0.382004626785    -0.887362068171     1.007825032230
         H           -2.749786066248    -0.381945626785     0.887427931829     1.007825032230
         H           -3.211534066248     1.077582373215    -0.000014068171     1.007825032230

  Basis Set: AUG-CC-PVTZ
    Blend: AUG-CC-PVTZ
  Basis Set: (AUG-CC-PVTZ AUX)
    Blend: AUG-CC-PVTZ-JKFIT
	 Reference Energy          =    -568.5511535882114913 [Eh]
	 Singles Energy            =      -0.0000000000000000 [Eh]
	 Same-Spin Energy          =      -0.2345212977362919 [Eh]
	 Opposite-Spin Energy      =      -0.7586778056531895 [Eh]
	 Correlation Energy        =      -0.9931991033894814 [Eh]
	 Total Energy              =    -569.5443526916009205 [Eh]

	 ================> DF-SCS-MP2 Energies <==================
	-----------------------------------------------------------
	 SCS Same-Spin Scale       =       0.3333333333333333 [-]
	 SCS Opposite-Spin Scale   =       1.2000000000000000 [-]
	 SCS Same-Spin Energy      =      -0.0781737659120973 [Eh]
	 SCS Opposite-Spin Energy  =      -0.9104133667838274 [Eh]
	 SCS Correlation Energy    =      -0.9885871326959247 [Eh]
	 SCS Total Energy          =    -569.5397407209073890 [Eh]
	-----------------------------------------------------------

  Dipole Moment: [D]
     X:    -4.5885      Y:    -0.0011      Z:    -0.0000     Total:     4.5885

*** Psi4 exiting successfully. Buy a developer a beer!
