                               Psi4 1.3.2 release

  ==> Input File <==

--------------------------------------------------------------------------
#psi4
#
memory 32 gb

molecule  {
0 1
  S        0.1264700    -0.7742460     0.0000110
  N        2.6648510     0.5909190    -0.0000260
  C       -1.0336939     0.6431133     0.0000515
  C       -2.4242840     0.1891640    -0.0000380
  C        1.6149060     0.0390340    -0.0000080
  H       -0.7718060     1.2803900     0.8886850
  H       -0.7716890     1.2805110    -0.8884740
  H       -2.6381270    -0.4115180    -0.8874520
  H       -2.6382870    -0.4114970     0.8873540
  H       -3.1001780     1.0479890    -0.0001390
units angstrom
no_reorient  #important for SAPT in psi4, default
symmetry c1  #important for SAPT in psi4, default
}

set PROPERTIES_ORIGIN ["COM"]
properties('MP2/aug-cc-pvtz', properties = ['dipole'])
--------------------------------------------------------------------------

    Molecular point group: c1
  Charge       = 0
  Multiplicity = 1
  Basis Set: AUG-CC-PVTZ
    Blend: AUG-CC-PVTZ
  Basis Set: (AUG-CC-PVTZ AUX)
    Blend: AUG-CC-PVTZ-JKFIT

    Orbital Energies [Eh]
    ---------------------

    Doubly Occupied:

       1A    -92.014909     2A    -15.589815     3A    -11.305292
       4A    -11.299504     5A    -11.251450     6A     -9.014906
       7A     -6.696437     8A     -6.694819     9A     -6.693945
      10A     -1.214825    11A     -1.119840    12A     -1.013994
      13A     -0.856433    14A     -0.698568    15A     -0.659226
      16A     -0.596453    17A     -0.586887    18A     -0.549726
      19A     -0.541557    20A     -0.516220    21A     -0.501344
      22A     -0.443324    23A     -0.379111

  @DF-RHF Final Energy:  -568.54637138703436

   => Energetics <=

    Nuclear Repulsion Energy =            198.3990782411943030
    One-Electron Energy =               -1173.4137282356107335
    Two-Electron Energy =                 406.4682786073821603
    Total Energy =                       -568.5463713870342417
  Basis Set: (AUG-CC-PVTZ AUX)
    Blend: AUG-CC-PVTZ-RI
    Molecular point group: c1

    Geometry (in Angstrom), charge = 0, multiplicity = 1:

       Center              X                  Y                   Z               Mass
    ------------   -----------------  -----------------  -----------------  -----------------
         S            0.020222613582    -0.737284757245     0.000010685001    31.972071174400
         N            2.558603613582     0.627880242755    -0.000026314999    14.003074004430
         C           -1.139941286418     0.680074542755     0.000051185001    12.000000000000
         C           -2.530531386418     0.226125242755    -0.000038314999    12.000000000000
         C            1.508658613582     0.075995242755    -0.000008314999    12.000000000000
         H           -0.878053386418     1.317351242755     0.888684685001     1.007825032230
         H           -0.877936386418     1.317472242755    -0.888474314999     1.007825032230
         H           -2.744374386418    -0.374556757245    -0.887452314999     1.007825032230
         H           -2.744534386418    -0.374535757245     0.887353685001     1.007825032230
         H           -3.206425386418     1.084950242755    -0.000139314999     1.007825032230

  Basis Set: AUG-CC-PVTZ
    Blend: AUG-CC-PVTZ
  Basis Set: (AUG-CC-PVTZ AUX)
    Blend: AUG-CC-PVTZ-JKFIT
	 Reference Energy          =    -568.5463713870343554 [Eh]
	 Singles Energy            =      -0.0000000000000000 [Eh]
	 Same-Spin Energy          =      -0.2350383090779051 [Eh]
	 Opposite-Spin Energy      =      -0.7591972633542649 [Eh]
	 Correlation Energy        =      -0.9942355724321699 [Eh]
	 Total Energy              =    -569.5406069594665723 [Eh]

	 ================> DF-SCS-MP2 Energies <==================
	-----------------------------------------------------------
	 SCS Same-Spin Scale       =       0.3333333333333333 [-]
	 SCS Opposite-Spin Scale   =       1.2000000000000000 [-]
	 SCS Same-Spin Energy      =      -0.0783461030259684 [Eh]
	 SCS Opposite-Spin Energy  =      -0.9110367160251178 [Eh]
	 SCS Correlation Energy    =      -0.9893828190510862 [Eh]
	 SCS Total Energy          =    -569.5357542060854712 [Eh]
	-----------------------------------------------------------

  Dipole Moment: [D]
     X:    -4.5685      Y:     0.0097      Z:     0.0001     Total:     4.5685

*** Psi4 exiting successfully. Buy a developer a beer!
