                               Psi4 1.3.2 release

  ==> Input File <==

--------------------------------------------------------------------------
#psi4
#
memory 32 gb

molecule  {
0 1
  S        0.1264700    -0.7742460     0.0000110
  N        2.6648510     0.5909190    -0.0000260
  C       -1.0087808     0.6631451     0.0000512
  C       -2.4242840     0.1891640    -0.0000380
  C        1.6149060     0.0390340    -0.0000080
  H       -0.7718060     1.2803900     0.8886850
  H       -0.7716890     1.2805110    -0.8884740
  H       -2.6381270    -0.4115180    -0.8874520
  H       -2.6382870    -0.4114970     0.8873540
  H       -3.1001780     1.0479890    -0.0001390
units angstrom
no_reorient  #important for SAPT in psi4, default
symmetry c1  #important for SAPT in psi4, default
}

set PROPERTIES_ORIGIN ["COM"]
properties('MP2/aug-cc-pvtz', properties = ['dipole'])
--------------------------------------------------------------------------

    Molecular point group: c1
  Charge       = 0
  Multiplicity = 1
  Basis Set: AUG-CC-PVTZ
    Blend: AUG-CC-PVTZ
  Basis Set: (AUG-CC-PVTZ AUX)
    Blend: AUG-CC-PVTZ-JKFIT

    Orbital Energies [Eh]
    ---------------------

    Doubly Occupied:

       1A    -92.015224     2A    -15.589110     3A    -11.304671
       4A    -11.297855     5A    -11.252765     6A     -9.015175
       7A     -6.696700     8A     -6.695057     9A     -6.694190
      10A     -1.214360    11A     -1.116553    12A     -1.010317
      13A     -0.859981    14A     -0.697391    15A     -0.660639
      16A     -0.594461    17A     -0.579680    18A     -0.547761
      19A     -0.544775    20A     -0.518101    21A     -0.503843
      22A     -0.443767    23A     -0.379942

  @DF-RHF Final Energy:  -568.54982788304335

   => Energetics <=

    Nuclear Repulsion Energy =            198.2599041788768943
    One-Electron Energy =               -1173.1548279007179190
    Two-Electron Energy =                 406.3450958387975902
    Total Energy =                       -568.5498278830434629
  Basis Set: (AUG-CC-PVTZ AUX)
    Blend: AUG-CC-PVTZ-RI
    Molecular point group: c1

    Geometry (in Angstrom), charge = 0, multiplicity = 1:

       Center              X                  Y                   Z               Mass
    ------------   -----------------  -----------------  -----------------  -----------------
         S            0.016786887478    -0.740047311008     0.000010726374    31.972071174400
         N            2.555167887478     0.625117688992    -0.000026273626    14.003074004430
         C           -1.118463912522     0.697343788992     0.000050926374    12.000000000000
         C           -2.533967112522     0.223362688992    -0.000038273626    12.000000000000
         C            1.505222887478     0.073232688992    -0.000008273626    12.000000000000
         H           -0.881489112522     1.314588688992     0.888684726374     1.007825032230
         H           -0.881372112522     1.314709688992    -0.888474273626     1.007825032230
         H           -2.747810112522    -0.377319311008    -0.887452273626     1.007825032230
         H           -2.747970112522    -0.377298311008     0.887353726374     1.007825032230
         H           -3.209861112522     1.082187688992    -0.000139273626     1.007825032230

  Basis Set: AUG-CC-PVTZ
    Blend: AUG-CC-PVTZ
  Basis Set: (AUG-CC-PVTZ AUX)
    Blend: AUG-CC-PVTZ-JKFIT
	 Reference Energy          =    -568.5498278830433492 [Eh]
	 Singles Energy            =      -0.0000000000000000 [Eh]
	 Same-Spin Energy          =      -0.2347760496988838 [Eh]
	 Opposite-Spin Energy      =      -0.7589238866226746 [Eh]
	 Correlation Energy        =      -0.9936999363215584 [Eh]
	 Total Energy              =    -569.5435278193649538 [Eh]

	 ================> DF-SCS-MP2 Energies <==================
	-----------------------------------------------------------
	 SCS Same-Spin Scale       =       0.3333333333333333 [-]
	 SCS Opposite-Spin Scale   =       1.2000000000000000 [-]
	 SCS Same-Spin Energy      =      -0.0782586832329613 [Eh]
	 SCS Opposite-Spin Energy  =      -0.9107086639472095 [Eh]
	 SCS Correlation Energy    =      -0.9889673471801708 [Eh]
	 SCS Total Energy          =    -569.5387952302235135 [Eh]
	-----------------------------------------------------------

  Dipole Moment: [D]
     X:    -4.5556      Y:    -0.0054      Z:     0.0001     Total:     4.5556

*** Psi4 exiting successfully. Buy a developer a beer!
