                               Psi4 1.4a3.dev225

  ==> Input File <==

--------------------------------------------------------------------------
#psi4
#
memory 32 gb

molecule  {
0 1
  S        0.1265690    -0.7744540    -0.0000030
  N        2.6645760     0.5912410     0.0000080
  C       -0.9532105     0.6428772    -0.0000137
  C       -2.4242400     0.1893500     0.0000110
  C        1.6148630     0.0390430     0.0000020
  H       -0.7715750     1.2803170     0.8885550
  H       -0.7715930     1.2802920    -0.8886040
  H       -2.6383020    -0.4113120    -0.8873620
  H       -2.6382940    -0.4112530     0.8874280
  H       -3.1000420     1.0482750    -0.0000140
units angstrom
no_reorient  #important for SAPT in psi4, default
symmetry c1  #important for SAPT in psi4, default
}

set PROPERTIES_ORIGIN ["COM"]
properties('MP2/aug-cc-pvtz', properties = ['dipole'])
--------------------------------------------------------------------------

    Molecular point group: c1
  Charge       = 0
  Multiplicity = 1
  Basis Set: AUG-CC-PVTZ
    Blend: AUG-CC-PVTZ
  Basis Set: (AUG-CC-PVTZ AUX)
    Blend: AUG-CC-PVTZ-JKFIT

    Orbital Energies [Eh]
    ---------------------

    Doubly Occupied:

       1A    -92.017577     2A    -15.590219     3A    -11.305219
       4A    -11.294949     5A    -11.254225     6A     -9.017997
       7A     -6.699535     8A     -6.697956     9A     -6.696996
      10A     -1.215790    11A     -1.118456    12A     -1.005404
      13A     -0.859874    14A     -0.701799    15A     -0.656407
      16A     -0.592931    17A     -0.569612    18A     -0.548713
      19A     -0.546951    20A     -0.517658    21A     -0.503650
      22A     -0.449868    23A     -0.380896

  @DF-RHF Final Energy:  -568.54847070859489

   => Energetics <=

    Nuclear Repulsion Energy =            198.8128231687155960
    One-Electron Energy =               -1174.2372270388184461
    Two-Electron Energy =                 406.8759331615079304
    Total Energy =                       -568.5484707085950049
  Basis Set: (AUG-CC-PVTZ AUX)
    Blend: AUG-CC-PVTZ-RI
    Molecular point group: c1

    Geometry (in Angstrom), charge = 0, multiplicity = 1:

       Center              X                  Y                   Z               Mass
    ------------   -----------------  -----------------  -----------------  -----------------
         S            0.009226762303    -0.737467624279    -0.000003123334    31.972071174400
         N            2.547233762303     0.628227375721     0.000007876666    14.003074004430
         C           -1.070552737697     0.679863575721    -0.000013823334    12.000000000000
         C           -2.541582237697     0.226336375721     0.000010876666    12.000000000000
         C            1.497520762303     0.076029375721     0.000001876666    12.000000000000
         H           -0.888917237697     1.317303375721     0.888554876666     1.007825032230
         H           -0.888935237697     1.317278375721    -0.888604123334     1.007825032230
         H           -2.755644237697    -0.374325624279    -0.887362123334     1.007825032230
         H           -2.755636237697    -0.374266624279     0.887427876666     1.007825032230
         H           -3.217384237697     1.085261375721    -0.000014123334     1.007825032230

  Basis Set: AUG-CC-PVTZ
    Blend: AUG-CC-PVTZ
  Basis Set: (AUG-CC-PVTZ AUX)
    Blend: AUG-CC-PVTZ-JKFIT
	 Reference Energy          =    -568.5484707085948912 [Eh]
	 Singles Energy            =      -0.0000000000000000 [Eh]
	 Same-Spin Energy          =      -0.2348387181469092 [Eh]
	 Opposite-Spin Energy      =      -0.7592035670339599 [Eh]
	 Correlation Energy        =      -0.9940422851808690 [Eh]
	 Total Energy              =    -569.5425129937757447 [Eh]

	 ================> DF-SCS-MP2 Energies <==================
	-----------------------------------------------------------
	 SCS Same-Spin Scale       =       0.3333333333333333 [-]
	 SCS Opposite-Spin Scale   =       1.2000000000000000 [-]
	 SCS Same-Spin Energy      =      -0.0782795727156364 [Eh]
	 SCS Opposite-Spin Energy  =      -0.9110442804407518 [Eh]
	 SCS Correlation Energy    =      -0.9893238531563882 [Eh]
	 SCS Total Energy          =    -569.5377945617512978 [Eh]
	-----------------------------------------------------------

  Dipole Moment: [D]
     X:    -4.4451      Y:    -0.0733      Z:    -0.0000     Total:     4.4457

*** Psi4 exiting successfully. Buy a developer a beer!
