                               Psi4 1.3.2 release

  ==> Input File <==

--------------------------------------------------------------------------
#psi4
#
memory 32 gb

molecule  {
0 1
  S        0.1264700    -0.7742460     0.0000110
  N        2.6648510     0.5909190    -0.0000260
  C       -0.8251449     0.7907832     0.0000492
  C       -2.4242840     0.1891640    -0.0000380
  C        1.6149060     0.0390340    -0.0000080
  H       -0.7718060     1.2803900     0.8886850
  H       -0.7716890     1.2805110    -0.8884740
  H       -2.6381270    -0.4115180    -0.8874520
  H       -2.6382870    -0.4114970     0.8873540
  H       -3.1001780     1.0479890    -0.0001390
units angstrom
no_reorient  #important for SAPT in psi4, default
symmetry c1  #important for SAPT in psi4, default
}

set PROPERTIES_ORIGIN ["COM"]
properties('MP2/aug-cc-pvtz', properties = ['dipole'])
--------------------------------------------------------------------------

    Molecular point group: c1
  Charge       = 0
  Multiplicity = 1
  Basis Set: AUG-CC-PVTZ
    Blend: AUG-CC-PVTZ
  Basis Set: (AUG-CC-PVTZ AUX)
    Blend: AUG-CC-PVTZ-JKFIT

    Orbital Energies [Eh]
    ---------------------

    Doubly Occupied:

       1A    -92.019838     2A    -15.584479     3A    -11.301111
       4A    -11.292184     5A    -11.260253     6A     -9.019160
       7A     -6.700609     8A     -6.698858     9A     -6.698006
      10A     -1.211761    11A     -1.104966    12A     -0.988214
      13A     -0.880902    14A     -0.689391    15A     -0.685256
      16A     -0.587043    17A     -0.563232    18A     -0.555322
      19A     -0.539817    20A     -0.510529    21A     -0.495259
      22A     -0.440588    23A     -0.384125

  @DF-RHF Final Energy:  -568.52224819157766

   => Energetics <=

    Nuclear Repulsion Energy =            197.5064950044234706
    One-Electron Energy =               -1171.6356795279180005
    Two-Electron Energy =                 405.6069363319169270
    Total Energy =                       -568.5222481915776598
  Basis Set: (AUG-CC-PVTZ AUX)
    Blend: AUG-CC-PVTZ-RI
    Molecular point group: c1

    Geometry (in Angstrom), charge = 0, multiplicity = 1:

       Center              X                  Y                   Z               Mass
    ------------   -----------------  -----------------  -----------------  -----------------
         S           -0.008538048206    -0.757649678919     0.000011002190    31.972071174400
         N            2.529842951794     0.607515321081    -0.000025997810    14.003074004430
         C           -0.960152948206     0.807379521081     0.000049202190    12.000000000000
         C           -2.559292048206     0.205760321081    -0.000037997810    12.000000000000
         C            1.479897951794     0.055630321081    -0.000007997810    12.000000000000
         H           -0.906814048206     1.296986321081     0.888685002190     1.007825032230
         H           -0.906697048206     1.297107321081    -0.888473997810     1.007825032230
         H           -2.773135048206    -0.394921678919    -0.887451997810     1.007825032230
         H           -2.773295048206    -0.394900678919     0.887354002190     1.007825032230
         H           -3.235186048206     1.064585321081    -0.000138997810     1.007825032230

  Basis Set: AUG-CC-PVTZ
    Blend: AUG-CC-PVTZ
  Basis Set: (AUG-CC-PVTZ AUX)
    Blend: AUG-CC-PVTZ-JKFIT
	 Reference Energy          =    -568.5222481915776598 [Eh]
	 Singles Energy            =      -0.0000000000000000 [Eh]
	 Same-Spin Energy          =      -0.2349015496816163 [Eh]
	 Opposite-Spin Energy      =      -0.7608099974040961 [Eh]
	 Correlation Energy        =      -0.9957115470857124 [Eh]
	 Total Energy              =    -569.5179597386634214 [Eh]

	 ================> DF-SCS-MP2 Energies <==================
	-----------------------------------------------------------
	 SCS Same-Spin Scale       =       0.3333333333333333 [-]
	 SCS Opposite-Spin Scale   =       1.2000000000000000 [-]
	 SCS Same-Spin Energy      =      -0.0783005165605388 [Eh]
	 SCS Opposite-Spin Energy  =      -0.9129719968849153 [Eh]
	 SCS Correlation Energy    =      -0.9912725134454541 [Eh]
	 SCS Total Energy          =    -569.5135207050230974 [Eh]
	-----------------------------------------------------------

  Dipole Moment: [D]
     X:    -4.5087      Y:    -0.1485      Z:     0.0001     Total:     4.5112

*** Psi4 exiting successfully. Buy a developer a beer!
