                               Psi4 1.3.2 release

  ==> Input File <==

--------------------------------------------------------------------------
#psi4
#
memory 32 gb

molecule  {
0 1
  S        0.0749458    -0.8120966     0.0000066
  N        2.6648510     0.5909190    -0.0000260
  C       -0.9835220     0.6827390     0.0000510
  C       -2.4242840     0.1891640    -0.0000380
  C        1.6149060     0.0390340    -0.0000080
  H       -0.7718060     1.2803900     0.8886850
  H       -0.7716890     1.2805110    -0.8884740
  H       -2.6381270    -0.4115180    -0.8874520
  H       -2.6382870    -0.4114970     0.8873540
  H       -3.1001780     1.0479890    -0.0001390
units angstrom
no_reorient  #important for SAPT in psi4, default
symmetry c1  #important for SAPT in psi4, default
}

set PROPERTIES_ORIGIN ["COM"]
properties('MP2/aug-cc-pvtz', properties = ['dipole'])
--------------------------------------------------------------------------

    Molecular point group: c1
  Charge       = 0
  Multiplicity = 1
  Basis Set: AUG-CC-PVTZ
    Blend: AUG-CC-PVTZ
  Basis Set: (AUG-CC-PVTZ AUX)
    Blend: AUG-CC-PVTZ-JKFIT

    Orbital Energies [Eh]
    ---------------------

    Doubly Occupied:

       1A    -92.021334     2A    -15.588733     3A    -11.306335
       4A    -11.296056     5A    -11.253395     6A     -9.019548
       7A     -6.700818     8A     -6.699283     9A     -6.698374
      10A     -1.211553    11A     -1.111813    12A     -0.996896
      13A     -0.859260    14A     -0.692786    15A     -0.662479
      16A     -0.593894    17A     -0.570974    18A     -0.546257
      19A     -0.539440    20A     -0.518400    21A     -0.500184
      22A     -0.448316    23A     -0.384861

  @DF-RHF Final Energy:  -568.54853030958475

   => Energetics <=

    Nuclear Repulsion Energy =            196.9096482884262400
    One-Electron Energy =               -1170.4743845146010699
    Two-Electron Energy =                 405.0162059165899677
    Total Energy =                       -568.5485303095847485
  Basis Set: (AUG-CC-PVTZ AUX)
    Blend: AUG-CC-PVTZ-RI
    Molecular point group: c1

    Geometry (in Angstrom), charge = 0, multiplicity = 1:

       Center              X                  Y                   Z               Mass
    ------------   -----------------  -----------------  -----------------  -----------------
         S           -0.019288929350    -0.766692446969     0.000007970668    31.972071174400
         N            2.570616270650     0.636323153031    -0.000024629332    14.003074004430
         C           -1.077756729350     0.728143153031     0.000052370668    12.000000000000
         C           -2.518518729350     0.234568153031    -0.000036629332    12.000000000000
         C            1.520671270650     0.084438153031    -0.000006629332    12.000000000000
         H           -0.866040729350     1.325794153031     0.888686370668     1.007825032230
         H           -0.865923729350     1.325915153031    -0.888472629332     1.007825032230
         H           -2.732361729350    -0.366113846969    -0.887450629332     1.007825032230
         H           -2.732521729350    -0.366092846969     0.887355370668     1.007825032230
         H           -3.194412729350     1.093393153031    -0.000137629332     1.007825032230

  Basis Set: AUG-CC-PVTZ
    Blend: AUG-CC-PVTZ
  Basis Set: (AUG-CC-PVTZ AUX)
    Blend: AUG-CC-PVTZ-JKFIT
	 Reference Energy          =    -568.5485303095847485 [Eh]
	 Singles Energy            =      -0.0000000000000000 [Eh]
	 Same-Spin Energy          =      -0.2339819873504615 [Eh]
	 Opposite-Spin Energy      =      -0.7591645514522645 [Eh]
	 Correlation Energy        =      -0.9931465388027260 [Eh]
	 Total Energy              =    -569.5416768483875103 [Eh]

	 ================> DF-SCS-MP2 Energies <==================
	-----------------------------------------------------------
	 SCS Same-Spin Scale       =       0.3333333333333333 [-]
	 SCS Opposite-Spin Scale   =       1.2000000000000000 [-]
	 SCS Same-Spin Energy      =      -0.0779939957834871 [Eh]
	 SCS Opposite-Spin Energy  =      -0.9109974617427173 [Eh]
	 SCS Correlation Energy    =      -0.9889914575262044 [Eh]
	 SCS Total Energy          =    -569.5375217671110022 [Eh]
	-----------------------------------------------------------

  Dipole Moment: [D]
     X:    -4.5000      Y:    -0.0517      Z:     0.0001     Total:     4.5003

*** Psi4 exiting successfully. Buy a developer a beer!
