                               Psi4 1.3.2 release

  ==> Input File <==

--------------------------------------------------------------------------
#psi4
#
memory 32 gb

molecule  {
0 1
  S        0.1758714    -0.7310039     0.1097120
  N        2.6648510     0.5909190    -0.0000260
  C       -0.9835220     0.6827390     0.0000510
  C       -2.4242840     0.1891640    -0.0000380
  C        1.6149060     0.0390340    -0.0000080
  H       -0.7718060     1.2803900     0.8886850
  H       -0.7716890     1.2805110    -0.8884740
  H       -2.6381270    -0.4115180    -0.8874520
  H       -2.6382870    -0.4114970     0.8873540
  H       -3.1001780     1.0479890    -0.0001390
units angstrom
no_reorient  #important for SAPT in psi4, default
symmetry c1  #important for SAPT in psi4, default
}

set PROPERTIES_ORIGIN ["COM"]
properties('MP2/aug-cc-pvtz', properties = ['dipole'])
--------------------------------------------------------------------------

    Molecular point group: c1
  Charge       = 0
  Multiplicity = 1
  Basis Set: AUG-CC-PVTZ
    Blend: AUG-CC-PVTZ
  Basis Set: (AUG-CC-PVTZ AUX)
    Blend: AUG-CC-PVTZ-JKFIT

    Orbital Energies [Eh]
    ---------------------

    Doubly Occupied:

       1A    -92.010065     2A    -15.587437     3A    -11.300713
       4A    -11.296792     5A    -11.254851     6A     -9.011927
       7A     -6.693730     8A     -6.691825     9A     -6.691021
      10A     -1.216488    11A     -1.116645    12A     -1.016503
      13A     -0.868006    14A     -0.699017    15A     -0.662696
      16A     -0.592247    17A     -0.575319    18A     -0.551531
      19A     -0.548586    20A     -0.521633    21A     -0.510876
      22A     -0.438658    23A     -0.376346

  @DF-RHF Final Energy:  -568.54807648192082

   => Energetics <=

    Nuclear Repulsion Energy =            199.4061396234626216
    One-Electron Energy =               -1175.4426093787149057
    Two-Electron Energy =                 407.4883932733314396
    Total Energy =                       -568.5480764819208161
  Basis Set: (AUG-CC-PVTZ AUX)
    Blend: AUG-CC-PVTZ-RI
    Molecular point group: c1

    Geometry (in Angstrom), charge = 0, multiplicity = 1:

       Center              X                  Y                   Z               Mass
    ------------   -----------------  -----------------  -----------------  -----------------
         S            0.044553092819    -0.715396027119     0.069403788765    31.972071174400
         N            2.533532692819     0.606526872881    -0.040334211235    14.003074004430
         C           -1.114840307181     0.698346872881    -0.040257211235    12.000000000000
         C           -2.555602307181     0.204771872881    -0.040346211235    12.000000000000
         C            1.483587692819     0.054641872881    -0.040316211235    12.000000000000
         H           -0.903124307181     1.295997872881     0.848376788765     1.007825032230
         H           -0.903007307181     1.296118872881    -0.928782211235     1.007825032230
         H           -2.769445307181    -0.395910127119    -0.927760211235     1.007825032230
         H           -2.769605307181    -0.395889127119     0.847045788765     1.007825032230
         H           -3.231496307181     1.063596872881    -0.040447211235     1.007825032230

  Basis Set: AUG-CC-PVTZ
    Blend: AUG-CC-PVTZ
  Basis Set: (AUG-CC-PVTZ AUX)
    Blend: AUG-CC-PVTZ-JKFIT
	 Reference Energy          =    -568.5480764819208161 [Eh]
	 Singles Energy            =      -0.0000000000000000 [Eh]
	 Same-Spin Energy          =      -0.2353408722679448 [Eh]
	 Opposite-Spin Energy      =      -0.7587704801640176 [Eh]
	 Correlation Energy        =      -0.9941113524319625 [Eh]
	 Total Energy              =    -569.5421878343528306 [Eh]

	 ================> DF-SCS-MP2 Energies <==================
	-----------------------------------------------------------
	 SCS Same-Spin Scale       =       0.3333333333333333 [-]
	 SCS Opposite-Spin Scale   =       1.2000000000000000 [-]
	 SCS Same-Spin Energy      =      -0.0784469574226483 [Eh]
	 SCS Opposite-Spin Energy  =      -0.9105245761968210 [Eh]
	 SCS Correlation Energy    =      -0.9889715336194693 [Eh]
	 SCS Total Energy          =    -569.5370480155403357 [Eh]
	-----------------------------------------------------------

  Dipole Moment: [D]
     X:    -4.6075      Y:     0.0073      Z:     0.0188     Total:     4.6076

*** Psi4 exiting successfully. Buy a developer a beer!
