                               Psi4 1.3.2 release

  ==> Input File <==

--------------------------------------------------------------------------
#psi4
#
memory 32 gb

molecule  {
0 1
  S        0.1393372    -0.7640933     0.0274571
  N        2.6648510     0.5909190    -0.0000260
  C       -0.9835220     0.6827390     0.0000510
  C       -2.4242840     0.1891640    -0.0000380
  C        1.6149060     0.0390340    -0.0000080
  H       -0.7718060     1.2803900     0.8886850
  H       -0.7716890     1.2805110    -0.8884740
  H       -2.6381270    -0.4115180    -0.8874520
  H       -2.6382870    -0.4114970     0.8873540
  H       -3.1001780     1.0479890    -0.0001390
units angstrom
no_reorient  #important for SAPT in psi4, default
symmetry c1  #important for SAPT in psi4, default
}

set PROPERTIES_ORIGIN ["COM"]
properties('MP2/aug-cc-pvtz', properties = ['dipole'])
--------------------------------------------------------------------------

    Molecular point group: c1
  Charge       = 0
  Multiplicity = 1
  Basis Set: AUG-CC-PVTZ
    Blend: AUG-CC-PVTZ
  Basis Set: (AUG-CC-PVTZ AUX)
    Blend: AUG-CC-PVTZ-JKFIT

    Orbital Energies [Eh]
    ---------------------

    Doubly Occupied:

       1A    -92.014180     2A    -15.588215     3A    -11.303303
       4A    -11.296491     5A    -11.254230     6A     -9.014556
       7A     -6.696144     8A     -6.694426     9A     -6.693581
      10A     -1.214541    11A     -1.114449    12A     -1.009273
      13A     -0.864582    14A     -0.696984    15A     -0.662799
      16A     -0.592788    17A     -0.573418    18A     -0.548715
      19A     -0.546359    20A     -0.520057    21A     -0.507148
      22A     -0.442740    23A     -0.379616

  @DF-RHF Final Energy:  -568.55095639260003

   => Energetics <=

    Nuclear Repulsion Energy =            198.4552148497157589
    One-Electron Energy =               -1173.5551536417915486
    Two-Electron Energy =                 406.5489823994757899
    Total Energy =                       -568.5509563926000283
  Basis Set: (AUG-CC-PVTZ AUX)
    Blend: AUG-CC-PVTZ-RI
    Molecular point group: c1

    Geometry (in Angstrom), charge = 0, multiplicity = 1:

       Center              X                  Y                   Z               Mass
    ------------   -----------------  -----------------  -----------------  -----------------
         S            0.021442829354    -0.736327229989     0.017372201642    31.972071174400
         N            2.546956629354     0.618685070011    -0.010110898358    14.003074004430
         C           -1.101416370646     0.710505070011    -0.010033898358    12.000000000000
         C           -2.542178370646     0.216930070011    -0.010122898358    12.000000000000
         C            1.497011629354     0.066800070011    -0.010092898358    12.000000000000
         H           -0.889700370646     1.308156070011     0.878600101642     1.007825032230
         H           -0.889583370646     1.308277070011    -0.898558898358     1.007825032230
         H           -2.756021370646    -0.383751929989    -0.897536898358     1.007825032230
         H           -2.756181370646    -0.383730929989     0.877269101642     1.007825032230
         H           -3.218072370646     1.075755070011    -0.010223898358     1.007825032230

  Basis Set: AUG-CC-PVTZ
    Blend: AUG-CC-PVTZ
  Basis Set: (AUG-CC-PVTZ AUX)
    Blend: AUG-CC-PVTZ-JKFIT
	 Reference Energy          =    -568.5509563926000283 [Eh]
	 Singles Energy            =      -0.0000000000000000 [Eh]
	 Same-Spin Energy          =      -0.2347647287572872 [Eh]
	 Opposite-Spin Energy      =      -0.7587441531822079 [Eh]
	 Correlation Energy        =      -0.9935088819394952 [Eh]
	 Total Energy              =    -569.5444652745395615 [Eh]

	 ================> DF-SCS-MP2 Energies <==================
	-----------------------------------------------------------
	 SCS Same-Spin Scale       =       0.3333333333333333 [-]
	 SCS Opposite-Spin Scale   =       1.2000000000000000 [-]
	 SCS Same-Spin Energy      =      -0.0782549095857624 [Eh]
	 SCS Opposite-Spin Energy  =      -0.9104929838186494 [Eh]
	 SCS Correlation Energy    =      -0.9887478934044118 [Eh]
	 SCS Total Energy          =    -569.5397042860043939 [Eh]
	-----------------------------------------------------------

  Dipole Moment: [D]
     X:    -4.5594      Y:    -0.0150      Z:     0.0049     Total:     4.5595

*** Psi4 exiting successfully. Buy a developer a beer!
