                               Psi4 1.3.2 release

  ==> Input File <==

--------------------------------------------------------------------------
#psi4
#
memory 32 gb

molecule  {
0 1
  S        0.1264700    -0.7742460     0.0000110
  N        2.6648510     0.5909190    -0.0000260
  C       -0.9229208     0.6031934     0.0000488
  C       -2.4242840     0.1891640    -0.0000380
  C        1.6149060     0.0390340    -0.0000080
  H       -0.7718060     1.2803900     0.8886850
  H       -0.7716890     1.2805110    -0.8884740
  H       -2.6381270    -0.4115180    -0.8874520
  H       -2.6382870    -0.4114970     0.8873540
  H       -3.1001780     1.0479890    -0.0001390
units angstrom
no_reorient  #important for SAPT in psi4, default
symmetry c1  #important for SAPT in psi4, default
}

set PROPERTIES_ORIGIN ["COM"]
properties('MP2/aug-cc-pvtz', properties = ['dipole'])
--------------------------------------------------------------------------

    Molecular point group: c1
  Charge       = 0
  Multiplicity = 1
  Basis Set: AUG-CC-PVTZ
    Blend: AUG-CC-PVTZ
  Basis Set: (AUG-CC-PVTZ AUX)
    Blend: AUG-CC-PVTZ-JKFIT

    Orbital Energies [Eh]
    ---------------------

    Doubly Occupied:

       1A    -92.018809     2A    -15.591781     3A    -11.306145
       4A    -11.294351     5A    -11.255077     6A     -9.019953
       7A     -6.701507     8A     -6.700031     9A     -6.698941
      10A     -1.217487    11A     -1.124733    12A     -1.003584
      13A     -0.856700    14A     -0.707402    15A     -0.650816
      16A     -0.593001    17A     -0.569049    18A     -0.553033
      19A     -0.546652    20A     -0.512295    21A     -0.500682
      22A     -0.454657    23A     -0.380260

  @DF-RHF Final Energy:  -568.54168319870314

   => Energetics <=

    Nuclear Repulsion Energy =            199.5257214477600485
    One-Electron Energy =               -1175.6209187447605018
    Two-Electron Energy =                 407.5535140982973417
    Total Energy =                       -568.5416831987031401
  Basis Set: (AUG-CC-PVTZ AUX)
    Blend: AUG-CC-PVTZ-RI
    Molecular point group: c1

    Geometry (in Angstrom), charge = 0, multiplicity = 1:

       Center              X                  Y                   Z               Mass
    ------------   -----------------  -----------------  -----------------  -----------------
         S            0.004946071070    -0.731779467157     0.000011057354    31.972071174400
         N            2.543327071070     0.633385532843    -0.000025942646    14.003074004430
         C           -1.044444728930     0.645659932843     0.000048857354    12.000000000000
         C           -2.545807928930     0.231630532843    -0.000037942646    12.000000000000
         C            1.493382071070     0.081500532843    -0.000007942646    12.000000000000
         H           -0.893329928930     1.322856532843     0.888685057354     1.007825032230
         H           -0.893212928930     1.322977532843    -0.888473942646     1.007825032230
         H           -2.759650928930    -0.369051467157    -0.887451942646     1.007825032230
         H           -2.759810928930    -0.369030467157     0.887354057354     1.007825032230
         H           -3.221701928930     1.090455532843    -0.000138942646     1.007825032230

  Basis Set: AUG-CC-PVTZ
    Blend: AUG-CC-PVTZ
  Basis Set: (AUG-CC-PVTZ AUX)
    Blend: AUG-CC-PVTZ-JKFIT
	 Reference Energy          =    -568.5416831987031401 [Eh]
	 Singles Energy            =      -0.0000000000000000 [Eh]
	 Same-Spin Energy          =      -0.2352646842386868 [Eh]
	 Opposite-Spin Energy      =      -0.7598738506086855 [Eh]
	 Correlation Energy        =      -0.9951385348473724 [Eh]
	 Total Energy              =    -569.5368217335504823 [Eh]

	 ================> DF-SCS-MP2 Energies <==================
	-----------------------------------------------------------
	 SCS Same-Spin Scale       =       0.3333333333333333 [-]
	 SCS Opposite-Spin Scale   =       1.2000000000000000 [-]
	 SCS Same-Spin Energy      =      -0.0784215614128956 [Eh]
	 SCS Opposite-Spin Energy  =      -0.9118486207304226 [Eh]
	 SCS Correlation Energy    =      -0.9902701821433182 [Eh]
	 SCS Total Energy          =    -569.5319533808464030 [Eh]
	-----------------------------------------------------------

  Dipole Moment: [D]
     X:    -4.3641      Y:    -0.1176      Z:     0.0001     Total:     4.3657

*** Psi4 exiting successfully. Buy a developer a beer!
