                               Psi4 1.3.2 release

  ==> Input File <==

--------------------------------------------------------------------------
#psi4
#
memory 32 gb

molecule  {
0 1
  S        0.0733642    -0.6684368     0.0000401
  N        2.6648510     0.5909190    -0.0000260
  C       -0.9835220     0.6827390     0.0000510
  C       -2.4242840     0.1891640    -0.0000380
  C        1.6149060     0.0390340    -0.0000080
  H       -0.7718060     1.2803900     0.8886850
  H       -0.7716890     1.2805110    -0.8884740
  H       -2.6381270    -0.4115180    -0.8874520
  H       -2.6382870    -0.4114970     0.8873540
  H       -3.1001780     1.0479890    -0.0001390
units angstrom
no_reorient  #important for SAPT in psi4, default
symmetry c1  #important for SAPT in psi4, default
}

set PROPERTIES_ORIGIN ["COM"]
properties('MP2/aug-cc-pvtz', properties = ['dipole'])
--------------------------------------------------------------------------

    Molecular point group: c1
  Charge       = 0
  Multiplicity = 1
  Basis Set: AUG-CC-PVTZ
    Blend: AUG-CC-PVTZ
  Basis Set: (AUG-CC-PVTZ AUX)
    Blend: AUG-CC-PVTZ-JKFIT

    Orbital Energies [Eh]
    ---------------------

    Doubly Occupied:

       1A    -92.010452     2A    -15.591179     3A    -11.305140
       4A    -11.286503     5A    -11.255704     6A     -9.012691
       7A     -6.694296     8A     -6.692785     9A     -6.691694
      10A     -1.216969    11A     -1.135732    12A     -1.005631
      13A     -0.865673    14A     -0.709627    15A     -0.669259
      16A     -0.590930    17A     -0.578802    18A     -0.552278
      19A     -0.549005    20A     -0.516682    21A     -0.504718
      22A     -0.450160    23A     -0.376858

  @DF-RHF Final Energy:  -568.54467579969071

   => Energetics <=

    Nuclear Repulsion Energy =            201.1409836664334705
    One-Electron Energy =               -1178.8457823262194779
    Two-Electron Energy =                 409.1601228600952709
    Total Energy =                       -568.5446757996907081
  Basis Set: (AUG-CC-PVTZ AUX)
    Blend: AUG-CC-PVTZ-RI
    Molecular point group: c1

    Geometry (in Angstrom), charge = 0, multiplicity = 1:

       Center              X                  Y                   Z               Mass
    ------------   -----------------  -----------------  -----------------  -----------------
         S           -0.020289394468    -0.675818257106     0.000029161602    31.972071174400
         N            2.571197405532     0.583537542894    -0.000036938398    14.003074004430
         C           -1.077175594468     0.675357542894     0.000040061602    12.000000000000
         C           -2.517937594468     0.181782542894    -0.000048938398    12.000000000000
         C            1.521252405532     0.031652542894    -0.000018938398    12.000000000000
         H           -0.865459594468     1.273008542894     0.888674061602     1.007825032230
         H           -0.865342594468     1.273129542894    -0.888484938398     1.007825032230
         H           -2.731780594468    -0.418899457106    -0.887462938398     1.007825032230
         H           -2.731940594468    -0.418878457106     0.887343061602     1.007825032230
         H           -3.193831594468     1.040607542894    -0.000149938398     1.007825032230

  Basis Set: AUG-CC-PVTZ
    Blend: AUG-CC-PVTZ
  Basis Set: (AUG-CC-PVTZ AUX)
    Blend: AUG-CC-PVTZ-JKFIT
	 Reference Energy          =    -568.5446757996907081 [Eh]
	 Singles Energy            =      -0.0000000000000000 [Eh]
	 Same-Spin Energy          =      -0.2355242447046560 [Eh]
	 Opposite-Spin Energy      =      -0.7589193746574594 [Eh]
	 Correlation Energy        =      -0.9944436193621153 [Eh]
	 Total Energy              =    -569.5391194190527813 [Eh]

	 ================> DF-SCS-MP2 Energies <==================
	-----------------------------------------------------------
	 SCS Same-Spin Scale       =       0.3333333333333333 [-]
	 SCS Opposite-Spin Scale   =       1.2000000000000000 [-]
	 SCS Same-Spin Energy      =      -0.0785080815682187 [Eh]
	 SCS Opposite-Spin Energy  =      -0.9107032495889512 [Eh]
	 SCS Correlation Energy    =      -0.9892113311571699 [Eh]
	 SCS Total Energy          =    -569.5338871308479156 [Eh]
	-----------------------------------------------------------

  Dipole Moment: [D]
     X:    -4.5299      Y:     0.0988      Z:     0.0001     Total:     4.5310

*** Psi4 exiting successfully. Buy a developer a beer!
