                               Psi4 1.3.2 release

  ==> Input File <==

--------------------------------------------------------------------------
#psi4
#
memory 32 gb

molecule  {
0 1
  S        0.1264700    -0.7742460     0.0000110
  N        2.6648510     0.5909190    -0.0000260
  C       -0.9835220     0.6827390     0.0000510
  C       -2.4242840     0.1891640    -0.0000380
  C        1.5263893    -0.0074933    -0.0000065
  H       -0.7718060     1.2803900     0.8886850
  H       -0.7716890     1.2805110    -0.8884740
  H       -2.6381270    -0.4115180    -0.8874520
  H       -2.6382870    -0.4114970     0.8873540
  H       -3.1001780     1.0479890    -0.0001390
units angstrom
no_reorient  #important for SAPT in psi4, default
symmetry c1  #important for SAPT in psi4, default
}

set PROPERTIES_ORIGIN ["COM"]
properties('MP2/aug-cc-pvtz', properties = ['dipole'])
--------------------------------------------------------------------------

    Molecular point group: c1
  Charge       = 0
  Multiplicity = 1
  Basis Set: AUG-CC-PVTZ
    Blend: AUG-CC-PVTZ
  Basis Set: (AUG-CC-PVTZ AUX)
    Blend: AUG-CC-PVTZ-JKFIT

    Orbital Energies [Eh]
    ---------------------

    Doubly Occupied:

       1A    -92.015151     2A    -15.610700     3A    -11.325126
       4A    -11.298325     5A    -11.255298     6A     -9.018070
       7A     -6.699960     8A     -6.697794     9A     -6.697125
      10A     -1.181966    11A     -1.113835    12A     -1.023446
      13A     -0.871346    14A     -0.709357    15A     -0.665466
      16A     -0.595964    17A     -0.575053    18A     -0.550735
      19A     -0.544849    20A     -0.522892    21A     -0.500229
      22A     -0.414127    23A     -0.369747

  @DF-RHF Final Energy:  -568.50610623819966

   => Energetics <=

    Nuclear Repulsion Energy =            198.9382888283956561
    One-Electron Energy =               -1174.3756659108919393
    Two-Electron Energy =                 406.9312708442965345
    Total Energy =                       -568.5061062381996635
  Basis Set: (AUG-CC-PVTZ AUX)
    Blend: AUG-CC-PVTZ-RI
    Molecular point group: c1

    Geometry (in Angstrom), charge = 0, multiplicity = 1:

       Center              X                  Y                   Z               Mass
    ------------   -----------------  -----------------  -----------------  -----------------
         S            0.025510684127    -0.736332968536     0.000010547093    31.972071174400
         N            2.563891684127     0.628832031464    -0.000026452907    14.003074004430
         C           -1.084481315873     0.720652031464     0.000050547093    12.000000000000
         C           -2.525243315873     0.227077031464    -0.000038452907    12.000000000000
         C            1.425429984127     0.030419731464    -0.000006952907    12.000000000000
         H           -0.872765315873     1.318303031464     0.888684547093     1.007825032230
         H           -0.872648315873     1.318424031464    -0.888474452907     1.007825032230
         H           -2.739086315873    -0.373604968536    -0.887452452907     1.007825032230
         H           -2.739246315873    -0.373583968536     0.887353547093     1.007825032230
         H           -3.201137315873     1.085902031464    -0.000139452907     1.007825032230

  Basis Set: AUG-CC-PVTZ
    Blend: AUG-CC-PVTZ
  Basis Set: (AUG-CC-PVTZ AUX)
    Blend: AUG-CC-PVTZ-JKFIT
	 Reference Energy          =    -568.5061062381996635 [Eh]
	 Singles Energy            =      -0.0000000000000000 [Eh]
	 Same-Spin Energy          =      -0.2430182828758539 [Eh]
	 Opposite-Spin Energy      =      -0.7730202635775874 [Eh]
	 Correlation Energy        =      -1.0160385464534412 [Eh]
	 Total Energy              =    -569.5221447846530509 [Eh]

	 ================> DF-SCS-MP2 Energies <==================
	-----------------------------------------------------------
	 SCS Same-Spin Scale       =       0.3333333333333333 [-]
	 SCS Opposite-Spin Scale   =       1.2000000000000000 [-]
	 SCS Same-Spin Energy      =      -0.0810060942919513 [Eh]
	 SCS Opposite-Spin Energy  =      -0.9276243162931048 [Eh]
	 SCS Correlation Energy    =      -1.0086304105850561 [Eh]
	 SCS Total Energy          =    -569.5147366487847194 [Eh]
	-----------------------------------------------------------

  Dipole Moment: [D]
     X:    -4.7306      Y:    -0.0652      Z:     0.0001     Total:     4.7311

*** Psi4 exiting successfully. Buy a developer a beer!
