                               Psi4 1.3.2 release

  ==> Input File <==

--------------------------------------------------------------------------
#psi4
#
memory 32 gb

molecule  {
0 1
  S        0.0997253    -0.7932170    -0.0548728
  N        2.6648510     0.5909190    -0.0000260
  C       -0.9835220     0.6827390     0.0000510
  C       -2.4242840     0.1891640    -0.0000380
  C        1.6149060     0.0390340    -0.0000080
  H       -0.7718060     1.2803900     0.8886850
  H       -0.7716890     1.2805110    -0.8884740
  H       -2.6381270    -0.4115180    -0.8874520
  H       -2.6382870    -0.4114970     0.8873540
  H       -3.1001780     1.0479890    -0.0001390
units angstrom
no_reorient  #important for SAPT in psi4, default
symmetry c1  #important for SAPT in psi4, default
}

set PROPERTIES_ORIGIN ["COM"]
properties('MP2/aug-cc-pvtz', properties = ['dipole'])
--------------------------------------------------------------------------

    Molecular point group: c1
  Charge       = 0
  Multiplicity = 1
  Basis Set: AUG-CC-PVTZ
    Blend: AUG-CC-PVTZ
  Basis Set: (AUG-CC-PVTZ AUX)
    Blend: AUG-CC-PVTZ-JKFIT

    Orbital Energies [Eh]
    ---------------------

    Doubly Occupied:

       1A    -92.018636     2A    -15.588697     3A    -11.305422
       4A    -11.296161     5A    -11.253660     6A     -9.017601
       7A     -6.698981     8A     -6.697398     9A     -6.696509
      10A     -1.212682    11A     -1.112604    12A     -1.001422
      13A     -0.861125    14A     -0.694595    15A     -0.662420
      16A     -0.593479    17A     -0.571812    18A     -0.547155
      19A     -0.542124    20A     -0.518960    21A     -0.502751
      22A     -0.446442    23A     -0.382830

  @DF-RHF Final Energy:  -568.55011257507249

   => Energetics <=

    Nuclear Repulsion Energy =            197.4721721432021582
    One-Electron Energy =               -1171.5976397636782167
    Two-Electron Energy =                 405.5753550454034553
    Total Energy =                       -568.5501125750724896
  Basis Set: (AUG-CC-PVTZ AUX)
    Blend: AUG-CC-PVTZ-RI
    Molecular point group: c1

    Geometry (in Angstrom), charge = 0, multiplicity = 1:

       Center              X                  Y                   Z               Mass
    ------------   -----------------  -----------------  -----------------  -----------------
         S           -0.003614280021    -0.754749869053    -0.034706827871    31.972071174400
         N            2.561511419979     0.629386130947     0.020139972129    14.003074004430
         C           -1.086861580021     0.721206130947     0.020216972129    12.000000000000
         C           -2.527623580021     0.227631130947     0.020127972129    12.000000000000
         C            1.511566419979     0.077501130947     0.020157972129    12.000000000000
         H           -0.875145580021     1.318857130947     0.908850972129     1.007825032230
         H           -0.875028580021     1.318978130947    -0.868308027871     1.007825032230
         H           -2.741466580021    -0.373050869053    -0.867286027871     1.007825032230
         H           -2.741626580021    -0.373029869053     0.907519972129     1.007825032230
         H           -3.203517580021     1.086456130947     0.020026972129     1.007825032230

  Basis Set: AUG-CC-PVTZ
    Blend: AUG-CC-PVTZ
  Basis Set: (AUG-CC-PVTZ AUX)
    Blend: AUG-CC-PVTZ-JKFIT
	 Reference Energy          =    -568.5501125750724896 [Eh]
	 Singles Energy            =      -0.0000000000000000 [Eh]
	 Same-Spin Energy          =      -0.2342549474970738 [Eh]
	 Opposite-Spin Energy      =      -0.7589767972568069 [Eh]
	 Correlation Energy        =      -0.9932317447538807 [Eh]
	 Total Energy              =    -569.5433443198263603 [Eh]

	 ================> DF-SCS-MP2 Energies <==================
	-----------------------------------------------------------
	 SCS Same-Spin Scale       =       0.3333333333333333 [-]
	 SCS Opposite-Spin Scale   =       1.2000000000000000 [-]
	 SCS Same-Spin Energy      =      -0.0780849824990246 [Eh]
	 SCS Opposite-Spin Energy  =      -0.9107721567081682 [Eh]
	 SCS Correlation Energy    =      -0.9888571392071929 [Eh]
	 SCS Total Energy          =    -569.5389697142796877 [Eh]
	-----------------------------------------------------------

  Dipole Moment: [D]
     X:    -4.5172      Y:    -0.0368      Z:    -0.0101     Total:     4.5174

*** Psi4 exiting successfully. Buy a developer a beer!
