                               Psi4 1.3.2 release

  ==> Input File <==

--------------------------------------------------------------------------
#psi4
#
memory 32 gb

molecule  {
0 1
  S        0.1125030    -0.7481453     0.0000183
  N        2.6648510     0.5909190    -0.0000260
  C       -0.9835220     0.6827390     0.0000510
  C       -2.4242840     0.1891640    -0.0000380
  C        1.6149060     0.0390340    -0.0000080
  H       -0.7718060     1.2803900     0.8886850
  H       -0.7716890     1.2805110    -0.8884740
  H       -2.6381270    -0.4115180    -0.8874520
  H       -2.6382870    -0.4114970     0.8873540
  H       -3.1001780     1.0479890    -0.0001390
units angstrom
no_reorient  #important for SAPT in psi4, default
symmetry c1  #important for SAPT in psi4, default
}

set PROPERTIES_ORIGIN ["COM"]
properties('MP2/aug-cc-pvtz', properties = ['dipole'])
--------------------------------------------------------------------------

    Molecular point group: c1
  Charge       = 0
  Multiplicity = 1
  Basis Set: AUG-CC-PVTZ
    Blend: AUG-CC-PVTZ
  Basis Set: (AUG-CC-PVTZ AUX)
    Blend: AUG-CC-PVTZ-JKFIT

    Orbital Energies [Eh]
    ---------------------

    Doubly Occupied:

       1A    -92.014617     2A    -15.589183     3A    -11.304410
       4A    -11.293826     5A    -11.254286     6A     -9.015009
       7A     -6.696548     8A     -6.694917     9A     -6.694012
      10A     -1.214671    11A     -1.118773    12A     -1.006413
      13A     -0.863796    14A     -0.699594    15A     -0.664004
      16A     -0.592450    17A     -0.574046    18A     -0.548981
      19A     -0.545899    20A     -0.519314    21A     -0.505515
      22A     -0.445900    23A     -0.380023

  @DF-RHF Final Energy:  -568.55083119438757

   => Energetics <=

    Nuclear Repulsion Energy =            198.8605961331602714
    One-Electron Energy =               -1174.3504809158034732
    Two-Electron Energy =                 406.9390535882557174
    Total Energy =                       -568.5508311943874560
  Basis Set: (AUG-CC-PVTZ AUX)
    Blend: AUG-CC-PVTZ-RI
    Molecular point group: c1

    Geometry (in Angstrom), charge = 0, multiplicity = 1:

       Center              X                  Y                   Z               Mass
    ------------   -----------------  -----------------  -----------------  -----------------
         S            0.004468448312    -0.726239080208     0.000015371681    31.972071174400
         N            2.556816448312     0.612825219792    -0.000028928319    14.003074004430
         C           -1.091556551688     0.704645219792     0.000048071681    12.000000000000
         C           -2.532318551688     0.211070219792    -0.000040928319    12.000000000000
         C            1.506871448312     0.060940219792    -0.000010928319    12.000000000000
         H           -0.879840551688     1.302296219792     0.888682071681     1.007825032230
         H           -0.879723551688     1.302417219792    -0.888476928319     1.007825032230
         H           -2.746161551688    -0.389611780208    -0.887454928319     1.007825032230
         H           -2.746321551688    -0.389590780208     0.887351071681     1.007825032230
         H           -3.208212551688     1.069895219792    -0.000141928319     1.007825032230

  Basis Set: AUG-CC-PVTZ
    Blend: AUG-CC-PVTZ
  Basis Set: (AUG-CC-PVTZ AUX)
    Blend: AUG-CC-PVTZ-JKFIT
	 Reference Energy          =    -568.5508311943875697 [Eh]
	 Singles Energy            =      -0.0000000000000000 [Eh]
	 Same-Spin Energy          =      -0.2347824565990006 [Eh]
	 Opposite-Spin Energy      =      -0.7587583523328880 [Eh]
	 Correlation Energy        =      -0.9935408089318887 [Eh]
	 Total Energy              =    -569.5443720033194950 [Eh]

	 ================> DF-SCS-MP2 Energies <==================
	-----------------------------------------------------------
	 SCS Same-Spin Scale       =       0.3333333333333333 [-]
	 SCS Opposite-Spin Scale   =       1.2000000000000000 [-]
	 SCS Same-Spin Energy      =      -0.0782608188663335 [Eh]
	 SCS Opposite-Spin Energy  =      -0.9105100227994656 [Eh]
	 SCS Correlation Energy    =      -0.9887708416657991 [Eh]
	 SCS Total Energy          =    -569.5396020360533385 [Eh]
	-----------------------------------------------------------

  Dipole Moment: [D]
     X:    -4.5350      Y:     0.0039      Z:     0.0001     Total:     4.5350

*** Psi4 exiting successfully. Buy a developer a beer!
