                               Psi4 1.3.2 release

  ==> Input File <==

--------------------------------------------------------------------------
#psi4
#
memory 32 gb

molecule  {
0 1
  S        0.1264700    -0.7742460     0.0000110
  N        2.6648510     0.5909190    -0.0000260
  C       -0.8623197     0.5236478     0.0000466
  C       -2.4242840     0.1891640    -0.0000380
  C        1.6149060     0.0390340    -0.0000080
  H       -0.7718060     1.2803900     0.8886850
  H       -0.7716890     1.2805110    -0.8884740
  H       -2.6381270    -0.4115180    -0.8874520
  H       -2.6382870    -0.4114970     0.8873540
  H       -3.1001780     1.0479890    -0.0001390
units angstrom
no_reorient  #important for SAPT in psi4, default
symmetry c1  #important for SAPT in psi4, default
}

set PROPERTIES_ORIGIN ["COM"]
properties('MP2/aug-cc-pvtz', properties = ['dipole'])
--------------------------------------------------------------------------

    Molecular point group: c1
  Charge       = 0
  Multiplicity = 1
  Basis Set: AUG-CC-PVTZ
    Blend: AUG-CC-PVTZ
  Basis Set: (AUG-CC-PVTZ AUX)
    Blend: AUG-CC-PVTZ-JKFIT

    Orbital Energies [Eh]
    ---------------------

    Doubly Occupied:

       1A    -92.019110     2A    -15.594083     3A    -11.307188
       4A    -11.295175     5A    -11.258683     6A     -9.022414
       7A     -6.704027     8A     -6.702712     9A     -6.701292
      10A     -1.220888    11A     -1.141847    12A     -0.999075
      13A     -0.851629    14A     -0.717777    15A     -0.642317
      16A     -0.593244    17A     -0.576638    18A     -0.558923
      19A     -0.548200    20A     -0.495758    21A     -0.493334
      22A     -0.461419    23A     -0.375964

  @DF-RHF Final Energy:  -568.51315575776221

   => Energetics <=

    Nuclear Repulsion Energy =            201.0697757985607268
    One-Electron Energy =               -1178.6024695554397113
    Two-Electron Energy =                 409.0195379991168352
    Total Energy =                       -568.5131557577622061
  Basis Set: (AUG-CC-PVTZ AUX)
    Blend: AUG-CC-PVTZ-RI
    Molecular point group: c1

    Geometry (in Angstrom), charge = 0, multiplicity = 1:

       Center              X                  Y                   Z               Mass
    ------------   -----------------  -----------------  -----------------  -----------------
         S           -0.003411330505    -0.720809459637     0.000011360752    31.972071174400
         N            2.534969669495     0.644355540363    -0.000025639248    14.003074004430
         C           -0.992201030505     0.577084340363     0.000046960752    12.000000000000
         C           -2.554165330505     0.242600540363    -0.000037639248    12.000000000000
         C            1.485024669495     0.092470540363    -0.000007639248    12.000000000000
         H           -0.901687330505     1.333826540363     0.888685360752     1.007825032230
         H           -0.901570330505     1.333947540363    -0.888473639248     1.007825032230
         H           -2.768008330505    -0.358081459637    -0.887451639248     1.007825032230
         H           -2.768168330505    -0.358060459637     0.887354360752     1.007825032230
         H           -3.230059330505     1.101425540363    -0.000138639248     1.007825032230

  Basis Set: AUG-CC-PVTZ
    Blend: AUG-CC-PVTZ
  Basis Set: (AUG-CC-PVTZ AUX)
    Blend: AUG-CC-PVTZ-JKFIT
	 Reference Energy          =    -568.5131557577622061 [Eh]
	 Singles Energy            =      -0.0000000000000000 [Eh]
	 Same-Spin Energy          =      -0.2366860997117677 [Eh]
	 Opposite-Spin Energy      =      -0.7620699436337268 [Eh]
	 Correlation Energy        =      -0.9987560433454945 [Eh]
	 Total Energy              =    -569.5119118011076580 [Eh]

	 ================> DF-SCS-MP2 Energies <==================
	-----------------------------------------------------------
	 SCS Same-Spin Scale       =       0.3333333333333333 [-]
	 SCS Opposite-Spin Scale   =       1.2000000000000000 [-]
	 SCS Same-Spin Energy      =      -0.0788953665705892 [Eh]
	 SCS Opposite-Spin Energy  =      -0.9144839323604721 [Eh]
	 SCS Correlation Energy    =      -0.9933792989310614 [Eh]
	 SCS Total Energy          =    -569.5065350566932239 [Eh]
	-----------------------------------------------------------

  Dipole Moment: [D]
     X:    -4.2545      Y:    -0.1962      Z:     0.0000     Total:     4.2590

*** Psi4 exiting successfully. Buy a developer a beer!
