                               Psi4 1.3.2 release

  ==> Input File <==

--------------------------------------------------------------------------
#psi4
#
memory 32 gb

molecule  {
0 1
  S       -0.0319071    -0.8822902    -0.0000020
  N        2.6648510     0.5909190    -0.0000260
  C       -0.9835220     0.6827390     0.0000510
  C       -2.4242840     0.1891640    -0.0000380
  C        1.6149060     0.0390340    -0.0000080
  H       -0.7718060     1.2803900     0.8886850
  H       -0.7716890     1.2805110    -0.8884740
  H       -2.6381270    -0.4115180    -0.8874520
  H       -2.6382870    -0.4114970     0.8873540
  H       -3.1001780     1.0479890    -0.0001390
units angstrom
no_reorient  #important for SAPT in psi4, default
symmetry c1  #important for SAPT in psi4, default
}

set PROPERTIES_ORIGIN ["COM"]
properties('MP2/aug-cc-pvtz', properties = ['dipole'])
--------------------------------------------------------------------------

    Molecular point group: c1
  Charge       = 0
  Multiplicity = 1
  Basis Set: AUG-CC-PVTZ
    Blend: AUG-CC-PVTZ
  Basis Set: (AUG-CC-PVTZ AUX)
    Blend: AUG-CC-PVTZ-JKFIT

    Orbital Energies [Eh]
    ---------------------

    Doubly Occupied:

       1A    -92.032702     2A    -15.587101     3A    -11.307268
       4A    -11.296176     5A    -11.253000     6A     -9.028461
       7A     -6.709362     8A     -6.707848     9A     -6.706874
      10A     -1.206572    11A     -1.110856    12A     -0.980124
      13A     -0.853621    14A     -0.683623    15A     -0.663013
      16A     -0.595738    17A     -0.568467    18A     -0.544394
      19A     -0.526241    20A     -0.516990    21A     -0.489435
      22A     -0.453034    23A     -0.393085

  @DF-RHF Final Energy:  -568.53265044089335

   => Energetics <=

    Nuclear Repulsion Energy =            194.7830016649727156
    One-Electron Energy =               -1166.2033348550291976
    Two-Electron Energy =                 402.8876827491630479
    Total Energy =                       -568.5326504408933488
  Basis Set: (AUG-CC-PVTZ AUX)
    Blend: AUG-CC-PVTZ-RI
    Molecular point group: c1

    Geometry (in Angstrom), charge = 0, multiplicity = 1:

       Center              X                  Y                   Z               Mass
    ------------   -----------------  -----------------  -----------------  -----------------
         S           -0.086880355219    -0.811094475467     0.000002530608    31.972071174400
         N            2.609877744781     0.662114724533    -0.000021469392    14.003074004430
         C           -1.038495255219     0.753934724533     0.000055530608    12.000000000000
         C           -2.479257255219     0.260359724533    -0.000033469392    12.000000000000
         C            1.559932744781     0.110229724533    -0.000003469392    12.000000000000
         H           -0.826779255219     1.351585724533     0.888689530608     1.007825032230
         H           -0.826662255219     1.351706724533    -0.888469469392     1.007825032230
         H           -2.693100255219    -0.340322275467    -0.887447469392     1.007825032230
         H           -2.693260255219    -0.340301275467     0.887358530608     1.007825032230
         H           -3.155151255219     1.119184724533    -0.000134469392     1.007825032230

  Basis Set: AUG-CC-PVTZ
    Blend: AUG-CC-PVTZ
  Basis Set: (AUG-CC-PVTZ AUX)
    Blend: AUG-CC-PVTZ-JKFIT
	 Reference Energy          =    -568.5326504408933488 [Eh]
	 Singles Energy            =      -0.0000000000000000 [Eh]
	 Same-Spin Energy          =      -0.2332128359457495 [Eh]
	 Opposite-Spin Energy      =      -0.7605978960907800 [Eh]
	 Correlation Energy        =      -0.9938107320365295 [Eh]
	 Total Energy              =    -569.5264611729298849 [Eh]

	 ================> DF-SCS-MP2 Energies <==================
	-----------------------------------------------------------
	 SCS Same-Spin Scale       =       0.3333333333333333 [-]
	 SCS Opposite-Spin Scale   =       1.2000000000000000 [-]
	 SCS Same-Spin Energy      =      -0.0777376119819165 [Eh]
	 SCS Opposite-Spin Energy  =      -0.9127174753089360 [Eh]
	 SCS Correlation Energy    =      -0.9904550872908525 [Eh]
	 SCS Total Energy          =    -569.5231055281841464 [Eh]
	-----------------------------------------------------------

  Dipole Moment: [D]
     X:    -4.4835      Y:    -0.1116      Z:     0.0001     Total:     4.4849

*** Psi4 exiting successfully. Buy a developer a beer!
