                               Psi4 1.3.2 release

  ==> Input File <==

--------------------------------------------------------------------------
#psi4
#
memory 32 gb

molecule  {
0 1
  S        0.2196347    -0.9253747    -0.0000328
  N        2.6648510     0.5909190    -0.0000260
  C       -0.9835220     0.6827390     0.0000510
  C       -2.4242840     0.1891640    -0.0000380
  C        1.6149060     0.0390340    -0.0000080
  H       -0.7718060     1.2803900     0.8886850
  H       -0.7716890     1.2805110    -0.8884740
  H       -2.6381270    -0.4115180    -0.8874520
  H       -2.6382870    -0.4114970     0.8873540
  H       -3.1001780     1.0479890    -0.0001390
units angstrom
no_reorient  #important for SAPT in psi4, default
symmetry c1  #important for SAPT in psi4, default
}

set PROPERTIES_ORIGIN ["COM"]
properties('MP2/aug-cc-pvtz', properties = ['dipole'])
--------------------------------------------------------------------------

    Molecular point group: c1
  Charge       = 0
  Multiplicity = 1
  Basis Set: AUG-CC-PVTZ
    Blend: AUG-CC-PVTZ
  Basis Set: (AUG-CC-PVTZ AUX)
    Blend: AUG-CC-PVTZ-JKFIT

    Orbital Energies [Eh]
    ---------------------

    Doubly Occupied:

       1A    -92.017995     2A    -15.582986     3A    -11.312592
       4A    -11.301186     5A    -11.254571     6A     -9.015864
       7A     -6.697226     8A     -6.695464     9A     -6.694711
      10A     -1.209265    11A     -1.090719    12A     -1.007918
      13A     -0.863855    14A     -0.676892    15A     -0.659244
      16A     -0.596760    17A     -0.569140    18A     -0.544943
      19A     -0.543126    20A     -0.516596    21A     -0.506357
      22A     -0.429205    23A     -0.381313

  @DF-RHF Final Energy:  -568.54014672088067

   => Energetics <=

    Nuclear Repulsion Energy =            194.0485732613723258
    One-Electron Energy =               -1164.8415794084005483
    Two-Electron Energy =                 402.2528594261475519
    Total Energy =                       -568.5401467208806707
  Basis Set: (AUG-CC-PVTZ AUX)
    Blend: AUG-CC-PVTZ-RI
    Molecular point group: c1

    Geometry (in Angstrom), charge = 0, multiplicity = 1:

       Center              X                  Y                   Z               Mass
    ------------   -----------------  -----------------  -----------------  -----------------
         S            0.072236233358    -0.838348230749    -0.000016952400    31.972071174400
         N            2.517452533358     0.677945469251    -0.000010152400    14.003074004430
         C           -1.130920466642     0.769765469251     0.000066847600    12.000000000000
         C           -2.571682466642     0.276190469251    -0.000022152400    12.000000000000
         C            1.467507533358     0.126060469251     0.000007847600    12.000000000000
         H           -0.919204466642     1.367416469251     0.888700847600     1.007825032230
         H           -0.919087466642     1.367537469251    -0.888458152400     1.007825032230
         H           -2.785525466642    -0.324491530749    -0.887436152400     1.007825032230
         H           -2.785685466642    -0.324470530749     0.887369847600     1.007825032230
         H           -3.247576466642     1.135015469251    -0.000123152400     1.007825032230

  Basis Set: AUG-CC-PVTZ
    Blend: AUG-CC-PVTZ
  Basis Set: (AUG-CC-PVTZ AUX)
    Blend: AUG-CC-PVTZ-JKFIT
	 Reference Energy          =    -568.5401467208806707 [Eh]
	 Singles Energy            =      -0.0000000000000000 [Eh]
	 Same-Spin Energy          =      -0.2338313219709683 [Eh]
	 Opposite-Spin Energy      =      -0.7596990269986781 [Eh]
	 Correlation Energy        =      -0.9935303489696463 [Eh]
	 Total Energy              =    -569.5336770698503415 [Eh]

	 ================> DF-SCS-MP2 Energies <==================
	-----------------------------------------------------------
	 SCS Same-Spin Scale       =       0.3333333333333333 [-]
	 SCS Opposite-Spin Scale   =       1.2000000000000000 [-]
	 SCS Same-Spin Energy      =      -0.0779437739903228 [Eh]
	 SCS Opposite-Spin Energy  =      -0.9116388323984137 [Eh]
	 SCS Correlation Energy    =      -0.9895826063887365 [Eh]
	 SCS Total Energy          =    -569.5297293272693651 [Eh]
	-----------------------------------------------------------

  Dipole Moment: [D]
     X:    -4.6657      Y:    -0.1249      Z:     0.0000     Total:     4.6673

*** Psi4 exiting successfully. Buy a developer a beer!
