                               Psi4 1.4a3.dev225

  ==> Input File <==

--------------------------------------------------------------------------
#psi4
#
memory 32 gb

molecule  {
0 1
  S        0.1265690    -0.7744540    -0.0000030
  N        2.6645760     0.5912410     0.0000080
  C       -1.0138115     0.7224228    -0.0000143
  C       -2.4242400     0.1893500     0.0000110
  C        1.6148630     0.0390430     0.0000020
  H       -0.7715750     1.2803170     0.8885550
  H       -0.7715930     1.2802920    -0.8886040
  H       -2.6383020    -0.4113120    -0.8873620
  H       -2.6382940    -0.4112530     0.8874280
  H       -3.1000420     1.0482750    -0.0000140
units angstrom
no_reorient  #important for SAPT in psi4, default
symmetry c1  #important for SAPT in psi4, default
}

set PROPERTIES_ORIGIN ["COM"]
properties('MP2/aug-cc-pvtz', properties = ['dipole'])
--------------------------------------------------------------------------

    Molecular point group: c1
  Charge       = 0
  Multiplicity = 1
  Basis Set: AUG-CC-PVTZ
    Blend: AUG-CC-PVTZ
  Basis Set: (AUG-CC-PVTZ AUX)
    Blend: AUG-CC-PVTZ-JKFIT

    Orbital Energies [Eh]
    ---------------------

    Doubly Occupied:

       1A    -92.012972     2A    -15.586282     3A    -11.302634
       4A    -11.298738     5A    -11.254451     6A     -9.012509
       7A     -6.694001     8A     -6.692265     9A     -6.691478
      10A     -1.211934    11A     -1.110645    12A     -1.007432
      13A     -0.867252    14A     -0.690722    15A     -0.669607
      16A     -0.593537    17A     -0.578146    18A     -0.550006
      19A     -0.542868    20A     -0.518153    21A     -0.506861
      22A     -0.437152    23A     -0.379782

  @DF-RHF Final Energy:  -568.55024374769937

   => Energetics <=

    Nuclear Repulsion Energy =            197.4725495743686565
    One-Electron Energy =               -1171.6267339292082852
    Two-Electron Energy =                 405.6039406071401459
    Total Energy =                       -568.5502437476993691
  Basis Set: (AUG-CC-PVTZ AUX)
    Blend: AUG-CC-PVTZ-RI
    Molecular point group: c1

    Geometry (in Angstrom), charge = 0, multiplicity = 1:

       Center              X                  Y                   Z               Mass
    ------------   -----------------  -----------------  -----------------  -----------------
         S            0.017584150088    -0.748437631799    -0.000003040589    31.972071174400
         N            2.555591150088     0.617257368201     0.000007959411    14.003074004430
         C           -1.122796349912     0.748439168201    -0.000014340589    12.000000000000
         C           -2.533224849912     0.215366368201     0.000010959411    12.000000000000
         C            1.505878150088     0.065059368201     0.000001959411    12.000000000000
         H           -0.880559849912     1.306333368201     0.888554959411     1.007825032230
         H           -0.880577849912     1.306308368201    -0.888604040589     1.007825032230
         H           -2.747286849912    -0.385295631799    -0.887362040589     1.007825032230
         H           -2.747278849912    -0.385236631799     0.887427959411     1.007825032230
         H           -3.209026849912     1.074291368201    -0.000014040589     1.007825032230

  Basis Set: AUG-CC-PVTZ
    Blend: AUG-CC-PVTZ
  Basis Set: (AUG-CC-PVTZ AUX)
    Blend: AUG-CC-PVTZ-JKFIT
	 Reference Energy          =    -568.5502437476993691 [Eh]
	 Singles Energy            =      -0.0000000000000000 [Eh]
	 Same-Spin Energy          =      -0.2344694027704678 [Eh]
	 Opposite-Spin Energy      =      -0.7585769407940992 [Eh]
	 Correlation Energy        =      -0.9930463435645670 [Eh]
	 Total Energy              =    -569.5432900912638843 [Eh]

	 ================> DF-SCS-MP2 Energies <==================
	-----------------------------------------------------------
	 SCS Same-Spin Scale       =       0.3333333333333333 [-]
	 SCS Opposite-Spin Scale   =       1.2000000000000000 [-]
	 SCS Same-Spin Energy      =      -0.0781564675901559 [Eh]
	 SCS Opposite-Spin Energy  =      -0.9102923289529190 [Eh]
	 SCS Correlation Energy    =      -0.9884487965430749 [Eh]
	 SCS Total Energy          =    -569.5386925442423944 [Eh]
	-----------------------------------------------------------

  Dipole Moment: [D]
     X:    -4.6599      Y:     0.0333      Z:    -0.0000     Total:     4.6600

*** Psi4 exiting successfully. Buy a developer a beer!
