                               Psi4 1.3.2 release

  ==> Input File <==

--------------------------------------------------------------------------
#psi4
#
memory 32 gb

molecule  {
0 1
  S        0.1264700    -0.7742460     0.0000110
  N        2.6648510     0.5909190    -0.0000260
  C       -0.9319978     0.7205896     0.0000505
  C       -2.4242840     0.1891640    -0.0000380
  C        1.6149060     0.0390340    -0.0000080
  H       -0.7718060     1.2803900     0.8886850
  H       -0.7716890     1.2805110    -0.8884740
  H       -2.6381270    -0.4115180    -0.8874520
  H       -2.6382870    -0.4114970     0.8873540
  H       -3.1001780     1.0479890    -0.0001390
units angstrom
no_reorient  #important for SAPT in psi4, default
symmetry c1  #important for SAPT in psi4, default
}

set PROPERTIES_ORIGIN ["COM"]
properties('MP2/aug-cc-pvtz', properties = ['dipole'])
--------------------------------------------------------------------------

    Molecular point group: c1
  Charge       = 0
  Multiplicity = 1
  Basis Set: AUG-CC-PVTZ
    Blend: AUG-CC-PVTZ
  Basis Set: (AUG-CC-PVTZ AUX)
    Blend: AUG-CC-PVTZ-JKFIT

    Orbital Energies [Eh]
    ---------------------

    Doubly Occupied:

       1A    -92.016708     2A    -15.587058     3A    -11.302961
       4A    -11.294034     5A    -11.256374     6A     -9.016454
       7A     -6.697953     8A     -6.696247     9A     -6.695395
      10A     -1.213097    11A     -1.109561    12A     -0.999835
      13A     -0.869907    14A     -0.693939    15A     -0.668709
      16A     -0.590614    17A     -0.562979    18A     -0.554323
      19A     -0.538654    20A     -0.519658    21A     -0.508253
      22A     -0.443988    23A     -0.382007

  @DF-RHF Final Energy:  -568.54772119538245

   => Energetics <=

    Nuclear Repulsion Energy =            197.8949339744745828
    One-Electron Energy =               -1172.4478936246237026
    Two-Electron Energy =                 406.0052384547666975
    Total Energy =                       -568.5477211953823371
  Basis Set: (AUG-CC-PVTZ AUX)
    Blend: AUG-CC-PVTZ-RI
    Molecular point group: c1

    Geometry (in Angstrom), charge = 0, multiplicity = 1:

       Center              X                  Y                   Z               Mass
    ------------   -----------------  -----------------  -----------------  -----------------
         S            0.006197865742    -0.747969390884     0.000010822909    31.972071174400
         N            2.544578865742     0.617195609116    -0.000026177091    14.003074004430
         C           -1.052269934258     0.746866209116     0.000050322909    12.000000000000
         C           -2.544556134258     0.215440609116    -0.000038177091    12.000000000000
         C            1.494633865742     0.065310609116    -0.000008177091    12.000000000000
         H           -0.892078134258     1.306666609116     0.888684822909     1.007825032230
         H           -0.891961134258     1.306787609116    -0.888474177091     1.007825032230
         H           -2.758399134258    -0.385241390884    -0.887452177091     1.007825032230
         H           -2.758559134258    -0.385220390884     0.887353822909     1.007825032230
         H           -3.220450134258     1.074265609116    -0.000139177091     1.007825032230

  Basis Set: AUG-CC-PVTZ
    Blend: AUG-CC-PVTZ
  Basis Set: (AUG-CC-PVTZ AUX)
    Blend: AUG-CC-PVTZ-JKFIT
	 Reference Energy          =    -568.5477211953824508 [Eh]
	 Singles Energy            =      -0.0000000000000000 [Eh]
	 Same-Spin Energy          =      -0.2344200039207360 [Eh]
	 Opposite-Spin Energy      =      -0.7589421155556773 [Eh]
	 Correlation Energy        =      -0.9933621194764133 [Eh]
	 Total Energy              =    -569.5410833148588381 [Eh]

	 ================> DF-SCS-MP2 Energies <==================
	-----------------------------------------------------------
	 SCS Same-Spin Scale       =       0.3333333333333333 [-]
	 SCS Opposite-Spin Scale   =       1.2000000000000000 [-]
	 SCS Same-Spin Energy      =      -0.0781400013069120 [Eh]
	 SCS Opposite-Spin Energy  =      -0.9107305386668126 [Eh]
	 SCS Correlation Energy    =      -0.9888705399737246 [Eh]
	 SCS Total Energy          =    -569.5365917353561827 [Eh]
	-----------------------------------------------------------

  Dipole Moment: [D]
     X:    -4.5266      Y:    -0.0603      Z:     0.0001     Total:     4.5270

*** Psi4 exiting successfully. Buy a developer a beer!
