                               Psi4 1.3.2 release

  ==> Input File <==

--------------------------------------------------------------------------
#psi4
#
memory 32 gb

molecule  {
0 1
  S        0.1008730    -0.7933961     0.0000088
  N        2.6648510     0.5909190    -0.0000260
  C       -0.9835220     0.6827390     0.0000510
  C       -2.4242840     0.1891640    -0.0000380
  C        1.6149060     0.0390340    -0.0000080
  H       -0.7718060     1.2803900     0.8886850
  H       -0.7716890     1.2805110    -0.8884740
  H       -2.6381270    -0.4115180    -0.8874520
  H       -2.6382870    -0.4114970     0.8873540
  H       -3.1001780     1.0479890    -0.0001390
units angstrom
no_reorient  #important for SAPT in psi4, default
symmetry c1  #important for SAPT in psi4, default
}

set PROPERTIES_ORIGIN ["COM"]
properties('MP2/aug-cc-pvtz', properties = ['dipole'])
--------------------------------------------------------------------------

    Molecular point group: c1
  Charge       = 0
  Multiplicity = 1
  Basis Set: AUG-CC-PVTZ
    Blend: AUG-CC-PVTZ
  Basis Set: (AUG-CC-PVTZ AUX)
    Blend: AUG-CC-PVTZ-JKFIT

    Orbital Energies [Eh]
    ---------------------

    Doubly Occupied:

       1A    -92.018486     2A    -15.588671     3A    -11.305360
       4A    -11.296189     5A    -11.253679     6A     -9.017497
       7A     -6.698885     8A     -6.697297     9A     -6.696411
      10A     -1.212726    11A     -1.112665    12A     -1.001708
      13A     -0.861249    14A     -0.694615    15A     -0.662559
      16A     -0.593443    17A     -0.571847    18A     -0.547084
      19A     -0.542401    20A     -0.518952    21A     -0.502951
      22A     -0.446336    23A     -0.382781

  @DF-RHF Final Energy:  -568.55036423170293

   => Energetics <=

    Nuclear Repulsion Energy =            197.5061852097183532
    One-Electron Energy =               -1171.6655101590210961
    Two-Electron Energy =                 405.6089607175998708
    Total Energy =                       -568.5503642317029289
  Basis Set: (AUG-CC-PVTZ AUX)
    Blend: AUG-CC-PVTZ-RI
    Molecular point group: c1

    Geometry (in Angstrom), charge = 0, multiplicity = 1:

       Center              X                  Y                   Z               Mass
    ------------   -----------------  -----------------  -----------------  -----------------
         S           -0.002888284943    -0.754863161480     0.000009362312    31.972071174400
         N            2.561089715057     0.629451938520    -0.000025437688    14.003074004430
         C           -1.087283284943     0.721271938520     0.000051562312    12.000000000000
         C           -2.528045284943     0.227696938520    -0.000037437688    12.000000000000
         C            1.511144715057     0.077566938520    -0.000007437688    12.000000000000
         H           -0.875567284943     1.318922938520     0.888685562312     1.007825032230
         H           -0.875450284943     1.319043938520    -0.888473437688     1.007825032230
         H           -2.741888284943    -0.372985061480    -0.887451437688     1.007825032230
         H           -2.742048284943    -0.372964061480     0.887354562312     1.007825032230
         H           -3.203939284943     1.086521938520    -0.000138437688     1.007825032230

  Basis Set: AUG-CC-PVTZ
    Blend: AUG-CC-PVTZ
  Basis Set: (AUG-CC-PVTZ AUX)
    Blend: AUG-CC-PVTZ-JKFIT
	 Reference Energy          =    -568.5503642317029289 [Eh]
	 Singles Energy            =      -0.0000000000000000 [Eh]
	 Same-Spin Energy          =      -0.2342651631076278 [Eh]
	 Opposite-Spin Energy      =      -0.7589470658811476 [Eh]
	 Correlation Energy        =      -0.9932122289887754 [Eh]
	 Total Energy              =    -569.5435764606917246 [Eh]

	 ================> DF-SCS-MP2 Energies <==================
	-----------------------------------------------------------
	 SCS Same-Spin Scale       =       0.3333333333333333 [-]
	 SCS Opposite-Spin Scale   =       1.2000000000000000 [-]
	 SCS Same-Spin Energy      =      -0.0780883877025426 [Eh]
	 SCS Opposite-Spin Energy  =      -0.9107364790573771 [Eh]
	 SCS Correlation Energy    =      -0.9888248667599197 [Eh]
	 SCS Total Energy          =    -569.5391890984628844 [Eh]
	-----------------------------------------------------------

  Dipole Moment: [D]
     X:    -4.5191      Y:    -0.0368      Z:     0.0001     Total:     4.5193

*** Psi4 exiting successfully. Buy a developer a beer!
