                               Psi4 1.3.2 release

  ==> Input File <==

--------------------------------------------------------------------------
#psi4
#
memory 32 gb

molecule  {
0 1
  S        0.2726858    -0.6502387     0.0000244
  N        2.6648510     0.5909190    -0.0000260
  C       -0.9835220     0.6827390     0.0000510
  C       -2.4242840     0.1891640    -0.0000380
  C        1.6149060     0.0390340    -0.0000080
  H       -0.7718060     1.2803900     0.8886850
  H       -0.7716890     1.2805110    -0.8884740
  H       -2.6381270    -0.4115180    -0.8874520
  H       -2.6382870    -0.4114970     0.8873540
  H       -3.1001780     1.0479890    -0.0001390
units angstrom
no_reorient  #important for SAPT in psi4, default
symmetry c1  #important for SAPT in psi4, default
}

set PROPERTIES_ORIGIN ["COM"]
properties('MP2/aug-cc-pvtz', properties = ['dipole'])
--------------------------------------------------------------------------

    Molecular point group: c1
  Charge       = 0
  Multiplicity = 1
  Basis Set: AUG-CC-PVTZ
    Blend: AUG-CC-PVTZ
  Basis Set: (AUG-CC-PVTZ AUX)
    Blend: AUG-CC-PVTZ-JKFIT

    Orbital Energies [Eh]
    ---------------------

    Doubly Occupied:

       1A    -91.997930     2A    -15.582900     3A    -11.298213
       4A    -11.289681     5A    -11.257194     6A     -9.005419
       7A     -6.688079     8A     -6.685093     9A     -6.684494
      10A     -1.224006    11A     -1.125713    12A     -1.036869
      13A     -0.878693    14A     -0.701447    15A     -0.665207
      16A     -0.591356    17A     -0.582493    18A     -0.558911
      19A     -0.555084    20A     -0.526820    21A     -0.522247
      22A     -0.423454    23A     -0.368110

  @DF-RHF Final Energy:  -568.52268820977019

   => Energetics <=

    Nuclear Repulsion Energy =            202.4778394146540279
    One-Electron Energy =               -1181.5022289578298569
    Two-Electron Energy =                 410.5017013334056628
    Total Energy =                       -568.5226882097701946
  Basis Set: (AUG-CC-PVTZ AUX)
    Blend: AUG-CC-PVTZ-RI
    Molecular point group: c1

    Geometry (in Angstrom), charge = 0, multiplicity = 1:

       Center              X                  Y                   Z               Mass
    ------------   -----------------  -----------------  -----------------  -----------------
         S            0.105794512946    -0.664306772372     0.000019230329    31.972071174400
         N            2.497959712946     0.576850927628    -0.000031169671    14.003074004430
         C           -1.150413287054     0.668670927628     0.000045830329    12.000000000000
         C           -2.591175287054     0.175095927628    -0.000043169671    12.000000000000
         C            1.448014712946     0.024965927628    -0.000013169671    12.000000000000
         H           -0.938697287054     1.266321927628     0.888679830329     1.007825032230
         H           -0.938580287054     1.266442927628    -0.888479169671     1.007825032230
         H           -2.805018287054    -0.425586072372    -0.887457169671     1.007825032230
         H           -2.805178287054    -0.425565072372     0.887348830329     1.007825032230
         H           -3.267069287054     1.033920927628    -0.000144169671     1.007825032230

  Basis Set: AUG-CC-PVTZ
    Blend: AUG-CC-PVTZ
  Basis Set: (AUG-CC-PVTZ AUX)
    Blend: AUG-CC-PVTZ-JKFIT
	 Reference Energy          =    -568.5226882097701946 [Eh]
	 Singles Energy            =      -0.0000000000000000 [Eh]
	 Same-Spin Energy          =      -0.2372783233701660 [Eh]
	 Opposite-Spin Energy      =      -0.7593126559120719 [Eh]
	 Correlation Energy        =      -0.9965909792822378 [Eh]
	 Total Energy              =    -569.5192791890524404 [Eh]

	 ================> DF-SCS-MP2 Energies <==================
	-----------------------------------------------------------
	 SCS Same-Spin Scale       =       0.3333333333333333 [-]
	 SCS Opposite-Spin Scale   =       1.2000000000000000 [-]
	 SCS Same-Spin Energy      =      -0.0790927744567220 [Eh]
	 SCS Opposite-Spin Energy  =      -0.9111751870944862 [Eh]
	 SCS Correlation Energy    =      -0.9902679615512082 [Eh]
	 SCS Total Energy          =    -569.5129561713214343 [Eh]
	-----------------------------------------------------------

  Dipole Moment: [D]
     X:    -4.8287      Y:     0.0491      Z:     0.0001     Total:     4.8290

*** Psi4 exiting successfully. Buy a developer a beer!
