                               Psi4 1.3.2 release

  ==> Input File <==

--------------------------------------------------------------------------
#psi4
#
memory 32 gb

molecule  {
0 1
  S        0.1264700    -0.7742460     0.0000110
  N        2.6648510     0.5909190    -0.0000260
  C       -0.9835220     0.6827390     0.0000510
  C       -2.4242840     0.1891640    -0.0000380
  C        1.6149060     0.0390340    -0.0000080
  H       -0.7718060     1.2803900     0.8886850
  H       -0.7716890     1.2805110    -0.8884740
  H       -2.6381270    -0.4115180    -0.8874520
  H       -2.6382870    -0.4114970     0.8873540
  H       -3.1001780     1.0479890    -0.0001390
units angstrom
no_reorient  #important for SAPT in psi4, default
symmetry c1  #important for SAPT in psi4, default
}

set PROPERTIES_ORIGIN ["COM"]
properties('MP2/aug-cc-pvtz', properties = ['dipole'])
--------------------------------------------------------------------------

    Molecular point group: c1
  Charge       = 0
  Multiplicity = 1
  Basis Set: AUG-CC-PVTZ
    Blend: AUG-CC-PVTZ
  Basis Set: (AUG-CC-PVTZ AUX)
    Blend: AUG-CC-PVTZ-JKFIT

    Orbital Energies [Eh]
    ---------------------

    Doubly Occupied:

       1A    -92.015630     2A    -15.588415     3A    -11.304073
       4A    -11.296380     5A    -11.254030     6A     -9.015524
       7A     -6.697042     8A     -6.695375     9A     -6.694515
      10A     -1.213917    11A     -1.113784    12A     -1.006703
      13A     -0.863423    14A     -0.696232    15A     -0.662721
      16A     -0.593002    17A     -0.572850    18A     -0.548082
      19A     -0.545136    20A     -0.519641    21A     -0.505745
      22A     -0.444031    23A     -0.380692

  @DF-RHF Final Energy:  -568.55109757192338

   => Energetics <=

    Nuclear Repulsion Energy =            198.1298823786435435
    One-Electron Energy =               -1172.9080781157965703
    Two-Electron Energy =                 406.2270981652296769
    Total Energy =                       -568.5510975719233784
  Basis Set: (AUG-CC-PVTZ AUX)
    Blend: AUG-CC-PVTZ-RI
    Molecular point group: c1

    Geometry (in Angstrom), charge = 0, multiplicity = 1:

       Center              X                  Y                   Z               Mass
    ------------   -----------------  -----------------  -----------------  -----------------
         S            0.013303486436    -0.742749474677     0.000010753955    31.972071174400
         N            2.551684486436     0.622415525323    -0.000026246045    14.003074004430
         C           -1.096688513564     0.714235525323     0.000050753955    12.000000000000
         C           -2.537450513564     0.220660525323    -0.000038246045    12.000000000000
         C            1.501739486436     0.070530525323    -0.000008246045    12.000000000000
         H           -0.884972513564     1.311886525323     0.888684753955     1.007825032230
         H           -0.884855513564     1.312007525323    -0.888474246045     1.007825032230
         H           -2.751293513564    -0.380021474677    -0.887452246045     1.007825032230
         H           -2.751453513564    -0.380000474677     0.887353753955     1.007825032230
         H           -3.213344513564     1.079485525323    -0.000139246045     1.007825032230

  Basis Set: AUG-CC-PVTZ
    Blend: AUG-CC-PVTZ
  Basis Set: (AUG-CC-PVTZ AUX)
    Blend: AUG-CC-PVTZ-JKFIT
	 Reference Energy          =    -568.5510975719233784 [Eh]
	 Singles Energy            =      -0.0000000000000000 [Eh]
	 Same-Spin Energy          =      -0.2345863194618270 [Eh]
	 Opposite-Spin Energy      =      -0.7587923193210859 [Eh]
	 Correlation Energy        =      -0.9933786387829129 [Eh]
	 Total Energy              =    -569.5444762107063070 [Eh]

	 ================> DF-SCS-MP2 Energies <==================
	-----------------------------------------------------------
	 SCS Same-Spin Scale       =       0.3333333333333333 [-]
	 SCS Opposite-Spin Scale   =       1.2000000000000000 [-]
	 SCS Same-Spin Energy      =      -0.0781954398206090 [Eh]
	 SCS Opposite-Spin Energy  =      -0.9105507831853030 [Eh]
	 SCS Correlation Energy    =      -0.9887462230059121 [Eh]
	 SCS Total Energy          =    -569.5398437949293111 [Eh]
	-----------------------------------------------------------

  Dipole Moment: [D]
     X:    -4.5445      Y:    -0.0223      Z:     0.0001     Total:     4.5445

*** Psi4 exiting successfully. Buy a developer a beer!
