                               Psi4 1.3.2 release

  ==> Input File <==

--------------------------------------------------------------------------
#psi4
#
memory 32 gb

molecule  {
0 1
  S        0.1264700    -0.7742460     0.0000110
  N        2.6648510     0.5909190    -0.0000260
  C       -1.0824523     0.6017607     0.0000519
  C       -2.4242840     0.1891640    -0.0000380
  C        1.6149060     0.0390340    -0.0000080
  H       -0.7718060     1.2803900     0.8886850
  H       -0.7716890     1.2805110    -0.8884740
  H       -2.6381270    -0.4115180    -0.8874520
  H       -2.6382870    -0.4114970     0.8873540
  H       -3.1001780     1.0479890    -0.0001390
units angstrom
no_reorient  #important for SAPT in psi4, default
symmetry c1  #important for SAPT in psi4, default
}

set PROPERTIES_ORIGIN ["COM"]
properties('MP2/aug-cc-pvtz', properties = ['dipole'])
--------------------------------------------------------------------------

    Molecular point group: c1
  Charge       = 0
  Multiplicity = 1
  Basis Set: AUG-CC-PVTZ
    Blend: AUG-CC-PVTZ
  Basis Set: (AUG-CC-PVTZ AUX)
    Blend: AUG-CC-PVTZ-JKFIT

    Orbital Energies [Eh]
    ---------------------

    Doubly Occupied:

       1A    -92.014560     2A    -15.591248     3A    -11.306597
       4A    -11.303248     5A    -11.248736     6A     -9.014608
       7A     -6.696148     8A     -6.694589     9A     -6.693694
      10A     -1.215808    11A     -1.128196    12A     -1.021324
      13A     -0.849133    14A     -0.701016    15A     -0.658455
      16A     -0.607245    17A     -0.595649    18A     -0.552409
      19A     -0.536052    20A     -0.512023    21A     -0.494165
      22A     -0.441891    23A     -0.377138

  @DF-RHF Final Energy:  -568.53229406248568

   => Energetics <=

    Nuclear Repulsion Energy =            198.7068480788110207
    One-Electron Energy =               -1173.9704233857198687
    Two-Electron Energy =                 406.7312812444232577
    Total Energy =                       -568.5322940624855619
  Basis Set: (AUG-CC-PVTZ AUX)
    Blend: AUG-CC-PVTZ-RI
    Molecular point group: c1

    Geometry (in Angstrom), charge = 0, multiplicity = 1:

       Center              X                  Y                   Z               Mass
    ------------   -----------------  -----------------  -----------------  -----------------
         S            0.026946807185    -0.731581885773     0.000010629838    31.972071174400
         N            2.565327807185     0.633583114227    -0.000026370162    14.003074004430
         C           -1.181975492815     0.644424814227     0.000051529838    12.000000000000
         C           -2.523807192815     0.231828114227    -0.000038370162    12.000000000000
         C            1.515382807185     0.081698114227    -0.000008370162    12.000000000000
         H           -0.871329192815     1.323054114227     0.888684629838     1.007825032230
         H           -0.871212192815     1.323175114227    -0.888474370162     1.007825032230
         H           -2.737650192815    -0.368853885773    -0.887452370162     1.007825032230
         H           -2.737810192815    -0.368832885773     0.887353629838     1.007825032230
         H           -3.199701192815     1.090653114227    -0.000139370162     1.007825032230

  Basis Set: AUG-CC-PVTZ
    Blend: AUG-CC-PVTZ
  Basis Set: (AUG-CC-PVTZ AUX)
    Blend: AUG-CC-PVTZ-JKFIT
	 Reference Energy          =    -568.5322940624856756 [Eh]
	 Singles Energy            =      -0.0000000000000000 [Eh]
	 Same-Spin Energy          =      -0.2357839233764452 [Eh]
	 Opposite-Spin Energy      =      -0.7601798037505949 [Eh]
	 Correlation Energy        =      -0.9959637271270401 [Eh]
	 Total Energy              =    -569.5282577896126668 [Eh]

	 ================> DF-SCS-MP2 Energies <==================
	-----------------------------------------------------------
	 SCS Same-Spin Scale       =       0.3333333333333333 [-]
	 SCS Opposite-Spin Scale   =       1.2000000000000000 [-]
	 SCS Same-Spin Energy      =      -0.0785946411254817 [Eh]
	 SCS Opposite-Spin Energy  =      -0.9122157645007138 [Eh]
	 SCS Correlation Energy    =      -0.9908104056261956 [Eh]
	 SCS Total Energy          =    -569.5231044681119101 [Eh]
	-----------------------------------------------------------

  Dipole Moment: [D]
     X:    -4.6008      Y:     0.0335      Z:     0.0001     Total:     4.6009

*** Psi4 exiting successfully. Buy a developer a beer!
