                               Psi4 1.3.2 release

  ==> Input File <==

--------------------------------------------------------------------------
#psi4
#
memory 32 gb

molecule  {
0 1
  S        0.1868273    -0.8760929    -0.0000182
  N        2.6648510     0.5909190    -0.0000260
  C       -0.9835220     0.6827390     0.0000510
  C       -2.4242840     0.1891640    -0.0000380
  C        1.6149060     0.0390340    -0.0000080
  H       -0.7718060     1.2803900     0.8886850
  H       -0.7716890     1.2805110    -0.8884740
  H       -2.6381270    -0.4115180    -0.8874520
  H       -2.6382870    -0.4114970     0.8873540
  H       -3.1001780     1.0479890    -0.0001390
units angstrom
no_reorient  #important for SAPT in psi4, default
symmetry c1  #important for SAPT in psi4, default
}

set PROPERTIES_ORIGIN ["COM"]
properties('MP2/aug-cc-pvtz', properties = ['dipole'])
--------------------------------------------------------------------------

    Molecular point group: c1
  Charge       = 0
  Multiplicity = 1
  Basis Set: AUG-CC-PVTZ
    Blend: AUG-CC-PVTZ
  Basis Set: (AUG-CC-PVTZ AUX)
    Blend: AUG-CC-PVTZ-JKFIT

    Orbital Energies [Eh]
    ---------------------

    Doubly Occupied:

       1A    -92.017881     2A    -15.584928     3A    -11.307046
       4A    -11.302301     5A    -11.254017     6A     -9.016266
       7A     -6.697684     8A     -6.695932     9A     -6.695168
      10A     -1.210844    11A     -1.097124    12A     -1.007696
      13A     -0.863224    14A     -0.683099    15A     -0.659665
      16A     -0.595424    17A     -0.569744    18A     -0.545544
      19A     -0.543488    20A     -0.518354    21A     -0.506341
      22A     -0.434736    23A     -0.381688

  @DF-RHF Final Energy:  -568.54570405217805

   => Energetics <=

    Nuclear Repulsion Energy =            195.3520666770347987
    One-Electron Energy =               -1167.4191549254085203
    Two-Electron Energy =                 403.5213841961955836
    Total Energy =                       -568.5457040521780527
  Basis Set: (AUG-CC-PVTZ AUX)
    Blend: AUG-CC-PVTZ-RI
    Molecular point group: c1

    Geometry (in Angstrom), charge = 0, multiplicity = 1:

       Center              X                  Y                   Z               Mass
    ------------   -----------------  -----------------  -----------------  -----------------
         S            0.051483413874    -0.807174279164    -0.000007716949    31.972071174400
         N            2.529507113874     0.659837620836    -0.000015516949    14.003074004430
         C           -1.118865886126     0.751657620836     0.000061483051    12.000000000000
         C           -2.559627886126     0.258082620836    -0.000027516949    12.000000000000
         C            1.479562113874     0.107952620836     0.000002483051    12.000000000000
         H           -0.907149886126     1.349308620836     0.888695483051     1.007825032230
         H           -0.907032886126     1.349429620836    -0.888463516949     1.007825032230
         H           -2.773470886126    -0.342599379164    -0.887441516949     1.007825032230
         H           -2.773630886126    -0.342578379164     0.887364483051     1.007825032230
         H           -3.235521886126     1.116907620836    -0.000128516949     1.007825032230

  Basis Set: AUG-CC-PVTZ
    Blend: AUG-CC-PVTZ
  Basis Set: (AUG-CC-PVTZ AUX)
    Blend: AUG-CC-PVTZ-JKFIT
	 Reference Energy          =    -568.5457040521780527 [Eh]
	 Singles Energy            =      -0.0000000000000000 [Eh]
	 Same-Spin Energy          =      -0.2340130248637100 [Eh]
	 Opposite-Spin Energy      =      -0.7592827190144206 [Eh]
	 Correlation Energy        =      -0.9932957438781306 [Eh]
	 Total Energy              =    -569.5389997960561459 [Eh]

	 ================> DF-SCS-MP2 Energies <==================
	-----------------------------------------------------------
	 SCS Same-Spin Scale       =       0.3333333333333333 [-]
	 SCS Opposite-Spin Scale   =       1.2000000000000000 [-]
	 SCS Same-Spin Energy      =      -0.0780043416212367 [Eh]
	 SCS Opposite-Spin Energy  =      -0.9111392628173046 [Eh]
	 SCS Correlation Energy    =      -0.9891436044385413 [Eh]
	 SCS Total Energy          =    -569.5348476566166482 [Eh]
	-----------------------------------------------------------

  Dipole Moment: [D]
     X:    -4.6149      Y:    -0.1005      Z:     0.0001     Total:     4.6160

*** Psi4 exiting successfully. Buy a developer a beer!
