                               Psi4 1.3.2 release

  ==> Input File <==

--------------------------------------------------------------------------
#psi4
#
memory 32 gb

molecule  {
0 1
  S        0.0716609    -0.8103898    -0.1096898
  N        2.6648510     0.5909190    -0.0000260
  C       -0.9835220     0.6827390     0.0000510
  C       -2.4242840     0.1891640    -0.0000380
  C        1.6149060     0.0390340    -0.0000080
  H       -0.7718060     1.2803900     0.8886850
  H       -0.7716890     1.2805110    -0.8884740
  H       -2.6381270    -0.4115180    -0.8874520
  H       -2.6382870    -0.4114970     0.8873540
  H       -3.1001780     1.0479890    -0.0001390
units angstrom
no_reorient  #important for SAPT in psi4, default
symmetry c1  #important for SAPT in psi4, default
}

set PROPERTIES_ORIGIN ["COM"]
properties('MP2/aug-cc-pvtz', properties = ['dipole'])
--------------------------------------------------------------------------

    Molecular point group: c1
  Charge       = 0
  Multiplicity = 1
  Basis Set: AUG-CC-PVTZ
    Blend: AUG-CC-PVTZ
  Basis Set: (AUG-CC-PVTZ AUX)
    Blend: AUG-CC-PVTZ-JKFIT

    Orbital Energies [Eh]
    ---------------------

    Doubly Occupied:

       1A    -92.021781     2A    -15.588792     3A    -11.306464
       4A    -11.295965     5A    -11.253352     6A     -9.019871
       7A     -6.701120     8A     -6.699593     9A     -6.698677
      10A     -1.211434    11A     -1.111670    12A     -0.996069
      13A     -0.858908    14A     -0.692770    15A     -0.661950
      16A     -0.594019    17A     -0.570897    18A     -0.546470
      19A     -0.538620    20A     -0.518444    21A     -0.499564
      22A     -0.448564    23A     -0.384952

  @DF-RHF Final Energy:  -568.54743874076610

   => Energetics <=

    Nuclear Repulsion Energy =            196.8106517483621474
    One-Electron Energy =               -1170.2762872204878022
    Two-Electron Energy =                 404.9181967313595578
    Total Energy =                       -568.5474387407660970
  Basis Set: (AUG-CC-PVTZ AUX)
    Blend: AUG-CC-PVTZ-RI
    Molecular point group: c1

    Geometry (in Angstrom), charge = 0, multiplicity = 1:

       Center              X                  Y                   Z               Mass
    ------------   -----------------  -----------------  -----------------  -----------------
         S           -0.021366842770    -0.765612784689    -0.069382154342    31.972071174400
         N            2.571823257230     0.635696015311     0.040281645658    14.003074004430
         C           -1.076549742770     0.727516015311     0.040358645658    12.000000000000
         C           -2.517311742770     0.233941015311     0.040269645658    12.000000000000
         C            1.521878257230     0.083811015311     0.040299645658    12.000000000000
         H           -0.864833742770     1.325167015311     0.928992645658     1.007825032230
         H           -0.864716742770     1.325288015311    -0.848166354342     1.007825032230
         H           -2.731154742770    -0.366740984689    -0.847144354342     1.007825032230
         H           -2.731314742770    -0.366719984689     0.927661645658     1.007825032230
         H           -3.193205742770     1.092766015311     0.040168645658     1.007825032230

  Basis Set: AUG-CC-PVTZ
    Blend: AUG-CC-PVTZ
  Basis Set: (AUG-CC-PVTZ AUX)
    Blend: AUG-CC-PVTZ-JKFIT
	 Reference Energy          =    -568.5474387407660970 [Eh]
	 Singles Energy            =      -0.0000000000000000 [Eh]
	 Same-Spin Energy          =      -0.2339623800435125 [Eh]
	 Opposite-Spin Energy      =      -0.7592802075157639 [Eh]
	 Correlation Energy        =      -0.9932425875592763 [Eh]
	 Total Energy              =    -569.5406813283253769 [Eh]

	 ================> DF-SCS-MP2 Energies <==================
	-----------------------------------------------------------
	 SCS Same-Spin Scale       =       0.3333333333333333 [-]
	 SCS Opposite-Spin Scale   =       1.2000000000000000 [-]
	 SCS Same-Spin Energy      =      -0.0779874600145042 [Eh]
	 SCS Opposite-Spin Energy  =      -0.9111362490189165 [Eh]
	 SCS Correlation Energy    =      -0.9891237090334207 [Eh]
	 SCS Total Energy          =    -569.5365624497994759 [Eh]
	-----------------------------------------------------------

  Dipole Moment: [D]
     X:    -4.4947      Y:    -0.0510      Z:    -0.0209     Total:     4.4950

*** Psi4 exiting successfully. Buy a developer a beer!
