                               Psi4 1.3.2 release

  ==> Input File <==

--------------------------------------------------------------------------
#psi4
#
memory 32 gb

molecule  {
0 1
  S        0.1408904    -0.8000989     0.0000037
  N        2.6648510     0.5909190    -0.0000260
  C       -0.9835220     0.6827390     0.0000510
  C       -2.4242840     0.1891640    -0.0000380
  C        1.6149060     0.0390340    -0.0000080
  H       -0.7718060     1.2803900     0.8886850
  H       -0.7716890     1.2805110    -0.8884740
  H       -2.6381270    -0.4115180    -0.8874520
  H       -2.6382870    -0.4114970     0.8873540
  H       -3.1001780     1.0479890    -0.0001390
units angstrom
no_reorient  #important for SAPT in psi4, default
symmetry c1  #important for SAPT in psi4, default
}

set PROPERTIES_ORIGIN ["COM"]
properties('MP2/aug-cc-pvtz', properties = ['dipole'])
--------------------------------------------------------------------------

    Molecular point group: c1
  Charge       = 0
  Multiplicity = 1
  Basis Set: AUG-CC-PVTZ
    Blend: AUG-CC-PVTZ
  Basis Set: (AUG-CC-PVTZ AUX)
    Blend: AUG-CC-PVTZ-JKFIT

    Orbital Energies [Eh]
    ---------------------

    Doubly Occupied:

       1A    -92.016458     2A    -15.587602     3A    -11.303692
       4A    -11.298984     5A    -11.253878     6A     -9.015907
       7A     -6.697402     8A     -6.695705     9A     -6.694880
      10A     -1.213158    11A     -1.109127    12A     -1.006989
      13A     -0.863182    14A     -0.692887    15A     -0.661656
      16A     -0.593575    17A     -0.571829    18A     -0.547286
      19A     -0.544529    20A     -0.519686    21A     -0.505949
      22A     -0.441964    23A     -0.381184

  @DF-RHF Final Energy:  -568.55063624058448

   => Energetics <=

    Nuclear Repulsion Energy =            197.4137726358814291
    One-Electron Energy =               -1171.4937997687272855
    Two-Electron Energy =                 405.5293908922614037
    Total Energy =                       -568.5506362405844811
  Basis Set: (AUG-CC-PVTZ AUX)
    Blend: AUG-CC-PVTZ-RI
    Molecular point group: c1

    Geometry (in Angstrom), charge = 0, multiplicity = 1:

       Center              X                  Y                   Z               Mass
    ------------   -----------------  -----------------  -----------------  -----------------
         S            0.022425329620    -0.759103119490     0.000006136229    31.972071174400
         N            2.546385929620     0.631914780510    -0.000023563771    14.003074004430
         C           -1.101987070380     0.723734780510     0.000053436229    12.000000000000
         C           -2.542749070380     0.230159780510    -0.000035563771    12.000000000000
         C            1.496440929620     0.080029780510    -0.000005563771    12.000000000000
         H           -0.890271070380     1.321385780510     0.888687436229     1.007825032230
         H           -0.890154070380     1.321506780510    -0.888471563771     1.007825032230
         H           -2.756592070380    -0.370522219490    -0.887449563771     1.007825032230
         H           -2.756752070380    -0.370501219490     0.887356436229     1.007825032230
         H           -3.218643070380     1.088984780510    -0.000136563771     1.007825032230

  Basis Set: AUG-CC-PVTZ
    Blend: AUG-CC-PVTZ
  Basis Set: (AUG-CC-PVTZ AUX)
    Blend: AUG-CC-PVTZ-JKFIT
	 Reference Energy          =    -568.5506362405844811 [Eh]
	 Singles Energy            =      -0.0000000000000000 [Eh]
	 Same-Spin Energy          =      -0.2344129316561863 [Eh]
	 Opposite-Spin Energy      =      -0.7588648105441971 [Eh]
	 Correlation Energy        =      -0.9932777422003833 [Eh]
	 Total Energy              =    -569.5439139827848294 [Eh]

	 ================> DF-SCS-MP2 Energies <==================
	-----------------------------------------------------------
	 SCS Same-Spin Scale       =       0.3333333333333333 [-]
	 SCS Opposite-Spin Scale   =       1.2000000000000000 [-]
	 SCS Same-Spin Energy      =      -0.0781376438853954 [Eh]
	 SCS Opposite-Spin Energy  =      -0.9106377726530365 [Eh]
	 SCS Correlation Energy    =      -0.9887754165384319 [Eh]
	 SCS Total Energy          =    -569.5394116571229688 [Eh]
	-----------------------------------------------------------

  Dipole Moment: [D]
     X:    -4.5574      Y:    -0.0458      Z:     0.0001     Total:     4.5577

*** Psi4 exiting successfully. Buy a developer a beer!
