                               Psi4 1.3.2 release

  ==> Input File <==

--------------------------------------------------------------------------
#psi4
#
memory 32 gb

molecule  {
0 1
  O        2.9010970     0.5011680     0.0190930
  O        2.1944780    -1.5825590    -0.0163220
  N        2.0004500    -0.3550410     0.0008100
  C       -1.7439920    -0.3903900    -0.0133100
  C       -0.4149300    -0.8260450    -0.0068870
  C        0.6078150     0.1183000     0.0001420
  C       -2.0019240     0.9878430    -0.0100420
  C        0.3698690     1.4898440     0.0027510
  C       -0.9581620     1.9149690    -0.0035660
  C       -2.8732770    -1.3864780     0.0172390
  H       -0.1671010    -1.8828910    -0.0126110
  H       -3.0325270     1.3382360    -0.0191480
  H        1.1996340     2.1873950     0.0050900
  H       -1.1788320     2.9793390    -0.0057220
  H       -2.5659080    -2.3418330    -0.4157720
  H       -3.1988470    -1.5742060     1.0458220
  H       -3.7365580    -1.0178890    -0.5434620
units angstrom
no_reorient  #important for SAPT in psi4, default
symmetry c1  #important for SAPT in psi4, default
}

set PROPERTIES_ORIGIN ["COM"]
properties('MP2/aug-cc-pvtz', properties = ['dipole'])
--------------------------------------------------------------------------

    Molecular point group: c1
  Charge       = 0
  Multiplicity = 1
  Basis Set: AUG-CC-PVTZ
    Blend: AUG-CC-PVTZ
  Basis Set: (AUG-CC-PVTZ AUX)
    Blend: AUG-CC-PVTZ-JKFIT

    Orbital Energies [Eh]
    ---------------------

    Doubly Occupied:

       1A    -20.603276     2A    -20.603220     3A    -15.853354
       4A    -11.311480     5A    -11.273005     6A    -11.271942
       7A    -11.270450     8A    -11.268475     9A    -11.265277
      10A    -11.245023    11A     -1.586595    12A     -1.385122
      13A     -1.198126    14A     -1.100631    15A     -1.065471
      16A     -0.968781    17A     -0.955410    18A     -0.848380
      19A     -0.817257    20A     -0.762250    21A     -0.722280
      22A     -0.707150    23A     -0.702711    24A     -0.664564
      25A     -0.635396    26A     -0.603320    27A     -0.597908
      28A     -0.565284    29A     -0.543279    30A     -0.521388
      31A     -0.520670    32A     -0.493336    33A     -0.491718
      34A     -0.451241    35A     -0.373803    36A     -0.356351

  @DF-RHF Final Energy:  -473.37301125598634

   => Energetics <=

    Nuclear Repulsion Energy =            493.5336445096564262
    One-Electron Energy =               -1622.6054663033189627
    Two-Electron Energy =                 655.6988105376763087
    Total Energy =                       -473.3730112559862846
  Basis Set: (AUG-CC-PVTZ AUX)
    Blend: AUG-CC-PVTZ-RI
    Molecular point group: c1

    Geometry (in Angstrom), charge = 0, multiplicity = 1:

       Center              X                  Y                   Z               Mass
    ------------   -----------------  -----------------  -----------------  -----------------
         O            2.809441576875     0.498878251921     0.019485494853    15.994914619570
         O            2.102822576875    -1.584848748079    -0.015929505147    15.994914619570
         N            1.908794576875    -0.357330748079     0.001202494853    14.003074004430
         C           -1.835647423125    -0.392679748079    -0.012917505147    12.000000000000
         C           -0.506585423125    -0.828334748079    -0.006494505147    12.000000000000
         C            0.516159576875     0.116010251921     0.000534494853    12.000000000000
         C           -2.093579423125     0.985553251921    -0.009649505147    12.000000000000
         C            0.278213576875     1.487554251921     0.003143494853    12.000000000000
         C           -1.049817423125     1.912679251921    -0.003173505147    12.000000000000
         C           -2.964932423125    -1.388767748079     0.017631494853    12.000000000000
         H           -0.258756423125    -1.885180748079    -0.012218505147     1.007825032230
         H           -3.124182423125     1.335946251921    -0.018755505147     1.007825032230
         H            1.107978576875     2.185105251921     0.005482494853     1.007825032230
         H           -1.270487423125     2.977049251921    -0.005329505147     1.007825032230
         H           -2.657563423125    -2.344122748079    -0.415379505147     1.007825032230
         H           -3.290502423125    -1.576495748079     1.046214494853     1.007825032230
         H           -3.828213423125    -1.020178748079    -0.543069505147     1.007825032230

  Basis Set: AUG-CC-PVTZ
    Blend: AUG-CC-PVTZ
  Basis Set: (AUG-CC-PVTZ AUX)
    Blend: AUG-CC-PVTZ-JKFIT
	 Reference Energy          =    -473.3730112559863414 [Eh]
	 Singles Energy            =      -0.0000000000000000 [Eh]
	 Same-Spin Energy          =      -0.5029556275936342 [Eh]
	 Opposite-Spin Energy      =      -1.5160283460446771 [Eh]
	 Correlation Energy        =      -2.0189839736383113 [Eh]
	 Total Energy              =    -475.3919952296246265 [Eh]

	 ================> DF-SCS-MP2 Energies <==================
	-----------------------------------------------------------
	 SCS Same-Spin Scale       =       0.3333333333333333 [-]
	 SCS Opposite-Spin Scale   =       1.2000000000000000 [-]
	 SCS Same-Spin Energy      =      -0.1676518758645447 [Eh]
	 SCS Opposite-Spin Energy  =      -1.8192340152536124 [Eh]
	 SCS Correlation Energy    =      -1.9868858911181571 [Eh]
	 SCS Total Energy          =    -475.3598971471045047 [Eh]
	-----------------------------------------------------------

  Dipole Moment: [D]
     X:    -4.5678      Y:     1.0561      Z:     0.0348     Total:     4.6885

*** Psi4 exiting successfully. Buy a developer a beer!
