                               Psi4 1.3.2 release

  ==> Input File <==

--------------------------------------------------------------------------
#psi4
#
memory 32 gb

molecule  {
0 1
  O        2.9010970     0.5011680     0.0190930
  O        2.1944780    -1.5825590    -0.0163220
  N        2.0004500    -0.3550410     0.0008100
  C       -1.7439920    -0.3903900    -0.0133100
  C       -0.4149300    -0.8260450    -0.0068870
  C        0.6086777     0.1205565    -0.1498385
  C       -2.0019240     0.9878430    -0.0100420
  C        0.3698690     1.4898440     0.0027510
  C       -0.9581620     1.9149690    -0.0035660
  C       -2.8732770    -1.3864780     0.0172390
  H       -0.1671010    -1.8828910    -0.0126110
  H       -3.0325270     1.3382360    -0.0191480
  H        1.1996340     2.1873950     0.0050900
  H       -1.1788320     2.9793390    -0.0057220
  H       -2.5659080    -2.3418330    -0.4157720
  H       -3.1988470    -1.5742060     1.0458220
  H       -3.7365580    -1.0178890    -0.5434620
units angstrom
no_reorient  #important for SAPT in psi4, default
symmetry c1  #important for SAPT in psi4, default
}

set PROPERTIES_ORIGIN ["COM"]
properties('MP2/aug-cc-pvtz', properties = ['dipole'])
--------------------------------------------------------------------------

    Molecular point group: c1
  Charge       = 0
  Multiplicity = 1
  Basis Set: AUG-CC-PVTZ
    Blend: AUG-CC-PVTZ
  Basis Set: (AUG-CC-PVTZ AUX)
    Blend: AUG-CC-PVTZ-JKFIT

    Orbital Energies [Eh]
    ---------------------

    Doubly Occupied:

       1A    -20.602549     2A    -20.602498     3A    -15.852462
       4A    -11.312739     5A    -11.273552     6A    -11.273209
       7A    -11.272007     8A    -11.269615     9A    -11.265193
      10A    -11.245050    11A     -1.585364    12A     -1.384258
      13A     -1.196963    14A     -1.099212    15A     -1.065092
      16A     -0.967169    17A     -0.954421    18A     -0.847522
      19A     -0.816779    20A     -0.760534    21A     -0.721326
      22A     -0.706839    23A     -0.702007    24A     -0.663291
      25A     -0.635581    26A     -0.603190    27A     -0.597912
      28A     -0.565327    29A     -0.543694    30A     -0.521230
      31A     -0.519654    32A     -0.491530    33A     -0.490730
      34A     -0.450566    35A     -0.373696    36A     -0.355848

  @DF-RHF Final Energy:  -473.36587707593031

   => Energetics <=

    Nuclear Repulsion Energy =            493.2021653699507624
    One-Electron Energy =               -1621.9588649917211569
    Two-Electron Energy =                 655.3908225458401375
    Total Energy =                       -473.3658770759302570
  Basis Set: (AUG-CC-PVTZ AUX)
    Blend: AUG-CC-PVTZ-RI
    Molecular point group: c1

    Geometry (in Angstrom), charge = 0, multiplicity = 1:

       Center              X                  Y                   Z               Mass
    ------------   -----------------  -----------------  -----------------  -----------------
         O            2.809366038200     0.498680671047     0.032617902640    15.994914619570
         O            2.102747038200    -1.585046328953    -0.002797097360    15.994914619570
         N            1.908719038200    -0.357528328953     0.014334902640    14.003074004430
         C           -1.835722961800    -0.392877328953     0.000214902640    12.000000000000
         C           -0.506660961800    -0.828532328953     0.006637902640    12.000000000000
         C            0.516946738200     0.118069171047    -0.136313597360    12.000000000000
         C           -2.093654961800     0.985355671047     0.003482902640    12.000000000000
         C            0.278138038200     1.487356671047     0.016275902640    12.000000000000
         C           -1.049892961800     1.912481671047     0.009958902640    12.000000000000
         C           -2.965007961800    -1.388965328953     0.030763902640    12.000000000000
         H           -0.258831961800    -1.885378328953     0.000913902640     1.007825032230
         H           -3.124257961800     1.335748671047    -0.005623097360     1.007825032230
         H            1.107903038200     2.184907671047     0.018614902640     1.007825032230
         H           -1.270562961800     2.976851671047     0.007802902640     1.007825032230
         H           -2.657638961800    -2.344320328953    -0.402247097360     1.007825032230
         H           -3.290577961800    -1.576693328953     1.059346902640     1.007825032230
         H           -3.828288961800    -1.020376328953    -0.529937097360     1.007825032230

  Basis Set: AUG-CC-PVTZ
    Blend: AUG-CC-PVTZ
  Basis Set: (AUG-CC-PVTZ AUX)
    Blend: AUG-CC-PVTZ-JKFIT
	 Reference Energy          =    -473.3658770759303138 [Eh]
	 Singles Energy            =      -0.0000000000000000 [Eh]
	 Same-Spin Energy          =      -0.5031792209296670 [Eh]
	 Opposite-Spin Energy      =      -1.5168065033390961 [Eh]
	 Correlation Energy        =      -2.0199857242687633 [Eh]
	 Total Energy              =    -475.3858628001990496 [Eh]

	 ================> DF-SCS-MP2 Energies <==================
	-----------------------------------------------------------
	 SCS Same-Spin Scale       =       0.3333333333333333 [-]
	 SCS Opposite-Spin Scale   =       1.2000000000000000 [-]
	 SCS Same-Spin Energy      =      -0.1677264069765557 [Eh]
	 SCS Opposite-Spin Energy  =      -1.8201678040069151 [Eh]
	 SCS Correlation Energy    =      -1.9878942109834707 [Eh]
	 SCS Total Energy          =    -475.3537712869137977 [Eh]
	-----------------------------------------------------------

  Dipole Moment: [D]
     X:    -4.5992      Y:     1.0634      Z:    -0.0072     Total:     4.7206

*** Psi4 exiting successfully. Buy a developer a beer!
