                               Psi4 1.3.2 release

  ==> Input File <==

--------------------------------------------------------------------------
#psi4
#
memory 32 gb

molecule  {
0 1
  O        2.9010970     0.5011680     0.0190930
  O        2.1944780    -1.5825590    -0.0163220
  N        2.0004500    -0.3550410     0.0008100
  C       -1.7439920    -0.3903900    -0.0133100
  C       -0.4149300    -0.8260450    -0.0068870
  C        0.6078150     0.1183000     0.0001420
  C       -2.0019240     0.9878430    -0.0100420
  C        0.3706319     1.4908339    -0.2972464
  C       -0.9581620     1.9149690    -0.0035660
  C       -2.8732770    -1.3864780     0.0172390
  H       -0.1671010    -1.8828910    -0.0126110
  H       -3.0325270     1.3382360    -0.0191480
  H        1.1996340     2.1873950     0.0050900
  H       -1.1788320     2.9793390    -0.0057220
  H       -2.5659080    -2.3418330    -0.4157720
  H       -3.1988470    -1.5742060     1.0458220
  H       -3.7365580    -1.0178890    -0.5434620
units angstrom
no_reorient  #important for SAPT in psi4, default
symmetry c1  #important for SAPT in psi4, default
}

set PROPERTIES_ORIGIN ["COM"]
properties('MP2/aug-cc-pvtz', properties = ['dipole'])
--------------------------------------------------------------------------

    Molecular point group: c1
  Charge       = 0
  Multiplicity = 1
  Basis Set: AUG-CC-PVTZ
    Blend: AUG-CC-PVTZ
  Basis Set: (AUG-CC-PVTZ AUX)
    Blend: AUG-CC-PVTZ-JKFIT

    Orbital Energies [Eh]
    ---------------------

    Doubly Occupied:

       1A    -20.603743     2A    -20.603526     3A    -15.853034
       4A    -11.317359     5A    -11.278279     6A    -11.277090
       7A    -11.272609     8A    -11.269931     9A    -11.267146
      10A    -11.246851    11A     -1.586712    12A     -1.385180
      13A     -1.195074    14A     -1.100026    15A     -1.062578
      16A     -0.969725    17A     -0.952761    18A     -0.844569
      19A     -0.816592    20A     -0.758502    21A     -0.721142
      22A     -0.707465    23A     -0.697014    24A     -0.659617
      25A     -0.634112    26A     -0.601363    27A     -0.591965
      28A     -0.564037    29A     -0.542091    30A     -0.523037
      31A     -0.510793    32A     -0.493210    33A     -0.491253
      34A     -0.450912    35A     -0.370624    36A     -0.356581

  @DF-RHF Final Energy:  -473.34403068793904

   => Energetics <=

    Nuclear Repulsion Energy =            492.4823242332387849
    One-Electron Energy =               -1620.4997015477513287
    Two-Electron Energy =                 654.6733466265734478
    Total Energy =                       -473.3440306879390391
  Basis Set: (AUG-CC-PVTZ AUX)
    Blend: AUG-CC-PVTZ-RI
    Molecular point group: c1

    Geometry (in Angstrom), charge = 0, multiplicity = 1:

       Center              X                  Y                   Z               Mass
    ------------   -----------------  -----------------  -----------------  -----------------
         O            2.809374776765     0.498791575516     0.045753497640    15.994914619570
         O            2.102755776765    -1.584935424484     0.010338497640    15.994914619570
         N            1.908727776765    -0.357417424484     0.027470497640    14.003074004430
         C           -1.835714223235    -0.392766424484     0.013350497640    12.000000000000
         C           -0.506652223235    -0.828421424484     0.019773497640    12.000000000000
         C            0.516092776765     0.115923575516     0.026802497640    12.000000000000
         C           -2.093646223235     0.985466575516     0.016618497640    12.000000000000
         C            0.278909676765     1.488457475516    -0.270585902360    12.000000000000
         C           -1.049884223235     1.912592575516     0.023094497640    12.000000000000
         C           -2.964999223235    -1.388854424484     0.043899497640    12.000000000000
         H           -0.258823223235    -1.885267424484     0.014049497640     1.007825032230
         H           -3.124249223235     1.335859575516     0.007512497640     1.007825032230
         H            1.107911776765     2.185018575516     0.031750497640     1.007825032230
         H           -1.270554223235     2.976962575516     0.020938497640     1.007825032230
         H           -2.657630223235    -2.344209424484    -0.389111502360     1.007825032230
         H           -3.290569223235    -1.576582424484     1.072482497640     1.007825032230
         H           -3.828280223235    -1.020265424484    -0.516801502360     1.007825032230

  Basis Set: AUG-CC-PVTZ
    Blend: AUG-CC-PVTZ
  Basis Set: (AUG-CC-PVTZ AUX)
    Blend: AUG-CC-PVTZ-JKFIT
	 Reference Energy          =    -473.3440306879390391 [Eh]
	 Singles Energy            =      -0.0000000000000000 [Eh]
	 Same-Spin Energy          =      -0.5045991912661456 [Eh]
	 Opposite-Spin Energy      =      -1.5206790938758075 [Eh]
	 Correlation Energy        =      -2.0252782851419528 [Eh]
	 Total Energy              =    -475.3693089730809902 [Eh]

	 ================> DF-SCS-MP2 Energies <==================
	-----------------------------------------------------------
	 SCS Same-Spin Scale       =       0.3333333333333333 [-]
	 SCS Opposite-Spin Scale   =       1.2000000000000000 [-]
	 SCS Same-Spin Energy      =      -0.1681997304220485 [Eh]
	 SCS Opposite-Spin Energy  =      -1.8248149126509690 [Eh]
	 SCS Correlation Energy    =      -1.9930146430730176 [Eh]
	 SCS Total Energy          =    -475.3370453310120638 [Eh]
	-----------------------------------------------------------

  Dipole Moment: [D]
     X:    -4.6974      Y:     0.9238      Z:     0.1850     Total:     4.7910

*** Psi4 exiting successfully. Buy a developer a beer!
