                               Psi4 1.3.2 release

  ==> Input File <==

--------------------------------------------------------------------------
#psi4
#
memory 32 gb

molecule  {
0 1
  O        2.9010970     0.5011680     0.0190930
  O        2.1944780    -1.5825590    -0.0163220
  N        2.0004500    -0.3550410     0.0008100
  C       -1.7439920    -0.3903900    -0.0133100
  C       -0.4149300    -0.8260450    -0.0068870
  C        0.6078150     0.1183000     0.0001420
  C       -2.0019240     0.9878430    -0.0100420
  C        0.3702505     1.4903390    -0.1472477
  C       -0.9581620     1.9149690    -0.0035660
  C       -2.8732770    -1.3864780     0.0172390
  H       -0.1671010    -1.8828910    -0.0126110
  H       -3.0325270     1.3382360    -0.0191480
  H        1.1996340     2.1873950     0.0050900
  H       -1.1788320     2.9793390    -0.0057220
  H       -2.5659080    -2.3418330    -0.4157720
  H       -3.1988470    -1.5742060     1.0458220
  H       -3.7365580    -1.0178890    -0.5434620
units angstrom
no_reorient  #important for SAPT in psi4, default
symmetry c1  #important for SAPT in psi4, default
}

set PROPERTIES_ORIGIN ["COM"]
properties('MP2/aug-cc-pvtz', properties = ['dipole'])
--------------------------------------------------------------------------

    Molecular point group: c1
  Charge       = 0
  Multiplicity = 1
  Basis Set: AUG-CC-PVTZ
    Blend: AUG-CC-PVTZ
  Basis Set: (AUG-CC-PVTZ AUX)
    Blend: AUG-CC-PVTZ-JKFIT

    Orbital Energies [Eh]
    ---------------------

    Doubly Occupied:

       1A    -20.603382     2A    -20.603292     3A    -15.853256
       4A    -11.312988     5A    -11.273947     6A    -11.273577
       7A    -11.270305     8A    -11.268359     9A    -11.266879
      10A    -11.245463    11A     -1.586615    12A     -1.385126
      13A     -1.197305    14A     -1.100448    15A     -1.064753
      16A     -0.968993    17A     -0.954776    18A     -0.847314
      19A     -0.817076    20A     -0.761121    21A     -0.721967
      22A     -0.707287    23A     -0.701092    24A     -0.663174
      25A     -0.635148    26A     -0.602403    27A     -0.596695
      28A     -0.564945    29A     -0.543051    30A     -0.522911
      31A     -0.517210    32A     -0.493320    33A     -0.491637
      34A     -0.451150    35A     -0.372934    36A     -0.356337

  @DF-RHF Final Energy:  -473.36589393106135

   => Energetics <=

    Nuclear Repulsion Energy =            493.2667269282130746
    One-Electron Energy =               -1622.0727716131736997
    Two-Electron Energy =                 655.4401507538992746
    Total Energy =                       -473.3658939310613505
  Basis Set: (AUG-CC-PVTZ AUX)
    Blend: AUG-CC-PVTZ-RI
    Molecular point group: c1

    Geometry (in Angstrom), charge = 0, multiplicity = 1:

       Center              X                  Y                   Z               Mass
    ------------   -----------------  -----------------  -----------------  -----------------
         O            2.809408172442     0.498834909340     0.032619496246    15.994914619570
         O            2.102789172442    -1.584892090660    -0.002795503754    15.994914619570
         N            1.908761172442    -0.357374090660     0.014336496246    14.003074004430
         C           -1.835680827558    -0.392723090660     0.000216496246    12.000000000000
         C           -0.506618827558    -0.828378090660     0.006639496246    12.000000000000
         C            0.516126172442     0.115966909340     0.013668496246    12.000000000000
         C           -2.093612827558     0.985509909340     0.003484496246    12.000000000000
         C            0.278561672442     1.488005909340    -0.133721203754    12.000000000000
         C           -1.049850827558     1.912635909340     0.009960496246    12.000000000000
         C           -2.964965827558    -1.388811090660     0.030765496246    12.000000000000
         H           -0.258789827558    -1.885224090660     0.000915496246     1.007825032230
         H           -3.124215827558     1.335902909340    -0.005621503754     1.007825032230
         H            1.107945172442     2.185061909340     0.018616496246     1.007825032230
         H           -1.270520827558     2.977005909340     0.007804496246     1.007825032230
         H           -2.657596827558    -2.344166090660    -0.402245503754     1.007825032230
         H           -3.290535827558    -1.576539090660     1.059348496246     1.007825032230
         H           -3.828246827558    -1.020222090660    -0.529935503754     1.007825032230

  Basis Set: AUG-CC-PVTZ
    Blend: AUG-CC-PVTZ
  Basis Set: (AUG-CC-PVTZ AUX)
    Blend: AUG-CC-PVTZ-JKFIT
	 Reference Energy          =    -473.3658939310613505 [Eh]
	 Singles Energy            =      -0.0000000000000000 [Eh]
	 Same-Spin Energy          =      -0.5033766315368131 [Eh]
	 Opposite-Spin Energy      =      -1.5171449861863699 [Eh]
	 Correlation Energy        =      -2.0205216177231833 [Eh]
	 Total Energy              =    -475.3864155487845551 [Eh]

	 ================> DF-SCS-MP2 Energies <==================
	-----------------------------------------------------------
	 SCS Same-Spin Scale       =       0.3333333333333333 [-]
	 SCS Opposite-Spin Scale   =       1.2000000000000000 [-]
	 SCS Same-Spin Energy      =      -0.1677922105122710 [Eh]
	 SCS Opposite-Spin Energy  =      -1.8205739834236438 [Eh]
	 SCS Correlation Energy    =      -1.9883661939359150 [Eh]
	 SCS Total Energy          =    -475.3542601249972677 [Eh]
	-----------------------------------------------------------

  Dipole Moment: [D]
     X:    -4.6010      Y:     1.0218      Z:     0.1041     Total:     4.7142

*** Psi4 exiting successfully. Buy a developer a beer!
