                               Psi4 1.3.2 release

  ==> Input File <==

--------------------------------------------------------------------------
#psi4
#
memory 32 gb

molecule  {
0 1
  O        2.9010970     0.5011680     0.0190930
  O        2.1944780    -1.5825590    -0.0163220
  N        2.0004500    -0.3550410     0.0008100
  C       -1.7439920    -0.3903900    -0.0133100
  C       -0.4149300    -0.8260450    -0.0068870
  C        0.6078150     0.1183000     0.0001420
  C       -2.0019240     0.9878430    -0.0100420
  C        0.3699962     1.4900090    -0.0472486
  C       -0.9581620     1.9149690    -0.0035660
  C       -2.8732770    -1.3864780     0.0172390
  H       -0.1671010    -1.8828910    -0.0126110
  H       -3.0325270     1.3382360    -0.0191480
  H        1.1996340     2.1873950     0.0050900
  H       -1.1788320     2.9793390    -0.0057220
  H       -2.5659080    -2.3418330    -0.4157720
  H       -3.1988470    -1.5742060     1.0458220
  H       -3.7365580    -1.0178890    -0.5434620
units angstrom
no_reorient  #important for SAPT in psi4, default
symmetry c1  #important for SAPT in psi4, default
}

set PROPERTIES_ORIGIN ["COM"]
properties('MP2/aug-cc-pvtz', properties = ['dipole'])
--------------------------------------------------------------------------

    Molecular point group: c1
  Charge       = 0
  Multiplicity = 1
  Basis Set: AUG-CC-PVTZ
    Blend: AUG-CC-PVTZ
  Basis Set: (AUG-CC-PVTZ AUX)
    Blend: AUG-CC-PVTZ-JKFIT

    Orbital Energies [Eh]
    ---------------------

    Doubly Occupied:

       1A    -20.603287     2A    -20.603227     3A    -15.853339
       4A    -11.311641     5A    -11.273099     6A    -11.272104
       7A    -11.270433     8A    -11.268451     9A    -11.265447
      10A    -11.245072    11A     -1.586595    12A     -1.385121
      13A     -1.198032    14A     -1.100605    15A     -1.065401
      16A     -0.968802    17A     -0.955338    18A     -0.848254
      19A     -0.817237    20A     -0.762115    21A     -0.722242
      22A     -0.707177    23A     -0.702525    24A     -0.664401
      25A     -0.635366    26A     -0.603328    27A     -0.597655
      28A     -0.565243    29A     -0.543248    30A     -0.522066
      31A     -0.519817    32A     -0.493334    33A     -0.491713
      34A     -0.451228    35A     -0.373699    36A     -0.356336

  @DF-RHF Final Energy:  -473.37223402363531

   => Energetics <=

    Nuclear Repulsion Energy =            493.5044761723946749
    One-Electron Energy =               -1622.5474641940277252
    Two-Electron Energy =                 655.6707539979976218
    Total Energy =                       -473.3722340236353148
  Basis Set: (AUG-CC-PVTZ AUX)
    Blend: AUG-CC-PVTZ-RI
    Molecular point group: c1

    Geometry (in Angstrom), charge = 0, multiplicity = 1:

       Center              X                  Y                   Z               Mass
    ------------   -----------------  -----------------  -----------------  -----------------
         O            2.809430439145     0.498863804394     0.023863498236    15.994914619570
         O            2.102811439145    -1.584863195606    -0.011551501764    15.994914619570
         N            1.908783439145    -0.357345195606     0.005580498236    14.003074004430
         C           -1.835658560855    -0.392694195606    -0.008539501764    12.000000000000
         C           -0.506596560855    -0.828349195606    -0.002116501764    12.000000000000
         C            0.516148439145     0.115995804394     0.004912498236    12.000000000000
         C           -2.093590560855     0.985538804394    -0.005271501764    12.000000000000
         C            0.278329639145     1.487704804394    -0.042478101764    12.000000000000
         C           -1.049828560855     1.912664804394     0.001204498236    12.000000000000
         C           -2.964943560855    -1.388782195606     0.022009498236    12.000000000000
         H           -0.258767560855    -1.885195195606    -0.007840501764     1.007825032230
         H           -3.124193560855     1.335931804394    -0.014377501764     1.007825032230
         H            1.107967439145     2.185090804394     0.009860498236     1.007825032230
         H           -1.270498560855     2.977034804394    -0.000951501764     1.007825032230
         H           -2.657574560855    -2.344137195606    -0.411001501764     1.007825032230
         H           -3.290513560855    -1.576510195606     1.050592498236     1.007825032230
         H           -3.828224560855    -1.020193195606    -0.538691501764     1.007825032230

  Basis Set: AUG-CC-PVTZ
    Blend: AUG-CC-PVTZ
  Basis Set: (AUG-CC-PVTZ AUX)
    Blend: AUG-CC-PVTZ-JKFIT
	 Reference Energy          =    -473.3722340236353148 [Eh]
	 Singles Energy            =      -0.0000000000000000 [Eh]
	 Same-Spin Energy          =      -0.5030004103092768 [Eh]
	 Opposite-Spin Energy      =      -1.5161319710429575 [Eh]
	 Correlation Energy        =      -2.0191323813522342 [Eh]
	 Total Energy              =    -475.3913664049875365 [Eh]

	 ================> DF-SCS-MP2 Energies <==================
	-----------------------------------------------------------
	 SCS Same-Spin Scale       =       0.3333333333333333 [-]
	 SCS Opposite-Spin Scale   =       1.2000000000000000 [-]
	 SCS Same-Spin Energy      =      -0.1676668034364256 [Eh]
	 SCS Opposite-Spin Energy  =      -1.8193583652515488 [Eh]
	 SCS Correlation Energy    =      -1.9870251686879743 [Eh]
	 SCS Total Energy          =    -475.3592591923232931 [Eh]
	-----------------------------------------------------------

  Dipole Moment: [D]
     X:    -4.5717      Y:     1.0521      Z:     0.0571     Total:     4.6916

*** Psi4 exiting successfully. Buy a developer a beer!
