                               Psi4 1.3.2 release

  ==> Input File <==

--------------------------------------------------------------------------
#psi4
#
memory 32 gb

molecule  {
0 1
  O        2.9010970     0.5011680     0.0190930
  O        2.1944780    -1.5825590    -0.0163220
  N        2.0004500    -0.3550410     0.0008100
  C       -1.7439920    -0.3903900    -0.0133100
  C       -0.4149300    -0.8260450    -0.0068870
  C        0.6078150     0.1183000     0.0001420
  C       -2.0019240     0.9878430    -0.0100420
  C        0.3703776     1.4905040    -0.1972473
  C       -0.9581620     1.9149690    -0.0035660
  C       -2.8732770    -1.3864780     0.0172390
  H       -0.1671010    -1.8828910    -0.0126110
  H       -3.0325270     1.3382360    -0.0191480
  H        1.1996340     2.1873950     0.0050900
  H       -1.1788320     2.9793390    -0.0057220
  H       -2.5659080    -2.3418330    -0.4157720
  H       -3.1988470    -1.5742060     1.0458220
  H       -3.7365580    -1.0178890    -0.5434620
units angstrom
no_reorient  #important for SAPT in psi4, default
symmetry c1  #important for SAPT in psi4, default
}

set PROPERTIES_ORIGIN ["COM"]
properties('MP2/aug-cc-pvtz', properties = ['dipole'])
--------------------------------------------------------------------------

    Molecular point group: c1
  Charge       = 0
  Multiplicity = 1
  Basis Set: AUG-CC-PVTZ
    Blend: AUG-CC-PVTZ
  Basis Set: (AUG-CC-PVTZ AUX)
    Blend: AUG-CC-PVTZ-JKFIT

    Orbital Energies [Eh]
    ---------------------

    Doubly Occupied:

       1A    -20.603470     2A    -20.603352     3A    -15.853194
       4A    -11.314152     5A    -11.274848     6A    -11.274732
       7A    -11.270197     8A    -11.268928     9A    -11.267494
      10A    -11.245813    11A     -1.586638    12A     -1.385137
      13A     -1.196695    14A     -1.100327    15A     -1.064183
      16A     -0.969172    17A     -0.954274    18A     -0.846544
      19A     -0.816943    20A     -0.760342    21A     -0.721740
      22A     -0.707349    23A     -0.699932    24A     -0.662165
      25A     -0.634930    26A     -0.601826    27A     -0.595686
      28A     -0.564696    29A     -0.542853    30A     -0.523094
      31A     -0.515430    32A     -0.493303    33A     -0.491559
      34A     -0.451087    35A     -0.372299    36A     -0.356372

  @DF-RHF Final Energy:  -473.36028287955861

   => Energetics <=

    Nuclear Repulsion Energy =            493.0604017684489691
    One-Electron Energy =               -1621.6598565001017960
    Two-Electron Energy =                 655.2391718520941595
    Total Energy =                       -473.3602828795585538
  Basis Set: (AUG-CC-PVTZ AUX)
    Blend: AUG-CC-PVTZ-RI
    Molecular point group: c1

    Geometry (in Angstrom), charge = 0, multiplicity = 1:

       Center              X                  Y                   Z               Mass
    ------------   -----------------  -----------------  -----------------  -----------------
         O            2.809397043468     0.498820461814     0.036997499629    15.994914619570
         O            2.102778043468    -1.584906538186     0.001582499629    15.994914619570
         N            1.908750043468    -0.357388538186     0.018714499629    14.003074004430
         C           -1.835691956532    -0.392737538186     0.004594499629    12.000000000000
         C           -0.506629956532    -0.828392538186     0.011017499629    12.000000000000
         C            0.516115043468     0.115952461814     0.018046499629    12.000000000000
         C           -2.093623956532     0.985495461814     0.007862499629    12.000000000000
         C            0.278677643468     1.488156461814    -0.179342800371    12.000000000000
         C           -1.049861956532     1.912621461814     0.014338499629    12.000000000000
         C           -2.964976956532    -1.388825538186     0.035143499629    12.000000000000
         H           -0.258800956532    -1.885238538186     0.005293499629     1.007825032230
         H           -3.124226956532     1.335888461814    -0.001243500371     1.007825032230
         H            1.107934043468     2.185047461814     0.022994499629     1.007825032230
         H           -1.270531956532     2.976991461814     0.012182499629     1.007825032230
         H           -2.657607956532    -2.344180538186    -0.397867500371     1.007825032230
         H           -3.290546956532    -1.576553538186     1.063726499629     1.007825032230
         H           -3.828257956532    -1.020236538186    -0.525557500371     1.007825032230

  Basis Set: AUG-CC-PVTZ
    Blend: AUG-CC-PVTZ
  Basis Set: (AUG-CC-PVTZ AUX)
    Blend: AUG-CC-PVTZ-JKFIT
	 Reference Energy          =    -473.3602828795586106 [Eh]
	 Singles Energy            =      -0.0000000000000000 [Eh]
	 Same-Spin Energy          =      -0.5037015156375620 [Eh]
	 Opposite-Spin Energy      =      -1.5180635865137684 [Eh]
	 Correlation Energy        =      -2.0217651021513303 [Eh]
	 Total Energy              =    -475.3820479817099454 [Eh]

	 ================> DF-SCS-MP2 Energies <==================
	-----------------------------------------------------------
	 SCS Same-Spin Scale       =       0.3333333333333333 [-]
	 SCS Opposite-Spin Scale   =       1.2000000000000000 [-]
	 SCS Same-Spin Energy      =      -0.1679005052125207 [Eh]
	 SCS Opposite-Spin Energy  =      -1.8216763038165220 [Eh]
	 SCS Correlation Energy    =      -1.9895768090290427 [Eh]
	 SCS Total Energy          =    -475.3498596885876282 [Eh]
	-----------------------------------------------------------

  Dipole Moment: [D]
     X:    -4.6263      Y:     0.9959      Z:     0.1296     Total:     4.7340

*** Psi4 exiting successfully. Buy a developer a beer!
