                               Psi4 1.3.2 release

  ==> Input File <==

--------------------------------------------------------------------------
#psi4
#
memory 32 gb

molecule  {
0 1
  O        2.9010970     0.5011680     0.0190930
  O        2.1944780    -1.5825590    -0.0163220
  N        2.0004500    -0.3550410     0.0008100
  C       -1.7439920    -0.3903900    -0.0133100
  C       -0.4149300    -0.8260450    -0.0068870
  C        0.6081026     0.1190522    -0.0498515
  C       -2.0019240     0.9878430    -0.0100420
  C        0.3698690     1.4898440     0.0027510
  C       -0.9581620     1.9149690    -0.0035660
  C       -2.8732770    -1.3864780     0.0172390
  H       -0.1671010    -1.8828910    -0.0126110
  H       -3.0325270     1.3382360    -0.0191480
  H        1.1996340     2.1873950     0.0050900
  H       -1.1788320     2.9793390    -0.0057220
  H       -2.5659080    -2.3418330    -0.4157720
  H       -3.1988470    -1.5742060     1.0458220
  H       -3.7365580    -1.0178890    -0.5434620
units angstrom
no_reorient  #important for SAPT in psi4, default
symmetry c1  #important for SAPT in psi4, default
}

set PROPERTIES_ORIGIN ["COM"]
properties('MP2/aug-cc-pvtz', properties = ['dipole'])
--------------------------------------------------------------------------

    Molecular point group: c1
  Charge       = 0
  Multiplicity = 1
  Basis Set: AUG-CC-PVTZ
    Blend: AUG-CC-PVTZ
  Basis Set: (AUG-CC-PVTZ AUX)
    Blend: AUG-CC-PVTZ-JKFIT

    Orbital Energies [Eh]
    ---------------------

    Doubly Occupied:

       1A    -20.603197     2A    -20.603143     3A    -15.853257
       4A    -11.311612     5A    -11.273000     6A    -11.272059
       7A    -11.270662     8A    -11.268586     9A    -11.265264
      10A    -11.245010    11A     -1.586460    12A     -1.385028
      13A     -1.197996    14A     -1.100484    15A     -1.065415
      16A     -0.968564    17A     -0.955328    18A     -0.848312
      19A     -0.817178    20A     -0.762050    21A     -0.722174
      22A     -0.707088    23A     -0.702651    24A     -0.664415
      25A     -0.635392    26A     -0.603301    27A     -0.597909
      28A     -0.565307    29A     -0.543325    30A     -0.521458
      31A     -0.520465    32A     -0.493100    33A     -0.491648
      34A     -0.451168    35A     -0.373745    36A     -0.356319

  @DF-RHF Final Energy:  -473.37222117953513

   => Energetics <=

    Nuclear Repulsion Energy =            493.4976296695284077
    One-Electron Energy =               -1622.5355584504068247
    Two-Electron Energy =                 655.6657076013433425
    Total Energy =                       -473.3722211795351313
  Basis Set: (AUG-CC-PVTZ AUX)
    Blend: AUG-CC-PVTZ-RI
    Molecular point group: c1

    Geometry (in Angstrom), charge = 0, multiplicity = 1:

       Center              X                  Y                   Z               Mass
    ------------   -----------------  -----------------  -----------------  -----------------
         O            2.809416394398     0.498812388711     0.023862964115    15.994914619570
         O            2.102797394398    -1.584914611289    -0.011552035885    15.994914619570
         N            1.908769394398    -0.357396611289     0.005579964115    14.003074004430
         C           -1.835672605602    -0.392745611289    -0.008540035885    12.000000000000
         C           -0.506610605602    -0.828400611289    -0.002117035885    12.000000000000
         C            0.516421994398     0.116696588711    -0.045081535885    12.000000000000
         C           -2.093604605602     0.985487388711    -0.005272035885    12.000000000000
         C            0.278188394398     1.487488388711     0.007520964115    12.000000000000
         C           -1.049842605602     1.912613388711     0.001203964115    12.000000000000
         C           -2.964957605602    -1.388833611289     0.022008964115    12.000000000000
         H           -0.258781605602    -1.885246611289    -0.007841035885     1.007825032230
         H           -3.124207605602     1.335880388711    -0.014378035885     1.007825032230
         H            1.107953394398     2.185039388711     0.009859964115     1.007825032230
         H           -1.270512605602     2.976983388711    -0.000952035885     1.007825032230
         H           -2.657588605602    -2.344188611289    -0.411002035885     1.007825032230
         H           -3.290527605602    -1.576561611289     1.050591964115     1.007825032230
         H           -3.828238605602    -1.020244611289    -0.538692035885     1.007825032230

  Basis Set: AUG-CC-PVTZ
    Blend: AUG-CC-PVTZ
  Basis Set: (AUG-CC-PVTZ AUX)
    Blend: AUG-CC-PVTZ-JKFIT
	 Reference Energy          =    -473.3722211795351313 [Eh]
	 Singles Energy            =      -0.0000000000000000 [Eh]
	 Same-Spin Energy          =      -0.5029817345370680 [Eh]
	 Opposite-Spin Energy      =      -1.5161101580842802 [Eh]
	 Correlation Energy        =      -2.0190918926213479 [Eh]
	 Total Energy              =    -475.3913130721564926 [Eh]

	 ================> DF-SCS-MP2 Energies <==================
	-----------------------------------------------------------
	 SCS Same-Spin Scale       =       0.3333333333333333 [-]
	 SCS Opposite-Spin Scale   =       1.2000000000000000 [-]
	 SCS Same-Spin Energy      =      -0.1676605781790226 [Eh]
	 SCS Opposite-Spin Energy  =      -1.8193321897011361 [Eh]
	 SCS Correlation Energy    =      -1.9869927678801587 [Eh]
	 SCS Total Energy          =    -475.3592139474152987 [Eh]
	-----------------------------------------------------------

  Dipole Moment: [D]
     X:    -4.5716      Y:     1.0567      Z:     0.0202     Total:     4.6922

*** Psi4 exiting successfully. Buy a developer a beer!
