                               Psi4 1.3.2 release

  ==> Input File <==

--------------------------------------------------------------------------
#psi4
#
memory 32 gb

molecule  {
0 1
  O        2.9010970     0.5011680     0.0190930
  O        2.1944780    -1.5825590    -0.0163220
  N        2.0004500    -0.3550410     0.0008100
  C       -1.7439920    -0.3903900    -0.0133100
  C       -0.4149300    -0.8260450    -0.0068870
  C        0.6083901     0.1198044    -0.0998450
  C       -2.0019240     0.9878430    -0.0100420
  C        0.3698690     1.4898440     0.0027510
  C       -0.9581620     1.9149690    -0.0035660
  C       -2.8732770    -1.3864780     0.0172390
  H       -0.1671010    -1.8828910    -0.0126110
  H       -3.0325270     1.3382360    -0.0191480
  H        1.1996340     2.1873950     0.0050900
  H       -1.1788320     2.9793390    -0.0057220
  H       -2.5659080    -2.3418330    -0.4157720
  H       -3.1988470    -1.5742060     1.0458220
  H       -3.7365580    -1.0178890    -0.5434620
units angstrom
no_reorient  #important for SAPT in psi4, default
symmetry c1  #important for SAPT in psi4, default
}

set PROPERTIES_ORIGIN ["COM"]
properties('MP2/aug-cc-pvtz', properties = ['dipole'])
--------------------------------------------------------------------------

    Molecular point group: c1
  Charge       = 0
  Multiplicity = 1
  Basis Set: AUG-CC-PVTZ
    Blend: AUG-CC-PVTZ
  Basis Set: (AUG-CC-PVTZ AUX)
    Blend: AUG-CC-PVTZ-JKFIT

    Orbital Energies [Eh]
    ---------------------

    Doubly Occupied:

       1A    -20.602955     2A    -20.602903     3A    -15.852963
       4A    -11.312037     5A    -11.273015     6A    -11.272596
       7A    -11.271232     8A    -11.268963     9A    -11.265236
      10A    -11.245018    11A     -1.586050    12A     -1.384741
      13A     -1.197604    14A     -1.100010    15A     -1.065288
      16A     -0.968012    17A     -0.955004    18A     -0.848021
      19A     -0.817018    20A     -0.761477    21A     -0.721857
      22A     -0.706963    23A     -0.702435    24A     -0.663987
      25A     -0.635453    26A     -0.603258    27A     -0.597909
      28A     -0.565321    29A     -0.543463    30A     -0.521400
      31A     -0.520133    32A     -0.492414    33A     -0.491403
      34A     -0.450943    35A     -0.373705    36A     -0.356150

  @DF-RHF Final Energy:  -473.36984461742014

   => Energetics <=

    Nuclear Repulsion Energy =            493.3868092317768514
    One-Electron Energy =               -1622.3194372274122088
    Two-Electron Energy =                 655.5627833782152720
    Total Energy =                       -473.3698446174200853
  Basis Set: (AUG-CC-PVTZ AUX)
    Blend: AUG-CC-PVTZ-RI
    Molecular point group: c1

    Geometry (in Angstrom), charge = 0, multiplicity = 1:

       Center              X                  Y                   Z               Mass
    ------------   -----------------  -----------------  -----------------  -----------------
         O            2.809391220677     0.498746525501     0.028240433378    15.994914619570
         O            2.102772220677    -1.584980474499    -0.007174566622    15.994914619570
         N            1.908744220677    -0.357462474499     0.009957433378    14.003074004430
         C           -1.835697779323    -0.392811474499    -0.004162566622    12.000000000000
         C           -0.506635779323    -0.828466474499     0.002260433378    12.000000000000
         C            0.516684320677     0.117382925501    -0.090697566622    12.000000000000
         C           -2.093629779323     0.985421525501    -0.000894566622    12.000000000000
         C            0.278163220677     1.487422525501     0.011898433378    12.000000000000
         C           -1.049867779323     1.912547525501     0.005581433378    12.000000000000
         C           -2.964982779323    -1.388899474499     0.026386433378    12.000000000000
         H           -0.258806779323    -1.885312474499    -0.003463566622     1.007825032230
         H           -3.124232779323     1.335814525501    -0.010000566622     1.007825032230
         H            1.107928220677     2.184973525501     0.014237433378     1.007825032230
         H           -1.270537779323     2.976917525501     0.003425433378     1.007825032230
         H           -2.657613779323    -2.344254474499    -0.406624566622     1.007825032230
         H           -3.290552779323    -1.576627474499     1.054969433378     1.007825032230
         H           -3.828263779323    -1.020310474499    -0.534314566622     1.007825032230

  Basis Set: AUG-CC-PVTZ
    Blend: AUG-CC-PVTZ
  Basis Set: (AUG-CC-PVTZ AUX)
    Blend: AUG-CC-PVTZ-JKFIT
	 Reference Energy          =    -473.3698446174201422 [Eh]
	 Singles Energy            =      -0.0000000000000000 [Eh]
	 Same-Spin Energy          =      -0.5030568729127021 [Eh]
	 Opposite-Spin Energy      =      -1.5163616523957835 [Eh]
	 Correlation Energy        =      -2.0194185253084855 [Eh]
	 Total Energy              =    -475.3892631427286233 [Eh]

	 ================> DF-SCS-MP2 Energies <==================
	-----------------------------------------------------------
	 SCS Same-Spin Scale       =       0.3333333333333333 [-]
	 SCS Opposite-Spin Scale   =       1.2000000000000000 [-]
	 SCS Same-Spin Energy      =      -0.1676856243042340 [Eh]
	 SCS Opposite-Spin Energy  =      -1.8196339828749402 [Eh]
	 SCS Correlation Energy    =      -1.9873196071791741 [Eh]
	 SCS Total Energy          =    -475.3571642245993303 [Eh]
	-----------------------------------------------------------

  Dipole Moment: [D]
     X:    -4.5821      Y:     1.0592      Z:     0.0061     Total:     4.7029

*** Psi4 exiting successfully. Buy a developer a beer!
