                               Psi4 1.3.2 release

  ==> Input File <==

--------------------------------------------------------------------------
#psi4
#
memory 32 gb

molecule  {
0 1
  O        2.9010970     0.5011680     0.0190930
  O        2.1944780    -1.5825590    -0.0163220
  N        2.0004500    -0.3550410     0.0008100
  C       -1.7439920    -0.3903900    -0.0133100
  C       -0.4149300    -0.8260450    -0.0068870
  C        0.6078150     0.1183000     0.0001420
  C       -2.0019240     0.9878430    -0.0100420
  C        0.3701233     1.4901740    -0.0972481
  C       -0.9581620     1.9149690    -0.0035660
  C       -2.8732770    -1.3864780     0.0172390
  H       -0.1671010    -1.8828910    -0.0126110
  H       -3.0325270     1.3382360    -0.0191480
  H        1.1996340     2.1873950     0.0050900
  H       -1.1788320     2.9793390    -0.0057220
  H       -2.5659080    -2.3418330    -0.4157720
  H       -3.1988470    -1.5742060     1.0458220
  H       -3.7365580    -1.0178890    -0.5434620
units angstrom
no_reorient  #important for SAPT in psi4, default
symmetry c1  #important for SAPT in psi4, default
}

set PROPERTIES_ORIGIN ["COM"]
properties('MP2/aug-cc-pvtz', properties = ['dipole'])
--------------------------------------------------------------------------

    Molecular point group: c1
  Charge       = 0
  Multiplicity = 1
  Basis Set: AUG-CC-PVTZ
    Blend: AUG-CC-PVTZ
  Basis Set: (AUG-CC-PVTZ AUX)
    Blend: AUG-CC-PVTZ-JKFIT

    Orbital Energies [Eh]
    ---------------------

    Doubly Occupied:

       1A    -20.603321     2A    -20.603250     3A    -15.853305
       4A    -11.312146     5A    -11.273408     6A    -11.272653
       7A    -11.270384     8A    -11.268384     9A    -11.266008
      10A    -11.245217    11A     -1.586601    12A     -1.385121
      13A     -1.197754    14A     -1.100542    15A     -1.065160
      16A     -0.968871    17A     -0.955128    18A     -0.847892
      19A     -0.817175    20A     -0.761728    21A     -0.722136
      22A     -0.707226    23A     -0.701973    24A     -0.663931
      25A     -0.635286    26A     -0.602976    27A     -0.597291
      28A     -0.565129    29A     -0.543175    30A     -0.522575
      31A     -0.518663    32A     -0.493329    33A     -0.491686
      34A     -0.451198    35A     -0.373405    36A     -0.356329

  @DF-RHF Final Energy:  -473.36986823975201

   => Energetics <=

    Nuclear Repulsion Energy =            493.4152197364830386
    One-Electron Energy =               -1622.3694603682913566
    Two-Electron Energy =                 655.5843723920562525
    Total Energy =                       -473.3698682397520088
  Basis Set: (AUG-CC-PVTZ AUX)
    Blend: AUG-CC-PVTZ-RI
    Molecular point group: c1

    Geometry (in Angstrom), charge = 0, multiplicity = 1:

       Center              X                  Y                   Z               Mass
    ------------   -----------------  -----------------  -----------------  -----------------
         O            2.809419310171     0.498849356867     0.028241492863    15.994914619570
         O            2.102800310171    -1.584877643133    -0.007173507137    15.994914619570
         N            1.908772310171    -0.357359643133     0.009958492863    14.003074004430
         C           -1.835669689829    -0.392708643133    -0.004161507137    12.000000000000
         C           -0.506607689829    -0.828363643133     0.002261492863    12.000000000000
         C            0.516137310171     0.115981356867     0.009290492863    12.000000000000
         C           -2.093601689829     0.985524356867    -0.000893507137    12.000000000000
         C            0.278445610171     1.487855356867    -0.088099607137    12.000000000000
         C           -1.049839689829     1.912650356867     0.005582492863    12.000000000000
         C           -2.964954689829    -1.388796643133     0.026387492863    12.000000000000
         H           -0.258778689829    -1.885209643133    -0.003462507137     1.007825032230
         H           -3.124204689829     1.335917356867    -0.009999507137     1.007825032230
         H            1.107956310171     2.185076356867     0.014238492863     1.007825032230
         H           -1.270509689829     2.977020356867     0.003426492863     1.007825032230
         H           -2.657585689829    -2.344151643133    -0.406623507137     1.007825032230
         H           -3.290524689829    -1.576524643133     1.054970492863     1.007825032230
         H           -3.828235689829    -1.020207643133    -0.534313507137     1.007825032230

  Basis Set: AUG-CC-PVTZ
    Blend: AUG-CC-PVTZ
  Basis Set: (AUG-CC-PVTZ AUX)
    Blend: AUG-CC-PVTZ-JKFIT
	 Reference Energy          =    -473.3698682397520088 [Eh]
	 Singles Energy            =      -0.0000000000000000 [Eh]
	 Same-Spin Energy          =      -0.5031417472909230 [Eh]
	 Opposite-Spin Energy      =      -1.5165003242624322 [Eh]
	 Correlation Energy        =      -2.0196420715533554 [Eh]
	 Total Energy              =    -475.3895103113053437 [Eh]

	 ================> DF-SCS-MP2 Energies <==================
	-----------------------------------------------------------
	 SCS Same-Spin Scale       =       0.3333333333333333 [-]
	 SCS Opposite-Spin Scale   =       1.2000000000000000 [-]
	 SCS Same-Spin Energy      =      -0.1677139157636410 [Eh]
	 SCS Opposite-Spin Energy  =      -1.8198003891149186 [Eh]
	 SCS Correlation Energy    =      -1.9875143048785595 [Eh]
	 SCS Total Energy          =    -475.3573825446305818 [Eh]
	-----------------------------------------------------------

  Dipole Moment: [D]
     X:    -4.5828      Y:     1.0406      Z:     0.0800     Total:     4.7001

*** Psi4 exiting successfully. Buy a developer a beer!
