                               Psi4 1.3.2 release

  ==> Input File <==

--------------------------------------------------------------------------
#psi4
#
memory 32 gb

molecule  {
0 1
  O        2.9010970     0.5011680     0.0190930
  O        2.1944780    -1.5825590    -0.0163220
  N        2.0004500    -0.3550410     0.0008100
  C       -1.7439920    -0.3903900    -0.0133100
  C       -0.4149300    -0.8260450    -0.0068870
  C        0.6078150     0.1183000     0.0001420
  C       -2.0019240     0.9878430    -0.0100420
  C        0.3705048     1.4906690    -0.2472468
  C       -0.9581620     1.9149690    -0.0035660
  C       -2.8732770    -1.3864780     0.0172390
  H       -0.1671010    -1.8828910    -0.0126110
  H       -3.0325270     1.3382360    -0.0191480
  H        1.1996340     2.1873950     0.0050900
  H       -1.1788320     2.9793390    -0.0057220
  H       -2.5659080    -2.3418330    -0.4157720
  H       -3.1988470    -1.5742060     1.0458220
  H       -3.7365580    -1.0178890    -0.5434620
units angstrom
no_reorient  #important for SAPT in psi4, default
symmetry c1  #important for SAPT in psi4, default
}

set PROPERTIES_ORIGIN ["COM"]
properties('MP2/aug-cc-pvtz', properties = ['dipole'])
--------------------------------------------------------------------------

    Molecular point group: c1
  Charge       = 0
  Multiplicity = 1
  Basis Set: AUG-CC-PVTZ
    Blend: AUG-CC-PVTZ
  Basis Set: (AUG-CC-PVTZ AUX)
    Blend: AUG-CC-PVTZ-JKFIT

    Orbital Energies [Eh]
    ---------------------

    Doubly Occupied:

       1A    -20.603590     2A    -20.603430     3A    -15.853120
       4A    -11.315618     5A    -11.276430     6A    -11.275777
       7A    -11.270520     8A    -11.270067     9A    -11.267415
      10A    -11.246273    11A     -1.586670    12A     -1.385155
      13A     -1.195944    14A     -1.100184    15A     -1.063456
      16A     -0.969414    17A     -0.953608    18A     -0.845616
      19A     -0.816780    20A     -0.759449    21A     -0.721462
      22A     -0.707409    23A     -0.698550    24A     -0.660955
      25A     -0.634599    26A     -0.601454    27A     -0.594107
      28A     -0.564389    29A     -0.542548    30A     -0.523136
      31A     -0.513296    32A     -0.493270    33A     -0.491439
      34A     -0.451007    35A     -0.371521    36A     -0.356448

  @DF-RHF Final Energy:  -473.35300423509580

   => Energetics <=

    Nuclear Repulsion Energy =            492.7981498933142461
    One-Electron Energy =               -1621.1340980733637025
    Two-Electron Energy =                 654.9829439449536039
    Total Energy =                       -473.3530042350957956
  Basis Set: (AUG-CC-PVTZ AUX)
    Blend: AUG-CC-PVTZ-RI
    Molecular point group: c1

    Geometry (in Angstrom), charge = 0, multiplicity = 1:

       Center              X                  Y                   Z               Mass
    ------------   -----------------  -----------------  -----------------  -----------------
         O            2.809385905738     0.498806014287     0.041375494257    15.994914619570
         O            2.102766905738    -1.584920985713     0.005960494257    15.994914619570
         N            1.908738905738    -0.357402985713     0.023092494257    14.003074004430
         C           -1.835703094262    -0.392751985713     0.008972494257    12.000000000000
         C           -0.506641094262    -0.828406985713     0.015395494257    12.000000000000
         C            0.516103905738     0.115938014287     0.022424494257    12.000000000000
         C           -2.093635094262     0.985481014287     0.012240494257    12.000000000000
         C            0.278793705738     1.488307014287    -0.224964305743    12.000000000000
         C           -1.049873094262     1.912607014287     0.018716494257    12.000000000000
         C           -2.964988094262    -1.388839985713     0.039521494257    12.000000000000
         H           -0.258812094262    -1.885252985713     0.009671494257     1.007825032230
         H           -3.124238094262     1.335874014287     0.003134494257     1.007825032230
         H            1.107922905738     2.185033014287     0.027372494257     1.007825032230
         H           -1.270543094262     2.976977014287     0.016560494257     1.007825032230
         H           -2.657619094262    -2.344194985713    -0.393489505743     1.007825032230
         H           -3.290558094262    -1.576567985713     1.068104494257     1.007825032230
         H           -3.828269094262    -1.020250985713    -0.521179505743     1.007825032230

  Basis Set: AUG-CC-PVTZ
    Blend: AUG-CC-PVTZ
  Basis Set: (AUG-CC-PVTZ AUX)
    Blend: AUG-CC-PVTZ-JKFIT
	 Reference Energy          =    -473.3530042350957956 [Eh]
	 Singles Energy            =      -0.0000000000000000 [Eh]
	 Same-Spin Energy          =      -0.5041112832042735 [Eh]
	 Opposite-Spin Energy      =      -1.5192456580135199 [Eh]
	 Correlation Energy        =      -2.0233569412177932 [Eh]
	 Total Energy              =    -475.3763611763135941 [Eh]

	 ================> DF-SCS-MP2 Energies <==================
	-----------------------------------------------------------
	 SCS Same-Spin Scale       =       0.3333333333333333 [-]
	 SCS Opposite-Spin Scale   =       1.2000000000000000 [-]
	 SCS Same-Spin Energy      =      -0.1680370944014245 [Eh]
	 SCS Opposite-Spin Energy  =      -1.8230947896162237 [Eh]
	 SCS Correlation Energy    =      -1.9911318840176482 [Eh]
	 SCS Total Energy          =    -475.3441361191134433 [Eh]
	-----------------------------------------------------------

  Dipole Moment: [D]
     X:    -4.6585      Y:     0.9631      Z:     0.1566     Total:     4.7596

*** Psi4 exiting successfully. Buy a developer a beer!
