                               Psi4 1.3.2 release

  ==> Input File <==

--------------------------------------------------------------------------
#psi4
#
memory 32 gb

molecule  {
0 1
  O        2.9010970     0.5011680     0.0190930
  O        2.1944780    -1.5825590    -0.0163220
  N        2.0004500    -0.3550410     0.0008100
  C       -1.7439920    -0.3903900    -0.0133100
  C       -0.4149300    -0.8260450    -0.0068870
  C        0.6095403     0.1228131    -0.2998191
  C       -2.0019240     0.9878430    -0.0100420
  C        0.3698690     1.4898440     0.0027510
  C       -0.9581620     1.9149690    -0.0035660
  C       -2.8732770    -1.3864780     0.0172390
  H       -0.1671010    -1.8828910    -0.0126110
  H       -3.0325270     1.3382360    -0.0191480
  H        1.1996340     2.1873950     0.0050900
  H       -1.1788320     2.9793390    -0.0057220
  H       -2.5659080    -2.3418330    -0.4157720
  H       -3.1988470    -1.5742060     1.0458220
  H       -3.7365580    -1.0178890    -0.5434620
units angstrom
no_reorient  #important for SAPT in psi4, default
symmetry c1  #important for SAPT in psi4, default
}

set PROPERTIES_ORIGIN ["COM"]
properties('MP2/aug-cc-pvtz', properties = ['dipole'])
--------------------------------------------------------------------------

    Molecular point group: c1
  Charge       = 0
  Multiplicity = 1
  Basis Set: AUG-CC-PVTZ
    Blend: AUG-CC-PVTZ
  Basis Set: (AUG-CC-PVTZ AUX)
    Blend: AUG-CC-PVTZ-JKFIT

    Orbital Energies [Eh]
    ---------------------

    Doubly Occupied:

       1A    -20.600326     2A    -20.600276     3A    -15.849529
       4A    -11.316224     5A    -11.278779     6A    -11.277847
       7A    -11.273866     8A    -11.271980     9A    -11.265010
      10A    -11.245335    11A     -1.581660    12A     -1.381610
      13A     -1.193760    14A     -1.094925    15A     -1.064121
      16A     -0.963719    17A     -0.950771    18A     -0.844997
      19A     -0.815565    20A     -0.755534    21A     -0.718430
      22A     -0.707091    23A     -0.698896    24A     -0.659795
      25A     -0.636384    26A     -0.602806    27A     -0.597996
      28A     -0.565340    29A     -0.544975    30A     -0.520102
      31A     -0.517198    32A     -0.489514    33A     -0.484277
      34A     -0.448493    35A     -0.374078    36A     -0.354250

  @DF-RHF Final Energy:  -473.34438258830517

   => Energetics <=

    Nuclear Repulsion Energy =            492.2243946522320357
    One-Electron Energy =               -1620.0466364981509741
    Two-Electron Energy =                 654.4778592576138863
    Total Energy =                       -473.3443825883051659
  Basis Set: (AUG-CC-PVTZ AUX)
    Blend: AUG-CC-PVTZ-RI
    Molecular point group: c1

    Geometry (in Angstrom), charge = 0, multiplicity = 1:

       Center              X                  Y                   Z               Mass
    ------------   -----------------  -----------------  -----------------  -----------------
         O            2.809290508281     0.498483081418     0.045750319184    15.994914619570
         O            2.102671508281    -1.585243918582     0.010335319184    15.994914619570
         N            1.908643508281    -0.357725918582     0.027467319184    14.003074004430
         C           -1.835798491719    -0.393074918582     0.013347319184    12.000000000000
         C           -0.506736491719    -0.828729918582     0.019770319184    12.000000000000
         C            0.517733808281     0.120128181418    -0.273161780816    12.000000000000
         C           -2.093730491719     0.985158081418     0.016615319184    12.000000000000
         C            0.278062508281     1.487159081418     0.029408319184    12.000000000000
         C           -1.049968491719     1.912284081418     0.023091319184    12.000000000000
         C           -2.965083491719    -1.389162918582     0.043896319184    12.000000000000
         H           -0.258907491719    -1.885575918582     0.014046319184     1.007825032230
         H           -3.124333491719     1.335551081418     0.007509319184     1.007825032230
         H            1.107827508281     2.184710081418     0.031747319184     1.007825032230
         H           -1.270638491719     2.976654081418     0.020935319184     1.007825032230
         H           -2.657714491719    -2.344517918582    -0.389114680816     1.007825032230
         H           -3.290653491719    -1.576890918582     1.072479319184     1.007825032230
         H           -3.828364491719    -1.020573918582    -0.516804680816     1.007825032230

  Basis Set: AUG-CC-PVTZ
    Blend: AUG-CC-PVTZ
  Basis Set: (AUG-CC-PVTZ AUX)
    Blend: AUG-CC-PVTZ-JKFIT
	 Reference Energy          =    -473.3443825883051659 [Eh]
	 Singles Energy            =      -0.0000000000000000 [Eh]
	 Same-Spin Energy          =      -0.5038089216733576 [Eh]
	 Opposite-Spin Energy      =      -1.5193942566649628 [Eh]
	 Correlation Energy        =      -2.0232031783383202 [Eh]
	 Total Energy              =    -475.3675857666434581 [Eh]

	 ================> DF-SCS-MP2 Energies <==================
	-----------------------------------------------------------
	 SCS Same-Spin Scale       =       0.3333333333333333 [-]
	 SCS Opposite-Spin Scale   =       1.2000000000000000 [-]
	 SCS Same-Spin Energy      =      -0.1679363072244525 [Eh]
	 SCS Opposite-Spin Energy  =      -1.8232731079979552 [Eh]
	 SCS Correlation Energy    =      -1.9912094152224076 [Eh]
	 SCS Total Energy          =    -475.3355920035275517 [Eh]
	-----------------------------------------------------------

  Dipole Moment: [D]
     X:    -4.6904      Y:     1.0866      Z:    -0.0399     Total:     4.8148

*** Psi4 exiting successfully. Buy a developer a beer!
