                               Psi4 1.3.2 release

  ==> Input File <==

--------------------------------------------------------------------------
#psi4
#
memory 32 gb

molecule  {
0 1
  O        2.9010970     0.5011680     0.0190930
  O        2.1944780    -1.5825590    -0.0163220
  N        2.0004500    -0.3550410     0.0008100
  C       -1.7439920    -0.3903900    -0.0133100
  C       -0.4149300    -0.8260450    -0.0068870
  C        0.6089652     0.1213087    -0.1998321
  C       -2.0019240     0.9878430    -0.0100420
  C        0.3698690     1.4898440     0.0027510
  C       -0.9581620     1.9149690    -0.0035660
  C       -2.8732770    -1.3864780     0.0172390
  H       -0.1671010    -1.8828910    -0.0126110
  H       -3.0325270     1.3382360    -0.0191480
  H        1.1996340     2.1873950     0.0050900
  H       -1.1788320     2.9793390    -0.0057220
  H       -2.5659080    -2.3418330    -0.4157720
  H       -3.1988470    -1.5742060     1.0458220
  H       -3.7365580    -1.0178890    -0.5434620
units angstrom
no_reorient  #important for SAPT in psi4, default
symmetry c1  #important for SAPT in psi4, default
}

set PROPERTIES_ORIGIN ["COM"]
properties('MP2/aug-cc-pvtz', properties = ['dipole'])
--------------------------------------------------------------------------

    Molecular point group: c1
  Charge       = 0
  Multiplicity = 1
  Basis Set: AUG-CC-PVTZ
    Blend: AUG-CC-PVTZ
  Basis Set: (AUG-CC-PVTZ AUX)
    Blend: AUG-CC-PVTZ-JKFIT

    Orbital Energies [Eh]
    ---------------------

    Doubly Occupied:

       1A    -20.601976     2A    -20.601927     3A    -15.851739
       4A    -11.313694     5A    -11.274914     6A    -11.274137
       7A    -11.272449     8A    -11.270531     9A    -11.265136
      10A    -11.245110    11A     -1.584404    12A     -1.383577
      13A     -1.196091    14A     -1.098096    15A     -1.064832
      16A     -0.966107    17A     -0.953549    18A     -0.846834
      19A     -0.816457    20A     -0.759224    21A     -0.720580
      22A     -0.706796    23A     -0.701293    24A     -0.662343
      25A     -0.635778    26A     -0.603094    27A     -0.597922
      28A     -0.565329    29A     -0.544021    30A     -0.520959
      31A     -0.519010    32A     -0.490905    33A     -0.489168
      34A     -0.450035    35A     -0.373739    36A     -0.355422

  @DF-RHF Final Energy:  -473.36031217990848

   => Energetics <=

    Nuclear Repulsion Energy =            492.9453173106004442
    One-Electron Energy =               -1621.4569021535642150
    Two-Electron Energy =                 655.1512726630552379
    Total Energy =                       -473.3603121799084192
  Basis Set: (AUG-CC-PVTZ AUX)
    Blend: AUG-CC-PVTZ-RI
    Molecular point group: c1

    Geometry (in Angstrom), charge = 0, multiplicity = 1:

       Center              X                  Y                   Z               Mass
    ------------   -----------------  -----------------  -----------------  -----------------
         O            2.809340864479     0.498614807838     0.036995380659    15.994914619570
         O            2.102721864479    -1.585112192162     0.001580380659    15.994914619570
         N            1.908693864479    -0.357594192162     0.018712380659    14.003074004430
         C           -1.835748135521    -0.392943192162     0.004592380659    12.000000000000
         C           -0.506686135521    -0.828598192162     0.011015380659    12.000000000000
         C            0.517209064479     0.118755507838    -0.181929719341    12.000000000000
         C           -2.093680135521     0.985289807838     0.007860380659    12.000000000000
         C            0.278112864479     1.487290807838     0.020653380659    12.000000000000
         C           -1.049918135521     1.912415807838     0.014336380659    12.000000000000
         C           -2.965033135521    -1.389031192162     0.035141380659    12.000000000000
         H           -0.258857135521    -1.885444192162     0.005291380659     1.007825032230
         H           -3.124283135521     1.335682807838    -0.001245619341     1.007825032230
         H            1.107877864479     2.184841807838     0.022992380659     1.007825032230
         H           -1.270588135521     2.976785807838     0.012180380659     1.007825032230
         H           -2.657664135521    -2.344386192162    -0.397869619341     1.007825032230
         H           -3.290603135521    -1.576759192162     1.063724380659     1.007825032230
         H           -3.828314135521    -1.020442192162    -0.525559619341     1.007825032230

  Basis Set: AUG-CC-PVTZ
    Blend: AUG-CC-PVTZ
  Basis Set: (AUG-CC-PVTZ AUX)
    Blend: AUG-CC-PVTZ-JKFIT
	 Reference Energy          =    -473.3603121799084761 [Eh]
	 Singles Energy            =      -0.0000000000000000 [Eh]
	 Same-Spin Energy          =      -0.5033478026396373 [Eh]
	 Opposite-Spin Energy      =      -1.5174574420112923 [Eh]
	 Correlation Energy        =      -2.0208052446509295 [Eh]
	 Total Energy              =    -475.3811174245594202 [Eh]

	 ================> DF-SCS-MP2 Energies <==================
	-----------------------------------------------------------
	 SCS Same-Spin Scale       =       0.3333333333333333 [-]
	 SCS Opposite-Spin Scale   =       1.2000000000000000 [-]
	 SCS Same-Spin Energy      =      -0.1677826008798791 [Eh]
	 SCS Opposite-Spin Energy  =      -1.8209489304135507 [Eh]
	 SCS Correlation Energy    =      -1.9887315312934297 [Eh]
	 SCS Total Energy          =    -475.3490437112018867 [Eh]
	-----------------------------------------------------------

  Dipole Moment: [D]
     X:    -4.6230      Y:     1.0695      Z:    -0.0194     Total:     4.7452

*** Psi4 exiting successfully. Buy a developer a beer!
