                               Psi4 1.3.2 release

  ==> Input File <==

--------------------------------------------------------------------------
#psi4
#
memory 32 gb

molecule  {
0 1
  O        2.9010970     0.5011680     0.0190930
  O        2.1944780    -1.5825590    -0.0163220
  N        2.0004500    -0.3550410     0.0008100
  C       -1.7439920    -0.3903900    -0.0133100
  C       -0.4149300    -0.8260450    -0.0068870
  C        0.6092528     0.1220609    -0.2498256
  C       -2.0019240     0.9878430    -0.0100420
  C        0.3698690     1.4898440     0.0027510
  C       -0.9581620     1.9149690    -0.0035660
  C       -2.8732770    -1.3864780     0.0172390
  H       -0.1671010    -1.8828910    -0.0126110
  H       -3.0325270     1.3382360    -0.0191480
  H        1.1996340     2.1873950     0.0050900
  H       -1.1788320     2.9793390    -0.0057220
  H       -2.5659080    -2.3418330    -0.4157720
  H       -3.1988470    -1.5742060     1.0458220
  H       -3.7365580    -1.0178890    -0.5434620
units angstrom
no_reorient  #important for SAPT in psi4, default
symmetry c1  #important for SAPT in psi4, default
}

set PROPERTIES_ORIGIN ["COM"]
properties('MP2/aug-cc-pvtz', properties = ['dipole'])
--------------------------------------------------------------------------

    Molecular point group: c1
  Charge       = 0
  Multiplicity = 1
  Basis Set: AUG-CC-PVTZ
    Blend: AUG-CC-PVTZ
  Basis Set: (AUG-CC-PVTZ AUX)
    Blend: AUG-CC-PVTZ-JKFIT

    Orbital Energies [Eh]
    ---------------------

    Doubly Occupied:

       1A    -20.601236     2A    -20.601187     3A    -15.850770
       4A    -11.314868     5A    -11.276665     6A    -11.275785
       7A    -11.272736     8A    -11.271550     9A    -11.265072
      10A    -11.245203    11A     -1.583169    12A     -1.382696
      13A     -1.195011    14A     -1.096664    15A     -1.064509
      16A     -0.964921    17A     -0.952347    18A     -0.845981
      19A     -0.816052    20A     -0.757553    21A     -0.719615
      22A     -0.706879    23A     -0.700256    24A     -0.661166
      25A     -0.636045    26A     -0.602968    27A     -0.597948
      28A     -0.565332    29A     -0.544448    30A     -0.520587
      31A     -0.518192    32A     -0.490274    33A     -0.486978
      34A     -0.449345    35A     -0.373857    36A     -0.354884

  @DF-RHF Final Energy:  -473.35314639995119

   => Energetics <=

    Nuclear Repulsion Energy =            492.6184784026880266
    One-Electron Energy =               -1620.8177536598464030
    Two-Electron Energy =                 654.8461288572071908
    Total Energy =                       -473.3531463999512425
  Basis Set: (AUG-CC-PVTZ AUX)
    Blend: AUG-CC-PVTZ-RI
    Molecular point group: c1

    Geometry (in Angstrom), charge = 0, multiplicity = 1:

       Center              X                  Y                   Z               Mass
    ------------   -----------------  -----------------  -----------------  -----------------
         O            2.809315682002     0.498548944628     0.041372849921    15.994914619570
         O            2.102696682002    -1.585178055372     0.005957849921    15.994914619570
         N            1.908668682002    -0.357660055372     0.023089849921    14.003074004430
         C           -1.835773317998    -0.393009055372     0.008969849921    12.000000000000
         C           -0.506711317998    -0.828664055372     0.015392849921    12.000000000000
         C            0.517471482002     0.119441844628    -0.227545750079    12.000000000000
         C           -2.093705317998     0.985223944628     0.012237849921    12.000000000000
         C            0.278087682002     1.487224944628     0.025030849921    12.000000000000
         C           -1.049943317998     1.912349944628     0.018713849921    12.000000000000
         C           -2.965058317998    -1.389097055372     0.039518849921    12.000000000000
         H           -0.258882317998    -1.885510055372     0.009668849921     1.007825032230
         H           -3.124308317998     1.335616944628     0.003131849921     1.007825032230
         H            1.107852682002     2.184775944628     0.027369849921     1.007825032230
         H           -1.270613317998     2.976719944628     0.016557849921     1.007825032230
         H           -2.657689317998    -2.344452055372    -0.393492150079     1.007825032230
         H           -3.290628317998    -1.576825055372     1.068101849921     1.007825032230
         H           -3.828339317998    -1.020508055372    -0.521182150079     1.007825032230

  Basis Set: AUG-CC-PVTZ
    Blend: AUG-CC-PVTZ
  Basis Set: (AUG-CC-PVTZ AUX)
    Blend: AUG-CC-PVTZ-JKFIT
	 Reference Energy          =    -473.3531463999511857 [Eh]
	 Singles Energy            =      -0.0000000000000000 [Eh]
	 Same-Spin Energy          =      -0.5035595782619326 [Eh]
	 Opposite-Spin Energy      =      -1.5183207265623295 [Eh]
	 Correlation Energy        =      -2.0218803048242622 [Eh]
	 Total Energy              =    -475.3750267047754505 [Eh]

	 ================> DF-SCS-MP2 Energies <==================
	-----------------------------------------------------------
	 SCS Same-Spin Scale       =       0.3333333333333333 [-]
	 SCS Opposite-Spin Scale   =       1.2000000000000000 [-]
	 SCS Same-Spin Energy      =      -0.1678531927539775 [Eh]
	 SCS Opposite-Spin Energy  =      -1.8219848718747953 [Eh]
	 SCS Correlation Energy    =      -1.9898380646287728 [Eh]
	 SCS Total Energy          =    -475.3429844645799562 [Eh]
	-----------------------------------------------------------

  Dipole Moment: [D]
     X:    -4.6535      Y:     1.0773      Z:    -0.0303     Total:     4.7767

*** Psi4 exiting successfully. Buy a developer a beer!
