                               Psi4 1.4a3.dev225

  ==> Input File <==

--------------------------------------------------------------------------
#psi4
#
memory 32 gb

molecule  {
1 1
  N       -2.4283840    -0.9794160    -0.0083510
  C       -1.1357273    -0.2235863     0.0174242
  C        1.2518020    -0.2721820    -0.0143110
  C        0.0325720    -0.9600410    -0.0018850
  C       -1.1926600     1.1553070     0.0124660
  C        1.2305980     1.1300670    -0.0135530
  C        0.0267990     1.8353860     0.0007220
  C        2.5554400    -1.0247750     0.0087590
  H        0.0173310    -2.0482160    -0.0066590
  H       -2.1350750     1.6966590     0.0194740
  H        2.1710470     1.6766600    -0.0258320
  H        0.0318520     2.9216190    -0.0004860
  H       -3.1892600    -0.4557660     0.4440390
  H       -2.7337660    -1.1857680    -0.9692710
  H       -2.3540760    -1.8789800     0.4839570
  H        2.4304730    -2.0404690    -0.3743800
  H        3.3081630    -0.5154690    -0.5984160
  H        2.9426300    -1.0948430     1.0303570
units angstrom
no_reorient  #important for SAPT in psi4, default
symmetry c1  #important for SAPT in psi4, default
}

set PROPERTIES_ORIGIN ["COM"]
properties('MP2/aug-cc-pvtz', properties = ['dipole'])
--------------------------------------------------------------------------

    Molecular point group: c1
  Charge       = 1
  Multiplicity = 1
  Basis Set: AUG-CC-PVTZ
    Blend: AUG-CC-PVTZ
  Basis Set: (AUG-CC-PVTZ AUX)
    Blend: AUG-CC-PVTZ-JKFIT

    Orbital Energies [Eh]
    ---------------------

    Doubly Occupied:

       1A    -15.891563     2A    -11.463143     3A    -11.402740
       4A    -11.401325     5A    -11.399388     6A    -11.391926
       7A    -11.381812     8A    -11.348668     9A     -1.505439
      10A     -1.314976    11A     -1.202178    12A     -1.176139
      13A     -1.083463    14A     -1.001624    15A     -0.983697
      16A     -0.952292    17A     -0.925382    18A     -0.871356
      19A     -0.826919    20A     -0.793702    21A     -0.753827
      22A     -0.729894    23A     -0.707470    24A     -0.678394
      25A     -0.652980    26A     -0.651908    27A     -0.643298
      28A     -0.501873    29A     -0.484522

  @DF-RHF Final Energy:  -325.24203139722874

   => Energetics <=

    Nuclear Repulsion Energy =            353.7086949220916949
    One-Electron Energy =               -1129.6576598306317010
    Two-Electron Energy =                 450.7069335113112629
    Total Energy =                       -325.2420313972287431
  Basis Set: (AUG-CC-PVTZ AUX)
    Blend: AUG-CC-PVTZ-RI
    Molecular point group: c1

    Geometry (in Angstrom), charge = 1, multiplicity = 1:

       Center              X                  Y                   Z               Mass
    ------------   -----------------  -----------------  -----------------  -----------------
         N           -2.425739615986    -1.007356218273    -0.008363319483    14.003074004430
         C           -1.133082915986    -0.251526518273     0.017411880517    12.000000000000
         C            1.254446384014    -0.300122218273    -0.014323319483    12.000000000000
         C            0.035216384014    -0.987981218273    -0.001897319483    12.000000000000
         C           -1.190015615986     1.127366781727     0.012453680517    12.000000000000
         C            1.233242384014     1.102126781727    -0.013565319483    12.000000000000
         C            0.029443384014     1.807445781727     0.000709680517    12.000000000000
         C            2.558084384014    -1.052715218273     0.008746680517    12.000000000000
         H            0.019975384014    -2.076156218273    -0.006671319483     1.007825032230
         H           -2.132430615986     1.668718781727     0.019461680517     1.007825032230
         H            2.173691384014     1.648719781727    -0.025844319483     1.007825032230
         H            0.034496384014     2.893678781727    -0.000498319483     1.007825032230
         H           -3.186615615986    -0.483706218273     0.444026680517     1.007825032230
         H           -2.731121615986    -1.213708218273    -0.969283319483     1.007825032230
         H           -2.351431615986    -1.906920218273     0.483944680517     1.007825032230
         H            2.433117384014    -2.068409218273    -0.374392319483     1.007825032230
         H            3.310807384014    -0.543409218273    -0.598428319483     1.007825032230
         H            2.945274384014    -1.122783218273     1.030344680517     1.007825032230

  Basis Set: AUG-CC-PVTZ
    Blend: AUG-CC-PVTZ
  Basis Set: (AUG-CC-PVTZ AUX)
    Blend: AUG-CC-PVTZ-JKFIT
	 Reference Energy          =    -325.2420313972287431 [Eh]
	 Singles Energy            =      -0.0000000000000000 [Eh]
	 Same-Spin Energy          =      -0.3530036810301836 [Eh]
	 Opposite-Spin Energy      =      -1.1486000982021207 [Eh]
	 Correlation Energy        =      -1.5016037792323043 [Eh]
	 Total Energy              =    -326.7436351764610549 [Eh]

	 ================> DF-SCS-MP2 Energies <==================
	-----------------------------------------------------------
	 SCS Same-Spin Scale       =       0.3333333333333333 [-]
	 SCS Opposite-Spin Scale   =       1.2000000000000000 [-]
	 SCS Same-Spin Energy      =      -0.1176678936767279 [Eh]
	 SCS Opposite-Spin Energy  =      -1.3783201178425448 [Eh]
	 SCS Correlation Energy    =      -1.4959880115192727 [Eh]
	 SCS Total Energy          =    -326.7380194087480163 [Eh]
	-----------------------------------------------------------

  Dipole Moment: [D]
     X:    -7.2956      Y:    -3.2059      Z:    -0.0370     Total:     7.9690

*** Psi4 exiting successfully. Buy a developer a beer!
