                               Psi4 1.3.2 release

  ==> Input File <==

--------------------------------------------------------------------------
#psi4
#
memory 32 gb

molecule  {
1 1
  N        2.4325060    -0.9845600     0.0091070
  C        1.1463630    -0.2321410    -0.0173850
  C       -1.2536230    -0.2748500     0.0109180
  C       -0.0352110    -0.9646830     0.0005950
  C        1.1983270     1.1549650    -0.0097610
  C       -1.2241940     1.1288950     0.0124220
  C       -0.0217590     1.8354230    -0.0002870
  C       -2.5623340    -1.0168010    -0.0065280
  H       -0.0261220    -2.0543070     0.0007630
  H        2.1405510     1.6994190    -0.0171620
  H       -2.1632860     1.6774730     0.0209780
  H       -0.0275340     2.9214870    -0.0002680
  H        3.2010119    -0.4411841    -0.4082030
  H        2.7260810    -1.2141090     0.9696670
  H        2.3592330    -1.8699500    -0.5112020
  H       -2.4267910    -2.0731080     0.2370320
  H       -3.2605850    -0.5864750     0.7158300
  H       -3.0261010    -0.9534780    -0.9957790
units angstrom
no_reorient  #important for SAPT in psi4, default
symmetry c1  #important for SAPT in psi4, default
}

set PROPERTIES_ORIGIN ["COM"]
properties('MP2/aug-cc-pvtz', properties = ['dipole'])
--------------------------------------------------------------------------

    Molecular point group: c1
  Charge       = 1
  Multiplicity = 1
  Basis Set: AUG-CC-PVTZ
    Blend: AUG-CC-PVTZ
  Basis Set: (AUG-CC-PVTZ AUX)
    Blend: AUG-CC-PVTZ-JKFIT

    Orbital Energies [Eh]
    ---------------------

    Doubly Occupied:

       1A    -15.892783     2A    -11.463793     3A    -11.404283
       4A    -11.402473     5A    -11.399603     6A    -11.391585
       7A    -11.382003     8A    -11.348650     9A     -1.506681
      10A     -1.312526    11A     -1.201244    12A     -1.174581
      13A     -1.082864    14A     -1.001678    15A     -0.984844
      16A     -0.952168    17A     -0.925993    18A     -0.870745
      19A     -0.827359    20A     -0.792010    21A     -0.753261
      22A     -0.729130    23A     -0.707088    24A     -0.678009
      25A     -0.651503    26A     -0.651116    27A     -0.643597
      28A     -0.500729    29A     -0.484084

  @DF-RHF Final Energy:  -325.24162010721409

   => Energetics <=

    Nuclear Repulsion Energy =            353.2673772261342151
    One-Electron Energy =               -1128.7852222781787077
    Two-Electron Energy =                 450.2762249448304601
    Total Energy =                       -325.2416201072140893
  Basis Set: (AUG-CC-PVTZ AUX)
    Blend: AUG-CC-PVTZ-RI
    Molecular point group: c1

    Geometry (in Angstrom), charge = 1, multiplicity = 1:

       Center              X                  Y                   Z               Mass
    ------------   -----------------  -----------------  -----------------  -----------------
         N            2.427640152877    -1.011076606052     0.008931565403    14.003074004430
         C            1.141497152877    -0.258657606052    -0.017560434597    12.000000000000
         C           -1.258488847123    -0.301366606052     0.010742565403    12.000000000000
         C           -0.040076847123    -0.991199606052     0.000419565403    12.000000000000
         C            1.193461152877     1.128448393948    -0.009936434597    12.000000000000
         C           -1.229059847123     1.102378393948     0.012246565403    12.000000000000
         C           -0.026624847123     1.808906393948    -0.000462434597    12.000000000000
         C           -2.567199847123    -1.043317606052    -0.006703434597    12.000000000000
         H           -0.030987847123    -2.080823606052     0.000587565403     1.007825032230
         H            2.135685152877     1.672902393948    -0.017337434597     1.007825032230
         H           -2.168151847123     1.650956393948     0.020802565403     1.007825032230
         H           -0.032399847123     2.894970393948    -0.000443434597     1.007825032230
         H            3.196146052877    -0.467700706052    -0.408378434597     1.007825032230
         H            2.721215152877    -1.240625606052     0.969491565403     1.007825032230
         H            2.354367152877    -1.896466606052    -0.511377434597     1.007825032230
         H           -2.431656847123    -2.099624606052     0.236856565403     1.007825032230
         H           -3.265450847123    -0.612991606052     0.715654565403     1.007825032230
         H           -3.030966847123    -0.979994606052    -0.995954434597     1.007825032230

  Basis Set: AUG-CC-PVTZ
    Blend: AUG-CC-PVTZ
  Basis Set: (AUG-CC-PVTZ AUX)
    Blend: AUG-CC-PVTZ-JKFIT
	 Reference Energy          =    -325.2416201072140893 [Eh]
	 Singles Energy            =      -0.0000000000000000 [Eh]
	 Same-Spin Energy          =      -0.3530673937012311 [Eh]
	 Opposite-Spin Energy      =      -1.1489292735992742 [Eh]
	 Correlation Energy        =      -1.5019966673005054 [Eh]
	 Total Energy              =    -326.7436167745145781 [Eh]

	 ================> DF-SCS-MP2 Energies <==================
	-----------------------------------------------------------
	 SCS Same-Spin Scale       =       0.3333333333333333 [-]
	 SCS Opposite-Spin Scale   =       1.2000000000000000 [-]
	 SCS Same-Spin Energy      =      -0.1176891312337437 [Eh]
	 SCS Opposite-Spin Energy  =      -1.3787151283191290 [Eh]
	 SCS Correlation Energy    =      -1.4964042595528728 [Eh]
	 SCS Total Energy          =    -326.7380243667669788 [Eh]
	-----------------------------------------------------------

  Dipole Moment: [D]
     X:     7.2951      Y:    -3.2031      Z:     0.0558     Total:     7.9675

*** Psi4 exiting successfully. Buy a developer a beer!
