                               Psi4 1.4a3.dev225

  ==> Input File <==

--------------------------------------------------------------------------
#psi4
#
memory 32 gb

molecule  {
1 1
  N       -2.4283840    -0.9794160    -0.0083510
  C       -1.1529900    -0.2336800     0.0170800
  C        1.2518020    -0.2721820    -0.0143110
  C        0.0325720    -0.9600410    -0.0018850
  C       -1.1926600     1.1553070     0.0124660
  C        1.2305980     1.1300670    -0.0135530
  C        0.0267990     1.8353860     0.0007220
  C        2.5381212    -1.0147768     0.0084525
  H        0.0173310    -2.0482160    -0.0066590
  H       -2.1350750     1.6966590     0.0194740
  H        2.1710470     1.6766600    -0.0258320
  H        0.0318520     2.9216190    -0.0004860
  H       -3.1892600    -0.4557660     0.4440390
  H       -2.7337660    -1.1857680    -0.9692710
  H       -2.3540760    -1.8789800     0.4839570
  H        2.4304730    -2.0404690    -0.3743800
  H        3.3081630    -0.5154690    -0.5984160
  H        2.9426300    -1.0948430     1.0303570
units angstrom
no_reorient  #important for SAPT in psi4, default
symmetry c1  #important for SAPT in psi4, default
}

set PROPERTIES_ORIGIN ["COM"]
properties('MP2/aug-cc-pvtz', properties = ['dipole'])
--------------------------------------------------------------------------

    Molecular point group: c1
  Charge       = 1
  Multiplicity = 1
  Basis Set: AUG-CC-PVTZ
    Blend: AUG-CC-PVTZ
  Basis Set: (AUG-CC-PVTZ AUX)
    Blend: AUG-CC-PVTZ-JKFIT

    Orbital Energies [Eh]
    ---------------------

    Doubly Occupied:

       1A    -15.894119     2A    -11.462579     3A    -11.403619
       4A    -11.402005     5A    -11.398319     6A    -11.391456
       7A    -11.382043     8A    -11.348817     9A     -1.511229
      10A     -1.312859    11A     -1.202812    12A     -1.175310
      13A     -1.082734    14A     -1.003849    15A     -0.985647
      16A     -0.955856    17A     -0.926655    18A     -0.872106
      19A     -0.829372    20A     -0.791457    21A     -0.753796
      22A     -0.730154    23A     -0.705587    24A     -0.676591
      25A     -0.653298    26A     -0.649116    27A     -0.642397
      28A     -0.500838    29A     -0.482951

  @DF-RHF Final Energy:  -325.24112761304167

   => Energetics <=

    Nuclear Repulsion Energy =            353.8838667350311766
    One-Electron Energy =               -1129.9948387353078942
    Two-Electron Energy =                 450.8698443872349912
    Total Energy =                       -325.2411276130416695
  Basis Set: (AUG-CC-PVTZ AUX)
    Blend: AUG-CC-PVTZ-RI
    Molecular point group: c1

    Geometry (in Angstrom), charge = 1, multiplicity = 1:

       Center              X                  Y                   Z               Mass
    ------------   -----------------  -----------------  -----------------  -----------------
         N           -2.421900118251    -1.007345615146    -0.008291073884    14.003074004430
         C           -1.146506118251    -0.261609615146     0.017139926116    12.000000000000
         C            1.258285881749    -0.300111615146    -0.014251073884    12.000000000000
         C            0.039055881749    -0.987970615146    -0.001825073884    12.000000000000
         C           -1.186176118251     1.127377384854     0.012525926116    12.000000000000
         C            1.237081881749     1.102137384854    -0.013493073884    12.000000000000
         C            0.033282881749     1.807456384854     0.000781926116    12.000000000000
         C            2.544605081749    -1.042706415146     0.008512426116    12.000000000000
         H            0.023814881749    -2.076145615146    -0.006599073884     1.007825032230
         H           -2.128591118251     1.668729384854     0.019533926116     1.007825032230
         H            2.177530881749     1.648730384854    -0.025772073884     1.007825032230
         H            0.038335881749     2.893689384854    -0.000426073884     1.007825032230
         H           -3.182776118251    -0.483695615146     0.444098926116     1.007825032230
         H           -2.727282118251    -1.213697615146    -0.969211073884     1.007825032230
         H           -2.347592118251    -1.906909615146     0.484016926116     1.007825032230
         H            2.436956881749    -2.068398615146    -0.374320073884     1.007825032230
         H            3.314646881749    -0.543398615146    -0.598356073884     1.007825032230
         H            2.949113881749    -1.122772615146     1.030416926116     1.007825032230

  Basis Set: AUG-CC-PVTZ
    Blend: AUG-CC-PVTZ
  Basis Set: (AUG-CC-PVTZ AUX)
    Blend: AUG-CC-PVTZ-JKFIT
	 Reference Energy          =    -325.2411276130416695 [Eh]
	 Singles Energy            =      -0.0000000000000000 [Eh]
	 Same-Spin Energy          =      -0.3533125303947154 [Eh]
	 Opposite-Spin Energy      =      -1.1489577086795002 [Eh]
	 Correlation Energy        =      -1.5022702390742158 [Eh]
	 Total Energy              =    -326.7433978521158906 [Eh]

	 ================> DF-SCS-MP2 Energies <==================
	-----------------------------------------------------------
	 SCS Same-Spin Scale       =       0.3333333333333333 [-]
	 SCS Opposite-Spin Scale   =       1.2000000000000000 [-]
	 SCS Same-Spin Energy      =      -0.1177708434649051 [Eh]
	 SCS Opposite-Spin Energy  =      -1.3787492504154002 [Eh]
	 SCS Correlation Energy    =      -1.4965200938803054 [Eh]
	 SCS Total Energy          =    -326.7376477069219618 [Eh]
	-----------------------------------------------------------

  Dipole Moment: [D]
     X:    -7.3207      Y:    -3.2369      Z:    -0.0368     Total:     8.0044

*** Psi4 exiting successfully. Buy a developer a beer!
