                               Psi4 1.4a3.dev225

  ==> Input File <==

--------------------------------------------------------------------------
#psi4
#
memory 32 gb

molecule  {
1 1
  N       -2.4283840    -0.9794160    -0.0083510
  C       -1.1529900    -0.2336800     0.0170800
  C        1.2518020    -0.2721820    -0.0143110
  C        0.0325720    -0.9600410    -0.0018850
  C       -1.1926600     1.1553070     0.0124660
  C        1.2305980     1.1300670    -0.0135530
  C        0.0267990     1.8353860     0.0007220
  C        2.5554400    -1.0247750     0.0087590
  H        0.0173310    -2.0482160    -0.0066590
  H       -2.1350750     1.6966590     0.0194740
  H        2.1710470     1.6766600    -0.0258320
  H        0.0318520     2.9216190    -0.0004860
  H       -3.2262498    -0.4303089     0.4660319
  H       -2.7337660    -1.1857680    -0.9692710
  H       -2.3540760    -1.8789800     0.4839570
  H        2.4304730    -2.0404690    -0.3743800
  H        3.3081630    -0.5154690    -0.5984160
  H        2.9426300    -1.0948430     1.0303570
units angstrom
no_reorient  #important for SAPT in psi4, default
symmetry c1  #important for SAPT in psi4, default
}

set PROPERTIES_ORIGIN ["COM"]
properties('MP2/aug-cc-pvtz', properties = ['dipole'])
--------------------------------------------------------------------------

    Molecular point group: c1
  Charge       = 1
  Multiplicity = 1
  Basis Set: AUG-CC-PVTZ
    Blend: AUG-CC-PVTZ
  Basis Set: (AUG-CC-PVTZ AUX)
    Blend: AUG-CC-PVTZ-JKFIT

    Orbital Energies [Eh]
    ---------------------

    Doubly Occupied:

       1A    -15.896735     2A    -11.462044     3A    -11.403161
       4A    -11.401689     5A    -11.398644     6A    -11.391103
       7A    -11.381679     8A    -11.348186     9A     -1.503770
      10A     -1.311283    11A     -1.200295    12A     -1.173847
      13A     -1.081920    14A     -1.002875    15A     -0.981142
      16A     -0.951281    17A     -0.919469    18A     -0.870170
      19A     -0.828513    20A     -0.789835    21A     -0.753131
      22A     -0.727575    23A     -0.706364    24A     -0.677669
      25A     -0.651927    26A     -0.650134    27A     -0.641958
      28A     -0.500338    29A     -0.483305

  @DF-RHF Final Energy:  -325.23840159303495

   => Energetics <=

    Nuclear Repulsion Energy =            353.3074409649603354
    One-Electron Energy =               -1128.9116006278306941
    Two-Electron Energy =                 450.3657580698354650
    Total Energy =                       -325.2384015930349506
  Basis Set: (AUG-CC-PVTZ AUX)
    Blend: AUG-CC-PVTZ-RI
    Molecular point group: c1

    Geometry (in Angstrom), charge = 1, multiplicity = 1:

       Center              X                  Y                   Z               Mass
    ------------   -----------------  -----------------  -----------------  -----------------
         N           -2.423478062958    -1.006472919535    -0.008530180828    14.003074004430
         C           -1.148084062958    -0.260736919535     0.016900819172    12.000000000000
         C            1.256707937042    -0.299238919535    -0.014490180828    12.000000000000
         C            0.037477937042    -0.987097919535    -0.002064180828    12.000000000000
         C           -1.187754062958     1.128250080465     0.012286819172    12.000000000000
         C            1.235503937042     1.103010080465    -0.013732180828    12.000000000000
         C            0.031704937042     1.808329080465     0.000542819172    12.000000000000
         C            2.560345937042    -1.051831919535     0.008579819172    12.000000000000
         H            0.022236937042    -2.075272919535    -0.006838180828     1.007825032230
         H           -2.130169062958     1.669602080465     0.019294819172     1.007825032230
         H            2.175952937042     1.649603080465    -0.026011180828     1.007825032230
         H            0.036757937042     2.894562080465    -0.000665180828     1.007825032230
         H           -3.221343862958    -0.457365819535     0.465852719172     1.007825032230
         H           -2.728860062958    -1.212824919535    -0.969450180828     1.007825032230
         H           -2.349170062958    -1.906036919535     0.483777819172     1.007825032230
         H            2.435378937042    -2.067525919535    -0.374559180828     1.007825032230
         H            3.313068937042    -0.542525919535    -0.598595180828     1.007825032230
         H            2.947535937042    -1.121899919535     1.030177819172     1.007825032230

  Basis Set: AUG-CC-PVTZ
    Blend: AUG-CC-PVTZ
  Basis Set: (AUG-CC-PVTZ AUX)
    Blend: AUG-CC-PVTZ-JKFIT
	 Reference Energy          =    -325.2384015930349506 [Eh]
	 Singles Energy            =      -0.0000000000000000 [Eh]
	 Same-Spin Energy          =      -0.3534186149626362 [Eh]
	 Opposite-Spin Energy      =      -1.1496745816066549 [Eh]
	 Correlation Energy        =      -1.5030931965692911 [Eh]
	 Total Energy              =    -326.7414947896042463 [Eh]

	 ================> DF-SCS-MP2 Energies <==================
	-----------------------------------------------------------
	 SCS Same-Spin Scale       =       0.3333333333333333 [-]
	 SCS Opposite-Spin Scale   =       1.2000000000000000 [-]
	 SCS Same-Spin Energy      =      -0.1178062049875454 [Eh]
	 SCS Opposite-Spin Energy  =      -1.3796094979279858 [Eh]
	 SCS Correlation Energy    =      -1.4974157029155313 [Eh]
	 SCS Total Energy          =    -326.7358172959504827 [Eh]
	-----------------------------------------------------------

  Dipole Moment: [D]
     X:    -7.3966      Y:    -3.1988      Z:    -0.0055     Total:     8.0587

*** Psi4 exiting successfully. Buy a developer a beer!
