                               Psi4 1.3.2 release

  ==> Input File <==

--------------------------------------------------------------------------
#psi4
#
memory 32 gb

molecule  {
1 1
  N        2.4325060    -0.9845600     0.0091070
  C        1.1463630    -0.2321410    -0.0173850
  C       -1.2056313    -0.3665105    -0.0070484
  C       -0.0352110    -0.9646830     0.0005950
  C        1.1983270     1.1549650    -0.0097610
  C       -1.2241940     1.1288950     0.0124220
  C       -0.0217590     1.8354230    -0.0002870
  C       -2.5623340    -1.0168010    -0.0065280
  H       -0.0261220    -2.0543070     0.0007630
  H        2.1405510     1.6994190    -0.0171620
  H       -2.1632860     1.6774730     0.0209780
  H       -0.0275340     2.9214870    -0.0002680
  H        3.1916030    -0.4398890    -0.4234570
  H        2.7260810    -1.2141090     0.9696670
  H        2.3592330    -1.8699500    -0.5112020
  H       -2.4267910    -2.0731080     0.2370320
  H       -3.2605850    -0.5864750     0.7158300
  H       -3.0261010    -0.9534780    -0.9957790
units angstrom
no_reorient  #important for SAPT in psi4, default
symmetry c1  #important for SAPT in psi4, default
}

set PROPERTIES_ORIGIN ["COM"]
properties('MP2/aug-cc-pvtz', properties = ['dipole'])
--------------------------------------------------------------------------

    Molecular point group: c1
  Charge       = 1
  Multiplicity = 1
  Basis Set: AUG-CC-PVTZ
    Blend: AUG-CC-PVTZ
  Basis Set: (AUG-CC-PVTZ AUX)
    Blend: AUG-CC-PVTZ-JKFIT

    Orbital Energies [Eh]
    ---------------------

    Doubly Occupied:

       1A    -15.892692     2A    -11.462431     3A    -11.408666
       4A    -11.397950     5A    -11.392525     6A    -11.390811
       7A    -11.387524     8A    -11.349227     9A     -1.506323
      10A     -1.314482    11A     -1.206876    12A     -1.169520
      13A     -1.083402    14A     -1.002792    15A     -0.985282
      16A     -0.953289    17A     -0.920268    18A     -0.873657
      19A     -0.827803    20A     -0.791259    21A     -0.751532
      22A     -0.729415    23A     -0.708098    24A     -0.678119
      25A     -0.670884    26A     -0.652266    27A     -0.619264
      28A     -0.505345    29A     -0.482064

  @DF-RHF Final Energy:  -325.22900140801647

   => Energetics <=

    Nuclear Repulsion Energy =            353.4232174826454980
    One-Electron Energy =               -1129.0769075246380453
    Two-Electron Energy =                 450.4246886339761318
    Total Energy =                       -325.2290014080164724
  Basis Set: (AUG-CC-PVTZ AUX)
    Blend: AUG-CC-PVTZ-RI
    Molecular point group: c1

    Geometry (in Angstrom), charge = 1, multiplicity = 1:

       Center              X                  Y                   Z               Mass
    ------------   -----------------  -----------------  -----------------  -----------------
         N            2.422399489158    -1.000911845649     0.011068568854    14.003074004430
         C            1.136256489158    -0.248492845649    -0.015423431146    12.000000000000
         C           -1.215737810842    -0.382862345649    -0.005086831146    12.000000000000
         C           -0.045317510842    -0.981034845649     0.002556568854    12.000000000000
         C            1.188220489158     1.138613154351    -0.007799431146    12.000000000000
         C           -1.234300510842     1.112543154351     0.014383568854    12.000000000000
         C           -0.031865510842     1.819071154351     0.001674568854    12.000000000000
         C           -2.572440510842    -1.033152845649    -0.004566431146    12.000000000000
         H           -0.036228510842    -2.070658845649     0.002724568854     1.007825032230
         H            2.130444489158     1.683067154351    -0.015200431146     1.007825032230
         H           -2.173392510842     1.661121154351     0.022939568854     1.007825032230
         H           -0.037640510842     2.905135154351     0.001693568854     1.007825032230
         H            3.181496489158    -0.456240845649    -0.421495431146     1.007825032230
         H            2.715974489158    -1.230460845649     0.971628568854     1.007825032230
         H            2.349126489158    -1.886301845649    -0.509240431146     1.007825032230
         H           -2.436897510842    -2.089459845649     0.238993568854     1.007825032230
         H           -3.270691510842    -0.602826845649     0.717791568854     1.007825032230
         H           -3.036207510842    -0.969829845649    -0.993817431146     1.007825032230

  Basis Set: AUG-CC-PVTZ
    Blend: AUG-CC-PVTZ
  Basis Set: (AUG-CC-PVTZ AUX)
    Blend: AUG-CC-PVTZ-JKFIT
	 Reference Energy          =    -325.2290014080164724 [Eh]
	 Singles Energy            =      -0.0000000000000000 [Eh]
	 Same-Spin Energy          =      -0.3525109711258614 [Eh]
	 Opposite-Spin Energy      =      -1.1493130120444159 [Eh]
	 Correlation Energy        =      -1.5018239831702773 [Eh]
	 Total Energy              =    -326.7308253911867268 [Eh]

	 ================> DF-SCS-MP2 Energies <==================
	-----------------------------------------------------------
	 SCS Same-Spin Scale       =       0.3333333333333333 [-]
	 SCS Opposite-Spin Scale   =       1.2000000000000000 [-]
	 SCS Same-Spin Energy      =      -0.1175036570419538 [Eh]
	 SCS Opposite-Spin Energy  =      -1.3791756144532992 [Eh]
	 SCS Correlation Energy    =      -1.4966792714952530 [Eh]
	 SCS Total Energy          =    -326.7256806795116972 [Eh]
	-----------------------------------------------------------

  Dipole Moment: [D]
     X:     7.2604      Y:    -3.1224      Z:     0.0529     Total:     7.9035

*** Psi4 exiting successfully. Buy a developer a beer!
