                               Psi4 1.4a3.dev225

  ==> Input File <==

--------------------------------------------------------------------------
#psi4
#
memory 32 gb

molecule  {
1 1
  N       -2.4283840    -0.9794160    -0.0083510
  C       -1.1529900    -0.2336800     0.0170800
  C        1.2518020    -0.2721820    -0.0143110
  C        0.0325720    -0.9600410    -0.0018850
  C       -1.1926600     1.1553070     0.0124660
  C        1.2305980     1.1300670    -0.0135530
  C        0.0267990     1.8353860     0.0007220
  C        2.5554400    -1.0247750     0.0087590
  H        0.0173310    -2.0482160    -0.0066590
  H       -2.1350750     1.6966590     0.0194740
  H        2.1710470     1.6766600    -0.0258320
  H        0.0318520     2.9216190    -0.0004860
  H       -3.1744641    -0.4659489     0.4352419
  H       -2.7337660    -1.1857680    -0.9692710
  H       -2.3540760    -1.8789800     0.4839570
  H        2.4304730    -2.0404690    -0.3743800
  H        3.3081630    -0.5154690    -0.5984160
  H        2.9426300    -1.0948430     1.0303570
units angstrom
no_reorient  #important for SAPT in psi4, default
symmetry c1  #important for SAPT in psi4, default
}

set PROPERTIES_ORIGIN ["COM"]
properties('MP2/aug-cc-pvtz', properties = ['dipole'])
--------------------------------------------------------------------------

    Molecular point group: c1
  Charge       = 1
  Multiplicity = 1
  Basis Set: AUG-CC-PVTZ
    Blend: AUG-CC-PVTZ
  Basis Set: (AUG-CC-PVTZ AUX)
    Blend: AUG-CC-PVTZ-JKFIT

    Orbital Energies [Eh]
    ---------------------

    Doubly Occupied:

       1A    -15.892875     2A    -11.462688     3A    -11.403774
       4A    -11.402164     5A    -11.399027     6A    -11.391511
       7A    -11.382169     8A    -11.348481     9A     -1.514442
      10A     -1.312641    11A     -1.200933    12A     -1.175731
      13A     -1.082596    14A     -1.003913    15A     -0.988770
      16A     -0.957710    17A     -0.928926    18A     -0.872560
      19A     -0.829387    20A     -0.791399    21A     -0.753633
      22A     -0.727990    23A     -0.706750    24A     -0.678108
      25A     -0.652361    26A     -0.650802    27A     -0.642356
      28A     -0.500943    29A     -0.483761

  @DF-RHF Final Energy:  -325.24218909318739

   => Energetics <=

    Nuclear Repulsion Energy =            353.6639866457902599
    One-Electron Energy =               -1129.5355494469970381
    Two-Electron Energy =                 450.6293737080193864
    Total Energy =                       -325.2421890931873918
  Basis Set: (AUG-CC-PVTZ AUX)
    Blend: AUG-CC-PVTZ-RI
    Molecular point group: c1

    Geometry (in Angstrom), charge = 1, multiplicity = 1:

       Center              X                  Y                   Z               Mass
    ------------   -----------------  -----------------  -----------------  -----------------
         N           -2.423960948647    -1.006140587521    -0.008243073570    14.003074004430
         C           -1.148566948647    -0.260404587521     0.017187926430    12.000000000000
         C            1.256225051353    -0.298906587521    -0.014203073570    12.000000000000
         C            0.036995051353    -0.986765587521    -0.001777073570    12.000000000000
         C           -1.188236948647     1.128582412479     0.012573926430    12.000000000000
         C            1.235021051353     1.103342412479    -0.013445073570    12.000000000000
         C            0.031222051353     1.808661412479     0.000829926430    12.000000000000
         C            2.559863051353    -1.051499587521     0.008866926430    12.000000000000
         H            0.021754051353    -2.074940587521    -0.006551073570     1.007825032230
         H           -2.130651948647     1.669934412479     0.019581926430     1.007825032230
         H            2.175470051353     1.649935412479    -0.025724073570     1.007825032230
         H            0.036275051353     2.894894412479    -0.000378073570     1.007825032230
         H           -3.170041048647    -0.492673487521     0.435349826430     1.007825032230
         H           -2.729342948647    -1.212492587521    -0.969163073570     1.007825032230
         H           -2.349652948647    -1.905704587521     0.484064926430     1.007825032230
         H            2.434896051353    -2.067193587521    -0.374272073570     1.007825032230
         H            3.312586051353    -0.542193587521    -0.598308073570     1.007825032230
         H            2.947053051353    -1.121567587521     1.030464926430     1.007825032230

  Basis Set: AUG-CC-PVTZ
    Blend: AUG-CC-PVTZ
  Basis Set: (AUG-CC-PVTZ AUX)
    Blend: AUG-CC-PVTZ-JKFIT
	 Reference Energy          =    -325.2421890931873918 [Eh]
	 Singles Energy            =      -0.0000000000000000 [Eh]
	 Same-Spin Energy          =      -0.3529897602312246 [Eh]
	 Opposite-Spin Energy      =      -1.1484180244481119 [Eh]
	 Correlation Energy        =      -1.5014077846793366 [Eh]
	 Total Energy              =    -326.7435968778667075 [Eh]

	 ================> DF-SCS-MP2 Energies <==================
	-----------------------------------------------------------
	 SCS Same-Spin Scale       =       0.3333333333333333 [-]
	 SCS Opposite-Spin Scale   =       1.2000000000000000 [-]
	 SCS Same-Spin Energy      =      -0.1176632534104082 [Eh]
	 SCS Opposite-Spin Energy  =      -1.3781016293377342 [Eh]
	 SCS Correlation Energy    =      -1.4957648827481425 [Eh]
	 SCS Total Energy          =    -326.7379539759355112 [Eh]
	-----------------------------------------------------------

  Dipole Moment: [D]
     X:    -7.3138      Y:    -3.2399      Z:    -0.0515     Total:     7.9995

*** Psi4 exiting successfully. Buy a developer a beer!
