                               Psi4 1.3.2 release

  ==> Input File <==

--------------------------------------------------------------------------
#psi4
#
memory 32 gb

molecule  {
1 1
  N        2.4325060    -0.9845600     0.0091070
  C        1.1463630    -0.2321410    -0.0173850
  C       -1.2536230    -0.2748500     0.0109180
  C       -0.0352110    -0.9646830     0.0005950
  C        1.1983270     1.1549650    -0.0097610
  C       -1.2241940     1.1288950     0.0124220
  C       -0.0217590     1.8354230    -0.0002870
  C       -2.5623340    -1.0168010    -0.0065280
  H       -0.0261220    -2.0543070     0.0007630
  H        2.1405510     1.6994190    -0.0171620
  H       -2.1632860     1.6774730     0.0209780
  H       -0.0275340     2.9214870    -0.0002680
  H        3.1303991    -0.4356130    -0.5120541
  H        2.7260810    -1.2141090     0.9696670
  H        2.3592330    -1.8699500    -0.5112020
  H       -2.4267910    -2.0731080     0.2370320
  H       -3.2605850    -0.5864750     0.7158300
  H       -3.0261010    -0.9534780    -0.9957790
units angstrom
no_reorient  #important for SAPT in psi4, default
symmetry c1  #important for SAPT in psi4, default
}

set PROPERTIES_ORIGIN ["COM"]
properties('MP2/aug-cc-pvtz', properties = ['dipole'])
--------------------------------------------------------------------------

    Molecular point group: c1
  Charge       = 1
  Multiplicity = 1
  Basis Set: AUG-CC-PVTZ
    Blend: AUG-CC-PVTZ
  Basis Set: (AUG-CC-PVTZ AUX)
    Blend: AUG-CC-PVTZ-JKFIT

    Orbital Energies [Eh]
    ---------------------

    Doubly Occupied:

       1A    -15.892372     2A    -11.463195     3A    -11.404528
       4A    -11.402268     5A    -11.399621     6A    -11.391875
       7A    -11.382216     8A    -11.348727     9A     -1.506903
      10A     -1.312350    11A     -1.201380    12A     -1.173871
      13A     -1.083091    14A     -1.002353    15A     -0.980863
      16A     -0.962461    17A     -0.923228    18A     -0.868752
      19A     -0.826475    20A     -0.791379    21A     -0.753423
      22A     -0.729269    23A     -0.707242    24A     -0.678185
      25A     -0.651747    26A     -0.651052    27A     -0.643725
      28A     -0.501026    29A     -0.484313

  @DF-RHF Final Energy:  -325.24042532073599

   => Energetics <=

    Nuclear Repulsion Energy =            353.3709759502743850
    One-Electron Energy =               -1128.9870207484314051
    Two-Electron Energy =                 450.3756194774209689
    Total Energy =                       -325.2404253207359943
  Basis Set: (AUG-CC-PVTZ AUX)
    Blend: AUG-CC-PVTZ-RI
    Molecular point group: c1

    Geometry (in Angstrom), charge = 1, multiplicity = 1:

       Center              X                  Y                   Z               Mass
    ------------   -----------------  -----------------  -----------------  -----------------
         N            2.428298595470    -1.011128554842     0.009899944898    14.003074004430
         C            1.142155595470    -0.258709554842    -0.016592055102    12.000000000000
         C           -1.257830404530    -0.301418554842     0.011710944898    12.000000000000
         C           -0.039418404530    -0.991251554842     0.001387944898    12.000000000000
         C            1.194119595470     1.128396445158    -0.008968055102    12.000000000000
         C           -1.228401404530     1.102326445158     0.013214944898    12.000000000000
         C           -0.025966404530     1.808854445158     0.000505944898    12.000000000000
         C           -2.566541404530    -1.043369554842    -0.005735055102    12.000000000000
         H           -0.030329404530    -2.080875554842     0.001555944898     1.007825032230
         H            2.136343595470     1.672850445158    -0.016369055102     1.007825032230
         H           -2.167493404530     1.650904445158     0.021770944898     1.007825032230
         H           -0.031741404530     2.894918445158     0.000524944898     1.007825032230
         H            3.126191695470    -0.462181554842    -0.511261155102     1.007825032230
         H            2.721873595470    -1.240677554842     0.970459944898     1.007825032230
         H            2.355025595470    -1.896518554842    -0.510409055102     1.007825032230
         H           -2.430998404530    -2.099676554842     0.237824944898     1.007825032230
         H           -3.264792404530    -0.613043554842     0.716622944898     1.007825032230
         H           -3.030308404530    -0.980046554842    -0.994986055102     1.007825032230

  Basis Set: AUG-CC-PVTZ
    Blend: AUG-CC-PVTZ
  Basis Set: (AUG-CC-PVTZ AUX)
    Blend: AUG-CC-PVTZ-JKFIT
	 Reference Energy          =    -325.2404253207359943 [Eh]
	 Singles Energy            =      -0.0000000000000000 [Eh]
	 Same-Spin Energy          =      -0.3531517129710078 [Eh]
	 Opposite-Spin Energy      =      -1.1491100069301248 [Eh]
	 Correlation Energy        =      -1.5022617199011326 [Eh]
	 Total Energy              =    -326.7426870406371222 [Eh]

	 ================> DF-SCS-MP2 Energies <==================
	-----------------------------------------------------------
	 SCS Same-Spin Scale       =       0.3333333333333333 [-]
	 SCS Opposite-Spin Scale   =       1.2000000000000000 [-]
	 SCS Same-Spin Energy      =      -0.1177172376570026 [Eh]
	 SCS Opposite-Spin Energy  =      -1.3789320083161496 [Eh]
	 SCS Correlation Energy    =      -1.4966492459731522 [Eh]
	 SCS Total Energy          =    -326.7370745667091683 [Eh]
	-----------------------------------------------------------

  Dipole Moment: [D]
     X:     7.2145      Y:    -3.2043      Z:    -0.0436     Total:     7.8942

*** Psi4 exiting successfully. Buy a developer a beer!
