                               Psi4 1.3.2 release

  ==> Input File <==

--------------------------------------------------------------------------
#psi4
#
memory 32 gb

molecule  {
1 1
  N        2.4325060    -0.9845600     0.0091070
  C        1.1463630    -0.2321410    -0.0173850
  C       -1.2536230    -0.2748500     0.0109180
  C       -0.0600305    -1.0067759    -0.0002751
  C        1.1983270     1.1549650    -0.0097610
  C       -1.2241940     1.1288950     0.0124220
  C       -0.0217590     1.8354230    -0.0002870
  C       -2.5623340    -1.0168010    -0.0065280
  H       -0.0261220    -2.0543070     0.0007630
  H        2.1405510     1.6994190    -0.0171620
  H       -2.1632860     1.6774730     0.0209780
  H       -0.0275340     2.9214870    -0.0002680
  H        3.1916030    -0.4398890    -0.4234570
  H        2.7260810    -1.2141090     0.9696670
  H        2.3592330    -1.8699500    -0.5112020
  H       -2.4267910    -2.0731080     0.2370320
  H       -3.2605850    -0.5864750     0.7158300
  H       -3.0261010    -0.9534780    -0.9957790
units angstrom
no_reorient  #important for SAPT in psi4, default
symmetry c1  #important for SAPT in psi4, default
}

set PROPERTIES_ORIGIN ["COM"]
properties('MP2/aug-cc-pvtz', properties = ['dipole'])
--------------------------------------------------------------------------

    Molecular point group: c1
  Charge       = 1
  Multiplicity = 1
  Basis Set: AUG-CC-PVTZ
    Blend: AUG-CC-PVTZ
  Basis Set: (AUG-CC-PVTZ AUX)
    Blend: AUG-CC-PVTZ-JKFIT

    Orbital Energies [Eh]
    ---------------------

    Doubly Occupied:

       1A    -15.892044     2A    -11.467396     3A    -11.405825
       4A    -11.403298     5A    -11.400125     6A    -11.392480
       7A    -11.382921     8A    -11.347342     9A     -1.505631
      10A     -1.308746    11A     -1.202623    12A     -1.170368
      13A     -1.081600    14A     -1.004908    15A     -0.981503
      16A     -0.952806    17A     -0.927143    18A     -0.866991
      19A     -0.832973    20A     -0.788292    21A     -0.758539
      22A     -0.730852    23A     -0.705918    24A     -0.680310
      25A     -0.649485    26A     -0.647781    27A     -0.642846
      28A     -0.497137    29A     -0.485946

  @DF-RHF Final Energy:  -325.23787718565757

   => Energetics <=

    Nuclear Repulsion Energy =            352.6193223715256977
    One-Electron Energy =               -1127.4867397241434901
    Two-Electron Energy =                 449.6295401669602825
    Total Energy =                       -325.2378771856575668
  Basis Set: (AUG-CC-PVTZ AUX)
    Blend: AUG-CC-PVTZ-RI
    Molecular point group: c1

    Geometry (in Angstrom), charge = 1, multiplicity = 1:

       Center              X                  Y                   Z               Mass
    ------------   -----------------  -----------------  -----------------  -----------------
         N            2.430483535180    -1.006415212708     0.009170409285    14.003074004430
         C            1.144340535180    -0.253996212708    -0.017321590715    12.000000000000
         C           -1.255645464820    -0.296705212708     0.010981409285    12.000000000000
         C           -0.062052964820    -1.028631112708    -0.000211690715    12.000000000000
         C            1.196304535180     1.133109787292    -0.009697590715    12.000000000000
         C           -1.226216464820     1.107039787292     0.012485409285    12.000000000000
         C           -0.023781464820     1.813567787292    -0.000223590715    12.000000000000
         C           -2.564356464820    -1.038656212708    -0.006464590715    12.000000000000
         H           -0.028144464820    -2.076162212708     0.000826409285     1.007825032230
         H            2.138528535180     1.677563787292    -0.017098590715     1.007825032230
         H           -2.165308464820     1.655617787292     0.021041409285     1.007825032230
         H           -0.029556464820     2.899631787292    -0.000204590715     1.007825032230
         H            3.189580535180    -0.461744212708    -0.423393590715     1.007825032230
         H            2.724058535180    -1.235964212708     0.969730409285     1.007825032230
         H            2.357210535180    -1.891805212708    -0.511138590715     1.007825032230
         H           -2.428813464820    -2.094963212708     0.237095409285     1.007825032230
         H           -3.262607464820    -0.608330212708     0.715893409285     1.007825032230
         H           -3.028123464820    -0.975333212708    -0.995715590715     1.007825032230

  Basis Set: AUG-CC-PVTZ
    Blend: AUG-CC-PVTZ
  Basis Set: (AUG-CC-PVTZ AUX)
    Blend: AUG-CC-PVTZ-JKFIT
	 Reference Energy          =    -325.2378771856575668 [Eh]
	 Singles Energy            =      -0.0000000000000000 [Eh]
	 Same-Spin Energy          =      -0.3530043781454713 [Eh]
	 Opposite-Spin Energy      =      -1.1493810848417438 [Eh]
	 Correlation Energy        =      -1.5023854629872151 [Eh]
	 Total Energy              =    -326.7402626486447730 [Eh]

	 ================> DF-SCS-MP2 Energies <==================
	-----------------------------------------------------------
	 SCS Same-Spin Scale       =       0.3333333333333333 [-]
	 SCS Opposite-Spin Scale   =       1.2000000000000000 [-]
	 SCS Same-Spin Energy      =      -0.1176681260484904 [Eh]
	 SCS Opposite-Spin Energy  =      -1.3792573018100927 [Eh]
	 SCS Correlation Energy    =      -1.4969254278585831 [Eh]
	 SCS Total Energy          =    -326.7348026135161376 [Eh]
	-----------------------------------------------------------

  Dipole Moment: [D]
     X:     7.3150      Y:    -3.1605      Z:     0.0425     Total:     7.9687

*** Psi4 exiting successfully. Buy a developer a beer!
