                               Psi4 1.3.2 release

  ==> Input File <==

--------------------------------------------------------------------------
#psi4
#
memory 32 gb

molecule  {
1 1
  N        2.4325060    -0.9845600     0.0091070
  C        1.1463630    -0.2321410    -0.0173850
  C       -1.2536230    -0.2748500     0.0109180
  C       -0.0352110    -0.9646830     0.0005950
  C        1.1983270     1.1549650    -0.0097610
  C       -1.2241940     1.1288950     0.0124220
  C       -0.0217590     1.8354230    -0.0002870
  C       -2.5623340    -1.0168010    -0.0065280
  H       -0.0261220    -2.0543070     0.0007630
  H        2.1405510     1.6994190    -0.0171620
  H       -2.1632860     1.6774730     0.0209780
  H       -0.0275340     2.9214870    -0.0002680
  H        3.1516849    -0.4363711    -0.4831094
  H        2.7260810    -1.2141090     0.9696670
  H        2.3592330    -1.8699500    -0.5112020
  H       -2.4267910    -2.0731080     0.2370320
  H       -3.2605850    -0.5864750     0.7158300
  H       -3.0261010    -0.9534780    -0.9957790
units angstrom
no_reorient  #important for SAPT in psi4, default
symmetry c1  #important for SAPT in psi4, default
}

set PROPERTIES_ORIGIN ["COM"]
properties('MP2/aug-cc-pvtz', properties = ['dipole'])
--------------------------------------------------------------------------

    Molecular point group: c1
  Charge       = 1
  Multiplicity = 1
  Basis Set: AUG-CC-PVTZ
    Blend: AUG-CC-PVTZ
  Basis Set: (AUG-CC-PVTZ AUX)
    Blend: AUG-CC-PVTZ-JKFIT

    Orbital Energies [Eh]
    ---------------------

    Doubly Occupied:

       1A    -15.892529     2A    -11.463351     3A    -11.404459
       4A    -11.402325     5A    -11.399611     6A    -11.391790
       7A    -11.382152     8A    -11.348701     9A     -1.506793
      10A     -1.312393    11A     -1.201335    12A     -1.174065
      13A     -1.083024    14A     -1.002119    15A     -0.981814
      16A     -0.959520    17A     -0.924295    18A     -0.869367
      19A     -0.826750    20A     -0.791596    21A     -0.753375
      22A     -0.729230    23A     -0.707195    24A     -0.678132
      25A     -0.651644    26A     -0.651102    27A     -0.643686
      28A     -0.500938    29A     -0.484244

  @DF-RHF Final Energy:  -325.24112364568242

   => Energetics <=

    Nuclear Repulsion Energy =            353.3397160242560631
    One-Electron Energy =               -1128.9266085779879631
    Two-Electron Energy =                 450.3457689080494788
    Total Energy =                       -325.2411236456824213
  Basis Set: (AUG-CC-PVTZ AUX)
    Blend: AUG-CC-PVTZ-RI
    Molecular point group: c1

    Geometry (in Angstrom), charge = 1, multiplicity = 1:

       Center              X                  Y                   Z               Mass
    ------------   -----------------  -----------------  -----------------  -----------------
         N            2.428100111946    -1.011121485793     0.009630044493    14.003074004430
         C            1.141957111946    -0.258702485793    -0.016861955507    12.000000000000
         C           -1.258028888054    -0.301411485793     0.011441044493    12.000000000000
         C           -0.039616888054    -0.991244485793     0.001118044493    12.000000000000
         C            1.193921111946     1.128403514207    -0.009237955507    12.000000000000
         C           -1.228599888054     1.102333514207     0.012945044493    12.000000000000
         C           -0.026164888054     1.808861514207     0.000236044493    12.000000000000
         C           -2.566739888054    -1.043362485793    -0.006004955507    12.000000000000
         H           -0.030527888054    -2.080868485793     0.001286044493     1.007825032230
         H            2.136145111946     1.672857514207    -0.016638955507     1.007825032230
         H           -2.167691888054     1.650911514207     0.021501044493     1.007825032230
         H           -0.031939888054     2.894925514207     0.000255044493     1.007825032230
         H            3.147279011946    -0.462932585793    -0.482586355507     1.007825032230
         H            2.721675111946    -1.240670485793     0.970190044493     1.007825032230
         H            2.354827111946    -1.896511485793    -0.510678955507     1.007825032230
         H           -2.431196888054    -2.099669485793     0.237555044493     1.007825032230
         H           -3.264990888054    -0.613036485793     0.716353044493     1.007825032230
         H           -3.030506888054    -0.980039485793    -0.995255955507     1.007825032230

  Basis Set: AUG-CC-PVTZ
    Blend: AUG-CC-PVTZ
  Basis Set: (AUG-CC-PVTZ AUX)
    Blend: AUG-CC-PVTZ-JKFIT
	 Reference Energy          =    -325.2411236456824213 [Eh]
	 Singles Energy            =      -0.0000000000000000 [Eh]
	 Same-Spin Energy          =      -0.3531123852670904 [Eh]
	 Opposite-Spin Energy      =      -1.1490371162493884 [Eh]
	 Correlation Energy        =      -1.5021495015164787 [Eh]
	 Total Energy              =    -326.7432731471989200 [Eh]

	 ================> DF-SCS-MP2 Energies <==================
	-----------------------------------------------------------
	 SCS Same-Spin Scale       =       0.3333333333333333 [-]
	 SCS Opposite-Spin Scale   =       1.2000000000000000 [-]
	 SCS Same-Spin Energy      =      -0.1177041284223635 [Eh]
	 SCS Opposite-Spin Energy  =      -1.3788445394992661 [Eh]
	 SCS Correlation Energy    =      -1.4965486679216295 [Eh]
	 SCS Total Energy          =    -326.7376723136040368 [Eh]
	-----------------------------------------------------------

  Dipole Moment: [D]
     X:     7.2389      Y:    -3.2032      Z:    -0.0165     Total:     7.9160

*** Psi4 exiting successfully. Buy a developer a beer!
