                               Psi4 1.3.2 release

  ==> Input File <==

--------------------------------------------------------------------------
#psi4
#
memory 32 gb

molecule  {
1 1
  N        2.4054752    -1.0289963     0.0082717
  C        1.1463630    -0.2321410    -0.0173850
  C       -1.2536230    -0.2748500     0.0109180
  C       -0.0352110    -0.9646830     0.0005950
  C        1.1983270     1.1549650    -0.0097610
  C       -1.2241940     1.1288950     0.0124220
  C       -0.0217590     1.8354230    -0.0002870
  C       -2.5623340    -1.0168010    -0.0065280
  H       -0.0261220    -2.0543070     0.0007630
  H        2.1405510     1.6994190    -0.0171620
  H       -2.1632860     1.6774730     0.0209780
  H       -0.0275340     2.9214870    -0.0002680
  H        3.1916030    -0.4398890    -0.4234570
  H        2.7260810    -1.2141090     0.9696670
  H        2.3592330    -1.8699500    -0.5112020
  H       -2.4267910    -2.0731080     0.2370320
  H       -3.2605850    -0.5864750     0.7158300
  H       -3.0261010    -0.9534780    -0.9957790
units angstrom
no_reorient  #important for SAPT in psi4, default
symmetry c1  #important for SAPT in psi4, default
}

set PROPERTIES_ORIGIN ["COM"]
properties('MP2/aug-cc-pvtz', properties = ['dipole'])
--------------------------------------------------------------------------

    Molecular point group: c1
  Charge       = 1
  Multiplicity = 1
  Basis Set: AUG-CC-PVTZ
    Blend: AUG-CC-PVTZ
  Basis Set: (AUG-CC-PVTZ AUX)
    Blend: AUG-CC-PVTZ-JKFIT

    Orbital Energies [Eh]
    ---------------------

    Doubly Occupied:

       1A    -15.892680     2A    -11.463818     3A    -11.405487
       4A    -11.401409     5A    -11.399113     6A    -11.392104
       7A    -11.382095     8A    -11.348414     9A     -1.506928
      10A     -1.312559    11A     -1.201453    12A     -1.174472
      13A     -1.082882    14A     -1.004565    15A     -0.981966
      16A     -0.958433    17A     -0.921609    18A     -0.868655
      19A     -0.826735    20A     -0.791201    21A     -0.753851
      22A     -0.729307    23A     -0.706932    24A     -0.678473
      25A     -0.651509    26A     -0.650415    27A     -0.643693
      28A     -0.500796    29A     -0.484168

  @DF-RHF Final Energy:  -325.23794113824431

   => Energetics <=

    Nuclear Repulsion Energy =            353.3233872975995951
    One-Electron Energy =               -1128.8912130066009922
    Two-Electron Energy =                 450.3298845707571445
    Total Energy =                       -325.2379411382443095
  Basis Set: (AUG-CC-PVTZ AUX)
    Blend: AUG-CC-PVTZ-RI
    Molecular point group: c1

    Geometry (in Angstrom), charge = 1, multiplicity = 1:

       Center              X                  Y                   Z               Mass
    ------------   -----------------  -----------------  -----------------  -----------------
         N            2.404199212829    -1.049767791740     0.008346726165    14.003074004430
         C            1.145087012829    -0.252912491740    -0.017309973835    12.000000000000
         C           -1.254898987171    -0.295621491740     0.010993026165    12.000000000000
         C           -0.036486987171    -0.985454491740     0.000670026165    12.000000000000
         C            1.197051012829     1.134193508260    -0.009685973835    12.000000000000
         C           -1.225469987171     1.108123508260     0.012497026165    12.000000000000
         C           -0.023034987171     1.814651508260    -0.000211973835    12.000000000000
         C           -2.563609987171    -1.037572491740    -0.006452973835    12.000000000000
         H           -0.027397987171    -2.075078491740     0.000838026165     1.007825032230
         H            2.139275012829     1.678647508260    -0.017086973835     1.007825032230
         H           -2.164561987171     1.656701508260     0.021053026165     1.007825032230
         H           -0.028809987171     2.900715508260    -0.000192973835     1.007825032230
         H            3.190327012829    -0.460660491740    -0.423381973835     1.007825032230
         H            2.724805012829    -1.234880491740     0.969742026165     1.007825032230
         H            2.357957012829    -1.890721491740    -0.511126973835     1.007825032230
         H           -2.428066987171    -2.093879491740     0.237107026165     1.007825032230
         H           -3.261860987171    -0.607246491740     0.715905026165     1.007825032230
         H           -3.027376987171    -0.974249491740    -0.995703973835     1.007825032230

  Basis Set: AUG-CC-PVTZ
    Blend: AUG-CC-PVTZ
  Basis Set: (AUG-CC-PVTZ AUX)
    Blend: AUG-CC-PVTZ-JKFIT
	 Reference Energy          =    -325.2379411382443095 [Eh]
	 Singles Energy            =      -0.0000000000000000 [Eh]
	 Same-Spin Energy          =      -0.3531595427434227 [Eh]
	 Opposite-Spin Energy      =      -1.1491924264587894 [Eh]
	 Correlation Energy        =      -1.5023519692022120 [Eh]
	 Total Energy              =    -326.7402931074465187 [Eh]

	 ================> DF-SCS-MP2 Energies <==================
	-----------------------------------------------------------
	 SCS Same-Spin Scale       =       0.3333333333333333 [-]
	 SCS Opposite-Spin Scale   =       1.2000000000000000 [-]
	 SCS Same-Spin Energy      =      -0.1177198475811409 [Eh]
	 SCS Opposite-Spin Energy  =      -1.3790309117505473 [Eh]
	 SCS Correlation Energy    =      -1.4967507593316882 [Eh]
	 SCS Total Energy          =    -326.7346918975759991 [Eh]
	-----------------------------------------------------------

  Dipole Moment: [D]
     X:     7.3135      Y:    -3.1482      Z:     0.0426     Total:     7.9624

*** Psi4 exiting successfully. Buy a developer a beer!
