                               Psi4 1.3.2 release

  ==> Input File <==

--------------------------------------------------------------------------
#psi4
#
memory 32 gb

molecule  {
1 1
  N        2.4325060    -0.9845600     0.0091070
  C        0.9737613    -0.1311656    -0.0209403
  C       -1.2536230    -0.2748500     0.0109180
  C       -0.0352110    -0.9646830     0.0005950
  C        1.1983270     1.1549650    -0.0097610
  C       -1.2241940     1.1288950     0.0124220
  C       -0.0217590     1.8354230    -0.0002870
  C       -2.5623340    -1.0168010    -0.0065280
  H       -0.0261220    -2.0543070     0.0007630
  H        2.1405510     1.6994190    -0.0171620
  H       -2.1632860     1.6774730     0.0209780
  H       -0.0275340     2.9214870    -0.0002680
  H        3.1916030    -0.4398890    -0.4234570
  H        2.7260810    -1.2141090     0.9696670
  H        2.3592330    -1.8699500    -0.5112020
  H       -2.4267910    -2.0731080     0.2370320
  H       -3.2605850    -0.5864750     0.7158300
  H       -3.0261010    -0.9534780    -0.9957790
units angstrom
no_reorient  #important for SAPT in psi4, default
symmetry c1  #important for SAPT in psi4, default
}

set PROPERTIES_ORIGIN ["COM"]
properties('MP2/aug-cc-pvtz', properties = ['dipole'])
--------------------------------------------------------------------------

    Molecular point group: c1
  Charge       = 1
  Multiplicity = 1
  Basis Set: AUG-CC-PVTZ
    Blend: AUG-CC-PVTZ
  Basis Set: (AUG-CC-PVTZ AUX)
    Blend: AUG-CC-PVTZ-JKFIT

    Orbital Energies [Eh]
    ---------------------

    Doubly Occupied:

       1A    -15.855578     2A    -11.474337     3A    -11.408562
       4A    -11.401128     5A    -11.399898     6A    -11.399362
       7A    -11.382416     8A    -11.353320     9A     -1.453594
      10A     -1.343845    11A     -1.221048    12A     -1.185287
      13A     -1.096294    14A     -0.996073    15A     -0.964364
      16A     -0.914849    17A     -0.904634    18A     -0.874981
      19A     -0.825051    20A     -0.793774    21A     -0.755783
      22A     -0.742199    23A     -0.720290    24A     -0.682268
      25A     -0.674937    26A     -0.654881    27A     -0.644773
      28A     -0.512289    29A     -0.495603

  @DF-RHF Final Energy:  -325.20815312413026

   => Energetics <=

    Nuclear Repulsion Energy =            355.0107787451209447
    One-Electron Energy =               -1132.1750286368510388
    Two-Electron Energy =                 451.9560967675998882
    Total Energy =                       -325.2081531241302628
  Basis Set: (AUG-CC-PVTZ AUX)
    Blend: AUG-CC-PVTZ-RI
    Molecular point group: c1

    Geometry (in Angstrom), charge = 1, multiplicity = 1:

       Center              X                  Y                   Z               Mass
    ------------   -----------------  -----------------  -----------------  -----------------
         N            2.446891424435    -1.022299729397     0.009468540347    14.003074004430
         C            0.988146724435    -0.168905329397    -0.020578759653    12.000000000000
         C           -1.239237575565    -0.312589729397     0.011279540347    12.000000000000
         C           -0.020825575565    -1.002422729397     0.000956540347    12.000000000000
         C            1.212712424435     1.117225270603    -0.009399459653    12.000000000000
         C           -1.209808575565     1.091155270603     0.012783540347    12.000000000000
         C           -0.007373575565     1.797683270603     0.000074540347    12.000000000000
         C           -2.547948575565    -1.054540729397    -0.006166459653    12.000000000000
         H           -0.011736575565    -2.092046729397     0.001124540347     1.007825032230
         H            2.154936424435     1.661679270603    -0.016800459653     1.007825032230
         H           -2.148900575565     1.639733270603     0.021339540347     1.007825032230
         H           -0.013148575565     2.883747270603     0.000093540347     1.007825032230
         H            3.205988424435    -0.477628729397    -0.423095459653     1.007825032230
         H            2.740466424435    -1.251848729397     0.970028540347     1.007825032230
         H            2.373618424435    -1.907689729397    -0.510840459653     1.007825032230
         H           -2.412405575565    -2.110847729397     0.237393540347     1.007825032230
         H           -3.246199575565    -0.624214729397     0.716191540347     1.007825032230
         H           -3.011715575565    -0.991217729397    -0.995417459653     1.007825032230

  Basis Set: AUG-CC-PVTZ
    Blend: AUG-CC-PVTZ
  Basis Set: (AUG-CC-PVTZ AUX)
    Blend: AUG-CC-PVTZ-JKFIT
	 Reference Energy          =    -325.2081531241302628 [Eh]
	 Singles Energy            =      -0.0000000000000000 [Eh]
	 Same-Spin Energy          =      -0.3533881760120396 [Eh]
	 Opposite-Spin Energy      =      -1.1494678908417222 [Eh]
	 Correlation Energy        =      -1.5028560668537618 [Eh]
	 Total Energy              =    -326.7110091909840435 [Eh]

	 ================> DF-SCS-MP2 Energies <==================
	-----------------------------------------------------------
	 SCS Same-Spin Scale       =       0.3333333333333333 [-]
	 SCS Opposite-Spin Scale   =       1.2000000000000000 [-]
	 SCS Same-Spin Energy      =      -0.1177960586706799 [Eh]
	 SCS Opposite-Spin Energy  =      -1.3793614690100666 [Eh]
	 SCS Correlation Energy    =      -1.4971575276807465 [Eh]
	 SCS Total Energy          =    -326.7053106518110326 [Eh]
	-----------------------------------------------------------

  Dipole Moment: [D]
     X:     6.5778      Y:    -2.8274      Z:     0.0238     Total:     7.1597

*** Psi4 exiting successfully. Buy a developer a beer!
