                               Psi4 1.3.2 release

  ==> Input File <==

--------------------------------------------------------------------------
#psi4
#
memory 32 gb

molecule  {
1 1
  N        2.4325060    -0.9845600     0.0091070
  C        1.2326638    -0.2826287    -0.0156074
  C       -1.2536230    -0.2748500     0.0109180
  C       -0.0352110    -0.9646830     0.0005950
  C        1.1983270     1.1549650    -0.0097610
  C       -1.2241940     1.1288950     0.0124220
  C       -0.0217590     1.8354230    -0.0002870
  C       -2.5623340    -1.0168010    -0.0065280
  H       -0.0261220    -2.0543070     0.0007630
  H        2.1405510     1.6994190    -0.0171620
  H       -2.1632860     1.6774730     0.0209780
  H       -0.0275340     2.9214870    -0.0002680
  H        3.1916030    -0.4398890    -0.4234570
  H        2.7260810    -1.2141090     0.9696670
  H        2.3592330    -1.8699500    -0.5112020
  H       -2.4267910    -2.0731080     0.2370320
  H       -3.2605850    -0.5864750     0.7158300
  H       -3.0261010    -0.9534780    -0.9957790
units angstrom
no_reorient  #important for SAPT in psi4, default
symmetry c1  #important for SAPT in psi4, default
}

set PROPERTIES_ORIGIN ["COM"]
properties('MP2/aug-cc-pvtz', properties = ['dipole'])
--------------------------------------------------------------------------

    Molecular point group: c1
  Charge       = 1
  Multiplicity = 1
  Basis Set: AUG-CC-PVTZ
    Blend: AUG-CC-PVTZ
  Basis Set: (AUG-CC-PVTZ AUX)
    Blend: AUG-CC-PVTZ-JKFIT

    Orbital Energies [Eh]
    ---------------------

    Doubly Occupied:

       1A    -15.902529     2A    -11.461286     3A    -11.409515
       4A    -11.407073     5A    -11.397601     6A    -11.389713
       7A    -11.383664     8A    -11.347712     9A     -1.537317
      10A     -1.300357    11A     -1.194969    12A     -1.169897
      13A     -1.078464    14A     -1.016313    15A     -0.995971
      16A     -0.970758    17A     -0.929901    18A     -0.875824
      19A     -0.833788    20A     -0.779822    21A     -0.751754
      22A     -0.718884    23A     -0.704018    24A     -0.676051
      25A     -0.652336    26A     -0.640121    27A     -0.637253
      28A     -0.495196    29A     -0.480229

  @DF-RHF Final Energy:  -325.22833400180826

   => Energetics <=

    Nuclear Repulsion Energy =            352.6188235404225111
    One-Electron Energy =               -1127.4176780068787593
    Two-Electron Energy =                 449.5705204646480411
    Total Energy =                       -325.2283340018082640
  Basis Set: (AUG-CC-PVTZ AUX)
    Blend: AUG-CC-PVTZ-RI
    Molecular point group: c1

    Geometry (in Angstrom), charge = 1, multiplicity = 1:

       Center              X                  Y                   Z               Mass
    ------------   -----------------  -----------------  -----------------  -----------------
         N            2.418146125287    -1.005483158992     0.008876441755    14.003074004430
         C            1.218303925287    -0.303551858992    -0.015837958245    12.000000000000
         C           -1.267982874713    -0.295773158992     0.010687441755    12.000000000000
         C           -0.049570874713    -0.985606158992     0.000364441755    12.000000000000
         C            1.183967125287     1.134041841008    -0.009991558245    12.000000000000
         C           -1.238553874713     1.107971841008     0.012191441755    12.000000000000
         C           -0.036118874713     1.814499841008    -0.000517558245    12.000000000000
         C           -2.576693874713    -1.037724158992    -0.006758558245    12.000000000000
         H           -0.040481874713    -2.075230158992     0.000532441755     1.007825032230
         H            2.126191125287     1.678495841008    -0.017392558245     1.007825032230
         H           -2.177645874713     1.656549841008     0.020747441755     1.007825032230
         H           -0.041893874713     2.900563841008    -0.000498558245     1.007825032230
         H            3.177243125287    -0.460812158992    -0.423687558245     1.007825032230
         H            2.711721125287    -1.235032158992     0.969436441755     1.007825032230
         H            2.344873125287    -1.890873158992    -0.511432558245     1.007825032230
         H           -2.441150874713    -2.094031158992     0.236801441755     1.007825032230
         H           -3.274944874713    -0.607398158992     0.715599441755     1.007825032230
         H           -3.040460874713    -0.974401158992    -0.996009558245     1.007825032230

  Basis Set: AUG-CC-PVTZ
    Blend: AUG-CC-PVTZ
  Basis Set: (AUG-CC-PVTZ AUX)
    Blend: AUG-CC-PVTZ-JKFIT
	 Reference Energy          =    -325.2283340018082640 [Eh]
	 Singles Energy            =      -0.0000000000000000 [Eh]
	 Same-Spin Energy          =      -0.3540021720305603 [Eh]
	 Opposite-Spin Energy      =      -1.1504633527534751 [Eh]
	 Correlation Energy        =      -1.5044655247840355 [Eh]
	 Total Energy              =    -326.7327995265923164 [Eh]

	 ================> DF-SCS-MP2 Energies <==================
	-----------------------------------------------------------
	 SCS Same-Spin Scale       =       0.3333333333333333 [-]
	 SCS Opposite-Spin Scale   =       1.2000000000000000 [-]
	 SCS Same-Spin Energy      =      -0.1180007240101868 [Eh]
	 SCS Opposite-Spin Energy  =      -1.3805560233041700 [Eh]
	 SCS Correlation Energy    =      -1.4985567473143568 [Eh]
	 SCS Total Energy          =    -326.7268907491226173 [Eh]
	-----------------------------------------------------------

  Dipole Moment: [D]
     X:     7.4341      Y:    -3.2847      Z:     0.0481     Total:     8.1276

*** Psi4 exiting successfully. Buy a developer a beer!
