                               Psi4 1.3.2 release

  ==> Input File <==

--------------------------------------------------------------------------
#psi4
#
memory 32 gb

molecule  {
1 1
  N        2.4579699    -0.9392070     0.0099101
  C        1.1463630    -0.2321410    -0.0173850
  C       -1.2536230    -0.2748500     0.0109180
  C       -0.0352110    -0.9646830     0.0005950
  C        1.1983270     1.1549650    -0.0097610
  C       -1.2241940     1.1288950     0.0124220
  C       -0.0217590     1.8354230    -0.0002870
  C       -2.5623340    -1.0168010    -0.0065280
  H       -0.0261220    -2.0543070     0.0007630
  H        2.1405510     1.6994190    -0.0171620
  H       -2.1632860     1.6774730     0.0209780
  H       -0.0275340     2.9214870    -0.0002680
  H        3.1916030    -0.4398890    -0.4234570
  H        2.7260810    -1.2141090     0.9696670
  H        2.3592330    -1.8699500    -0.5112020
  H       -2.4267910    -2.0731080     0.2370320
  H       -3.2605850    -0.5864750     0.7158300
  H       -3.0261010    -0.9534780    -0.9957790
units angstrom
no_reorient  #important for SAPT in psi4, default
symmetry c1  #important for SAPT in psi4, default
}

set PROPERTIES_ORIGIN ["COM"]
properties('MP2/aug-cc-pvtz', properties = ['dipole'])
--------------------------------------------------------------------------

    Molecular point group: c1
  Charge       = 1
  Multiplicity = 1
  Basis Set: AUG-CC-PVTZ
    Blend: AUG-CC-PVTZ
  Basis Set: (AUG-CC-PVTZ AUX)
    Blend: AUG-CC-PVTZ-JKFIT

    Orbital Energies [Eh]
    ---------------------

    Doubly Occupied:

       1A    -15.892737     2A    -11.463870     3A    -11.403529
       4A    -11.403178     5A    -11.400121     6A    -11.391182
       7A    -11.381981     8A    -11.348933     9A     -1.507005
      10A     -1.312603    11A     -1.201174    12A     -1.174845
      13A     -1.082975    14A     -1.000473    15A     -0.990850
      16A     -0.953647    17A     -0.918287    18A     -0.871979
      19A     -0.827814    20A     -0.791719    21A     -0.752665
      22A     -0.729031    23A     -0.707290    24A     -0.677572
      25A     -0.652141    26A     -0.651152    27A     -0.643511
      28A     -0.500743    29A     -0.484090

  @DF-RHF Final Energy:  -325.23793643796063

   => Energetics <=

    Nuclear Repulsion Energy =            353.2591864897478899
    One-Electron Energy =               -1128.7600499295226655
    Two-Electron Energy =                 450.2629270018141483
    Total Energy =                       -325.2379364379606272
  Basis Set: (AUG-CC-PVTZ AUX)
    Blend: AUG-CC-PVTZ-RI
    Molecular point group: c1

    Geometry (in Angstrom), charge = 1, multiplicity = 1:

       Center              X                  Y                   Z               Mass
    ------------   -----------------  -----------------  -----------------  -----------------
         N            2.449892671508    -0.971611641321     0.009772854187    14.003074004430
         C            1.138285771508    -0.264545641321    -0.017522245813    12.000000000000
         C           -1.261700228492    -0.307254641321     0.010780754187    12.000000000000
         C           -0.043288228492    -0.997087641321     0.000457754187    12.000000000000
         C            1.190249771508     1.122560358679    -0.009898245813    12.000000000000
         C           -1.232271228492     1.096490358679     0.012284754187    12.000000000000
         C           -0.029836228492     1.803018358679    -0.000424245813    12.000000000000
         C           -2.570411228492    -1.049205641321    -0.006665245813    12.000000000000
         H           -0.034199228492    -2.086711641321     0.000625754187     1.007825032230
         H            2.132473771508     1.667014358679    -0.017299245813     1.007825032230
         H           -2.171363228492     1.645068358679     0.020840754187     1.007825032230
         H           -0.035611228492     2.889082358679    -0.000405245813     1.007825032230
         H            3.183525771508    -0.472293641321    -0.423594245813     1.007825032230
         H            2.718003771508    -1.246513641321     0.969529754187     1.007825032230
         H            2.351155771508    -1.902354641321    -0.511339245813     1.007825032230
         H           -2.434868228492    -2.105512641321     0.236894754187     1.007825032230
         H           -3.268662228492    -0.618879641321     0.715692754187     1.007825032230
         H           -3.034178228492    -0.985882641321    -0.995916245813     1.007825032230

  Basis Set: AUG-CC-PVTZ
    Blend: AUG-CC-PVTZ
  Basis Set: (AUG-CC-PVTZ AUX)
    Blend: AUG-CC-PVTZ-JKFIT
	 Reference Energy          =    -325.2379364379606272 [Eh]
	 Singles Energy            =      -0.0000000000000000 [Eh]
	 Same-Spin Energy          =      -0.3531512335410290 [Eh]
	 Opposite-Spin Energy      =      -1.1491405465883662 [Eh]
	 Correlation Energy        =      -1.5022917801293951 [Eh]
	 Total Energy              =    -326.7402282180900102 [Eh]

	 ================> DF-SCS-MP2 Energies <==================
	-----------------------------------------------------------
	 SCS Same-Spin Scale       =       0.3333333333333333 [-]
	 SCS Opposite-Spin Scale   =       1.2000000000000000 [-]
	 SCS Same-Spin Energy      =      -0.1177170778470096 [Eh]
	 SCS Opposite-Spin Energy  =      -1.3789686559060395 [Eh]
	 SCS Correlation Energy    =      -1.4966857337530490 [Eh]
	 SCS Total Energy          =    -326.7346221717136814 [Eh]
	-----------------------------------------------------------

  Dipole Moment: [D]
     X:     7.2504      Y:    -3.2552      Z:     0.0417     Total:     7.9478

*** Psi4 exiting successfully. Buy a developer a beer!
