                               Psi4 1.3.2 release

  ==> Input File <==

--------------------------------------------------------------------------
#psi4
#
memory 32 gb

molecule  {
1 1
  N        2.4325060    -0.9845600     0.0091070
  C        1.1454743    -0.2331951     0.0085888
  C       -1.2536230    -0.2748500     0.0109180
  C       -0.0352110    -0.9646830     0.0005950
  C        1.1983270     1.1549650    -0.0097610
  C       -1.2241940     1.1288950     0.0124220
  C       -0.0217590     1.8354230    -0.0002870
  C       -2.5623340    -1.0168010    -0.0065280
  H       -0.0261220    -2.0543070     0.0007630
  H        2.1405510     1.6994190    -0.0171620
  H       -2.1632860     1.6774730     0.0209780
  H       -0.0275340     2.9214870    -0.0002680
  H        3.1916030    -0.4398890    -0.4234570
  H        2.7260810    -1.2141090     0.9696670
  H        2.3592330    -1.8699500    -0.5112020
  H       -2.4267910    -2.0731080     0.2370320
  H       -3.2605850    -0.5864750     0.7158300
  H       -3.0261010    -0.9534780    -0.9957790
units angstrom
no_reorient  #important for SAPT in psi4, default
symmetry c1  #important for SAPT in psi4, default
}

set PROPERTIES_ORIGIN ["COM"]
properties('MP2/aug-cc-pvtz', properties = ['dipole'])
--------------------------------------------------------------------------

    Molecular point group: c1
  Charge       = 1
  Multiplicity = 1
  Basis Set: AUG-CC-PVTZ
    Blend: AUG-CC-PVTZ
  Basis Set: (AUG-CC-PVTZ AUX)
    Blend: AUG-CC-PVTZ-JKFIT

    Orbital Energies [Eh]
    ---------------------

    Doubly Occupied:

       1A    -15.892770     2A    -11.463764     3A    -11.404310
       4A    -11.402338     5A    -11.399571     6A    -11.391587
       7A    -11.381884     8A    -11.348631     9A     -1.506750
      10A     -1.312503    11A     -1.201081    12A     -1.174646
      13A     -1.082835    14A     -1.001662    15A     -0.984239
      16A     -0.953692    17A     -0.925787    18A     -0.870567
      19A     -0.827197    20A     -0.791979    21A     -0.753290
      22A     -0.729072    23A     -0.707095    24A     -0.677942
      25A     -0.651600    26A     -0.651061    27A     -0.643565
      28A     -0.500843    29A     -0.483919

  @DF-RHF Final Energy:  -325.24156956259890

   => Energetics <=

    Nuclear Repulsion Energy =            353.2882151133622415
    One-Electron Energy =               -1128.8272060440622226
    Two-Electron Energy =                 450.2974213681011406
    Total Energy =                       -325.2415695625988974
  Basis Set: (AUG-CC-PVTZ AUX)
    Blend: AUG-CC-PVTZ-RI
    Molecular point group: c1

    Geometry (in Angstrom), charge = 1, multiplicity = 1:

       Center              X                  Y                   Z               Mass
    ------------   -----------------  -----------------  -----------------  -----------------
         N            2.427826558114    -1.010971648365     0.006189997988    14.003074004430
         C            1.140794858114    -0.259606748365     0.005671797988    12.000000000000
         C           -1.258302441886    -0.301261648365     0.008000997988    12.000000000000
         C           -0.039890441886    -0.991094648365    -0.002322002012    12.000000000000
         C            1.193647558114     1.128553351635    -0.012678002012    12.000000000000
         C           -1.228873441886     1.102483351635     0.009504997988    12.000000000000
         C           -0.026438441886     1.809011351635    -0.003204002012    12.000000000000
         C           -2.567013441886    -1.043212648365    -0.009445002012    12.000000000000
         H           -0.030801441886    -2.080718648365    -0.002154002012     1.007825032230
         H            2.135871558114     1.673007351635    -0.020079002012     1.007825032230
         H           -2.167965441886     1.651061351635     0.018060997988     1.007825032230
         H           -0.032213441886     2.895075351635    -0.003185002012     1.007825032230
         H            3.186923558114    -0.466300648365    -0.426374002012     1.007825032230
         H            2.721401558114    -1.240520648365     0.966749997988     1.007825032230
         H            2.354553558114    -1.896361648365    -0.514119002012     1.007825032230
         H           -2.431470441886    -2.099519648365     0.234114997988     1.007825032230
         H           -3.265264441886    -0.612886648365     0.712912997988     1.007825032230
         H           -3.030780441886    -0.979889648365    -0.998696002012     1.007825032230

  Basis Set: AUG-CC-PVTZ
    Blend: AUG-CC-PVTZ
  Basis Set: (AUG-CC-PVTZ AUX)
    Blend: AUG-CC-PVTZ-JKFIT
	 Reference Energy          =    -325.2415695625988974 [Eh]
	 Singles Energy            =      -0.0000000000000000 [Eh]
	 Same-Spin Energy          =      -0.3530721599054317 [Eh]
	 Opposite-Spin Energy      =      -1.1489556693060012 [Eh]
	 Correlation Energy        =      -1.5020278292114329 [Eh]
	 Total Energy              =    -326.7435973918103400 [Eh]

	 ================> DF-SCS-MP2 Energies <==================
	-----------------------------------------------------------
	 SCS Same-Spin Scale       =       0.3333333333333333 [-]
	 SCS Opposite-Spin Scale   =       1.2000000000000000 [-]
	 SCS Same-Spin Energy      =      -0.1176907199684772 [Eh]
	 SCS Opposite-Spin Energy  =      -1.3787468031672014 [Eh]
	 SCS Correlation Energy    =      -1.4964375231356786 [Eh]
	 SCS Total Energy          =    -326.7380070857345800 [Eh]
	-----------------------------------------------------------

  Dipole Moment: [D]
     X:     7.2902      Y:    -3.2069      Z:     0.0172     Total:     7.9644

*** Psi4 exiting successfully. Buy a developer a beer!
