                               Psi4 1.4a3.dev225

  ==> Input File <==

--------------------------------------------------------------------------
#psi4
#
memory 32 gb

molecule  {
1 1
  N       -2.4283840    -0.9794160    -0.0083510
  C       -1.1529900    -0.2336800     0.0170800
  C        1.2518020    -0.2721820    -0.0143110
  C        0.0325720    -0.9600410    -0.0018850
  C       -1.1926600     1.1553070     0.0124660
  C        1.2305980     1.1300670    -0.0135530
  C        0.0267990     1.8353860     0.0007220
  C        2.5554400    -1.0247750     0.0087590
  H        0.0173310    -2.0482160    -0.0066590
  H       -2.1350750     1.6966590     0.0194740
  H        2.1710470     1.6766600    -0.0258320
  H        0.0318520     2.9216190    -0.0004860
  H       -3.1522702    -0.4812231     0.4220461
  H       -2.7337660    -1.1857680    -0.9692710
  H       -2.3540760    -1.8789800     0.4839570
  H        2.4304730    -2.0404690    -0.3743800
  H        3.3081630    -0.5154690    -0.5984160
  H        2.9426300    -1.0948430     1.0303570
units angstrom
no_reorient  #important for SAPT in psi4, default
symmetry c1  #important for SAPT in psi4, default
}

set PROPERTIES_ORIGIN ["COM"]
properties('MP2/aug-cc-pvtz', properties = ['dipole'])
--------------------------------------------------------------------------

    Molecular point group: c1
  Charge       = 1
  Multiplicity = 1
  Basis Set: AUG-CC-PVTZ
    Blend: AUG-CC-PVTZ
  Basis Set: (AUG-CC-PVTZ AUX)
    Blend: AUG-CC-PVTZ-JKFIT

    Orbital Energies [Eh]
    ---------------------

    Doubly Occupied:

       1A    -15.890952     2A    -11.462962     3A    -11.404033
       4A    -11.402369     5A    -11.399187     6A    -11.391681
       7A    -11.382377     8A    -11.348606     9A     -1.519698
      10A     -1.313262    11A     -1.201217    12A     -1.176627
      13A     -1.082907    14A     -1.004370    15A     -0.993416
      16A     -0.960488    17A     -0.931949    18A     -0.873408
      19A     -0.829733    20A     -0.791990    21A     -0.753845
      22A     -0.728161    23A     -0.706911    24A     -0.678292
      25A     -0.652543    26A     -0.651078    27A     -0.642522
      28A     -0.501198    29A     -0.483950

  @DF-RHF Final Energy:  -325.24143246238464

   => Energetics <=

    Nuclear Repulsion Energy =            353.8279018711078834
    One-Electron Energy =               -1129.8192011556734542
    Two-Electron Energy =                 450.7498668221809339
    Total Energy =                       -325.2414324623846369
  Basis Set: (AUG-CC-PVTZ AUX)
    Blend: AUG-CC-PVTZ-RI
    Molecular point group: c1

    Geometry (in Angstrom), charge = 1, multiplicity = 1:

       Center              X                  Y                   Z               Mass
    ------------   -----------------  -----------------  -----------------  -----------------
         N           -2.424167899923    -1.005998160315    -0.008120026802    14.003074004430
         C           -1.148773899923    -0.260262160315     0.017310973198    12.000000000000
         C            1.256018100077    -0.298764160315    -0.014080026802    12.000000000000
         C            0.036788100077    -0.986623160315    -0.001654026802    12.000000000000
         C           -1.188443899923     1.128724839685     0.012696973198    12.000000000000
         C            1.234814100077     1.103484839685    -0.013322026802    12.000000000000
         C            0.031015100077     1.808803839685     0.000952973198    12.000000000000
         C            2.559656100077    -1.051357160315     0.008989973198    12.000000000000
         H            0.021547100077    -2.074798160315    -0.006428026802     1.007825032230
         H           -2.130858899923     1.670076839685     0.019704973198     1.007825032230
         H            2.175263100077     1.650077839685    -0.025601026802     1.007825032230
         H            0.036068100077     2.895036839685    -0.000255026802     1.007825032230
         H           -3.148054099923    -0.507805260315     0.422277073198     1.007825032230
         H           -2.729549899923    -1.212350160315    -0.969040026802     1.007825032230
         H           -2.349859899923    -1.905562160315     0.484187973198     1.007825032230
         H            2.434689100077    -2.067051160315    -0.374149026802     1.007825032230
         H            3.312379100077    -0.542051160315    -0.598185026802     1.007825032230
         H            2.946846100077    -1.121425160315     1.030587973198     1.007825032230

  Basis Set: AUG-CC-PVTZ
    Blend: AUG-CC-PVTZ
  Basis Set: (AUG-CC-PVTZ AUX)
    Blend: AUG-CC-PVTZ-JKFIT
	 Reference Energy          =    -325.2414324623846369 [Eh]
	 Singles Energy            =      -0.0000000000000000 [Eh]
	 Same-Spin Energy          =      -0.3528165566198243 [Eh]
	 Opposite-Spin Energy      =      -1.1479228077947086 [Eh]
	 Correlation Energy        =      -1.5007393644145328 [Eh]
	 Total Energy              =    -326.7421718267991650 [Eh]

	 ================> DF-SCS-MP2 Energies <==================
	-----------------------------------------------------------
	 SCS Same-Spin Scale       =       0.3333333333333333 [-]
	 SCS Opposite-Spin Scale   =       1.2000000000000000 [-]
	 SCS Same-Spin Energy      =      -0.1176055188732748 [Eh]
	 SCS Opposite-Spin Energy  =      -1.3775073693536501 [Eh]
	 SCS Correlation Energy    =      -1.4951128882269249 [Eh]
	 SCS Total Energy          =    -326.7365453506115500 [Eh]
	-----------------------------------------------------------

  Dipole Moment: [D]
     X:    -7.2789      Y:    -3.2565      Z:    -0.0706     Total:     7.9745

*** Psi4 exiting successfully. Buy a developer a beer!
