                               Psi4 1.3.2 release

  ==> Input File <==

--------------------------------------------------------------------------
#psi4
#
memory 32 gb

molecule  {
1 1
  N        2.3468462    -1.1149033     0.0065083
  C        1.1463630    -0.2321410    -0.0173850
  C       -1.2536230    -0.2748500     0.0109180
  C       -0.0352110    -0.9646830     0.0005950
  C        1.1983270     1.1549650    -0.0097610
  C       -1.2241940     1.1288950     0.0124220
  C       -0.0217590     1.8354230    -0.0002870
  C       -2.5623340    -1.0168010    -0.0065280
  H       -0.0261220    -2.0543070     0.0007630
  H        2.1405510     1.6994190    -0.0171620
  H       -2.1632860     1.6774730     0.0209780
  H       -0.0275340     2.9214870    -0.0002680
  H        3.1916030    -0.4398890    -0.4234570
  H        2.7260810    -1.2141090     0.9696670
  H        2.3592330    -1.8699500    -0.5112020
  H       -2.4267910    -2.0731080     0.2370320
  H       -3.2605850    -0.5864750     0.7158300
  H       -3.0261010    -0.9534780    -0.9957790
units angstrom
no_reorient  #important for SAPT in psi4, default
symmetry c1  #important for SAPT in psi4, default
}

set PROPERTIES_ORIGIN ["COM"]
properties('MP2/aug-cc-pvtz', properties = ['dipole'])
--------------------------------------------------------------------------

    Molecular point group: c1
  Charge       = 1
  Multiplicity = 1
  Basis Set: AUG-CC-PVTZ
    Blend: AUG-CC-PVTZ
  Basis Set: (AUG-CC-PVTZ AUX)
    Blend: AUG-CC-PVTZ-JKFIT

    Orbital Energies [Eh]
    ---------------------

    Doubly Occupied:

       1A    -15.892366     2A    -11.464883     3A    -11.407884
       4A    -11.399554     5A    -11.398148     6A    -11.393153
       7A    -11.382258     8A    -11.348005     9A     -1.508966
      10A     -1.313178    11A     -1.202120    12A     -1.175629
      13A     -1.083059    14A     -1.018216    15A     -0.981769
      16A     -0.968957    17A     -0.898692    18A     -0.863235
      19A     -0.826008    20A     -0.786144    21A     -0.754898
      22A     -0.729704    23A     -0.706587    24A     -0.679306
      25A     -0.651596    26A     -0.648699    27A     -0.643729
      28A     -0.500826    29A     -0.484369

  @DF-RHF Final Energy:  -325.20894868055865

   => Energetics <=

    Nuclear Repulsion Energy =            353.4653739892843305
    One-Electron Energy =               -1129.1247705603177565
    Two-Electron Energy =                 450.4504478904747771
    Total Energy =                       -325.2089486805586489
  Basis Set: (AUG-CC-PVTZ AUX)
    Blend: AUG-CC-PVTZ-RI
    Molecular point group: c1

    Geometry (in Angstrom), charge = 1, multiplicity = 1:

       Center              X                  Y                   Z               Mass
    ------------   -----------------  -----------------  -----------------  -----------------
         N            2.353166217327    -1.124544635018     0.006811793209    14.003074004430
         C            1.152683017327    -0.241782335018    -0.017081506791    12.000000000000
         C           -1.247302982673    -0.284491335018     0.011221493209    12.000000000000
         C           -0.028890982673    -0.974324335018     0.000898493209    12.000000000000
         C            1.204647017327     1.145323664982    -0.009457506791    12.000000000000
         C           -1.217873982673     1.119253664982     0.012725493209    12.000000000000
         C           -0.015438982673     1.825781664982     0.000016493209    12.000000000000
         C           -2.556013982673    -1.026442335018    -0.006224506791    12.000000000000
         H           -0.019801982673    -2.063948335018     0.001066493209     1.007825032230
         H            2.146871017327     1.689777664982    -0.016858506791     1.007825032230
         H           -2.156965982673     1.667831664982     0.021281493209     1.007825032230
         H           -0.021213982673     2.911845664982     0.000035493209     1.007825032230
         H            3.197923017327    -0.449530335018    -0.423153506791     1.007825032230
         H            2.732401017327    -1.223750335018     0.969970493209     1.007825032230
         H            2.365553017327    -1.879591335018    -0.510898506791     1.007825032230
         H           -2.420470982673    -2.082749335018     0.237335493209     1.007825032230
         H           -3.254264982673    -0.596116335018     0.716133493209     1.007825032230
         H           -3.019780982673    -0.963119335018    -0.995475506791     1.007825032230

  Basis Set: AUG-CC-PVTZ
    Blend: AUG-CC-PVTZ
  Basis Set: (AUG-CC-PVTZ AUX)
    Blend: AUG-CC-PVTZ-JKFIT
	 Reference Energy          =    -325.2089486805586489 [Eh]
	 Singles Energy            =      -0.0000000000000000 [Eh]
	 Same-Spin Energy          =      -0.3538489473705000 [Eh]
	 Opposite-Spin Energy      =      -1.1510094303766178 [Eh]
	 Correlation Energy        =      -1.5048583777471178 [Eh]
	 Total Energy              =    -326.7138070583057470 [Eh]

	 ================> DF-SCS-MP2 Energies <==================
	-----------------------------------------------------------
	 SCS Same-Spin Scale       =       0.3333333333333333 [-]
	 SCS Opposite-Spin Scale   =       1.2000000000000000 [-]
	 SCS Same-Spin Energy      =      -0.1179496491235000 [Eh]
	 SCS Opposite-Spin Energy  =      -1.3812113164519413 [Eh]
	 SCS Correlation Energy    =      -1.4991609655754412 [Eh]
	 SCS Total Energy          =    -326.7081096461340621 [Eh]
	-----------------------------------------------------------

  Dipole Moment: [D]
     X:     7.3582      Y:    -3.0324      Z:     0.0533     Total:     7.9587

*** Psi4 exiting successfully. Buy a developer a beer!
