                               Psi4 1.3.2 release

  ==> Input File <==

--------------------------------------------------------------------------
#psi4
#
memory 32 gb

molecule  {
1 1
  N        2.4325060    -0.9845600     0.0091070
  C        1.1599044    -0.2306358    -0.1727816
  C       -1.2536230    -0.2748500     0.0109180
  C       -0.0352110    -0.9646830     0.0005950
  C        1.1983270     1.1549650    -0.0097610
  C       -1.2241940     1.1288950     0.0124220
  C       -0.0217590     1.8354230    -0.0002870
  C       -2.5623340    -1.0168010    -0.0065280
  H       -0.0261220    -2.0543070     0.0007630
  H        2.1405510     1.6994190    -0.0171620
  H       -2.1632860     1.6774730     0.0209780
  H       -0.0275340     2.9214870    -0.0002680
  H        3.1916030    -0.4398890    -0.4234570
  H        2.7260810    -1.2141090     0.9696670
  H        2.3592330    -1.8699500    -0.5112020
  H       -2.4267910    -2.0731080     0.2370320
  H       -3.2605850    -0.5864750     0.7158300
  H       -3.0261010    -0.9534780    -0.9957790
units angstrom
no_reorient  #important for SAPT in psi4, default
symmetry c1  #important for SAPT in psi4, default
}

set PROPERTIES_ORIGIN ["COM"]
properties('MP2/aug-cc-pvtz', properties = ['dipole'])
--------------------------------------------------------------------------

    Molecular point group: c1
  Charge       = 1
  Multiplicity = 1
  Basis Set: AUG-CC-PVTZ
    Blend: AUG-CC-PVTZ
  Basis Set: (AUG-CC-PVTZ AUX)
    Blend: AUG-CC-PVTZ-JKFIT

    Orbital Energies [Eh]
    ---------------------

    Doubly Occupied:

       1A    -15.891067     2A    -11.464301     3A    -11.407731
       4A    -11.406041     5A    -11.399687     6A    -11.391819
       7A    -11.385694     8A    -11.349059     9A     -1.504990
      10A     -1.310622    11A     -1.201412    12A     -1.172324
      13A     -1.082112    14A     -1.002898    15A     -0.983825
      16A     -0.950986    17A     -0.924698    18A     -0.866807
      19A     -0.828148    20A     -0.788508    21A     -0.753577
      22A     -0.728946    23A     -0.706793    24A     -0.678920
      25A     -0.653531    26A     -0.647200    27A     -0.643590
      28A     -0.500709    29A     -0.484410

  @DF-RHF Final Energy:  -325.23227501734652

   => Energetics <=

    Nuclear Repulsion Energy =            352.7986496473360489
    One-Electron Energy =               -1127.8410411112151905
    Two-Electron Energy =                 449.8101164465325610
    Total Energy =                       -325.2322750173465238
  Basis Set: (AUG-CC-PVTZ AUX)
    Blend: AUG-CC-PVTZ-RI
    Molecular point group: c1

    Geometry (in Angstrom), charge = 1, multiplicity = 1:

       Center              X                  Y                   Z               Mass
    ------------   -----------------  -----------------  -----------------  -----------------
         N            2.426224420085    -1.011255801064     0.026327101355    14.003074004430
         C            1.153622820085    -0.257331601064    -0.155561498645    12.000000000000
         C           -1.259904579915    -0.301545801064     0.028138101355    12.000000000000
         C           -0.041492579915    -0.991378801064     0.017815101355    12.000000000000
         C            1.192045420085     1.128269198936     0.007459101355    12.000000000000
         C           -1.230475579915     1.102199198936     0.029642101355    12.000000000000
         C           -0.028040579915     1.808727198936     0.016933101355    12.000000000000
         C           -2.568615579915    -1.043496801064     0.010692101355    12.000000000000
         H           -0.032403579915    -2.081002801064     0.017983101355     1.007825032230
         H            2.134269420085     1.672723198936     0.000058101355     1.007825032230
         H           -2.169567579915     1.650777198936     0.038198101355     1.007825032230
         H           -0.033815579915     2.894791198936     0.016952101355     1.007825032230
         H            3.185321420085    -0.466584801064    -0.406236898645     1.007825032230
         H            2.719799420085    -1.240804801064     0.986887101355     1.007825032230
         H            2.352951420085    -1.896645801064    -0.493981898645     1.007825032230
         H           -2.433072579915    -2.099803801064     0.254252101355     1.007825032230
         H           -3.266866579915    -0.613170801064     0.733050101355     1.007825032230
         H           -3.032382579915    -0.980173801064    -0.978558898645     1.007825032230

  Basis Set: AUG-CC-PVTZ
    Blend: AUG-CC-PVTZ
  Basis Set: (AUG-CC-PVTZ AUX)
    Blend: AUG-CC-PVTZ-JKFIT
	 Reference Energy          =    -325.2322750173465238 [Eh]
	 Singles Energy            =      -0.0000000000000000 [Eh]
	 Same-Spin Energy          =      -0.3534586464341481 [Eh]
	 Opposite-Spin Energy      =      -1.1503785285252610 [Eh]
	 Correlation Energy        =      -1.5038371749594091 [Eh]
	 Total Energy              =    -326.7361121923059386 [Eh]

	 ================> DF-SCS-MP2 Energies <==================
	-----------------------------------------------------------
	 SCS Same-Spin Scale       =       0.3333333333333333 [-]
	 SCS Opposite-Spin Scale   =       1.2000000000000000 [-]
	 SCS Same-Spin Energy      =      -0.1178195488113827 [Eh]
	 SCS Opposite-Spin Energy  =      -1.3804542342303132 [Eh]
	 SCS Correlation Energy    =      -1.4982737830416959 [Eh]
	 SCS Total Energy          =    -326.7305488003881919 [Eh]
	-----------------------------------------------------------

  Dipole Moment: [D]
     X:     7.1603      Y:    -3.1307      Z:     0.1870     Total:     7.8170

*** Psi4 exiting successfully. Buy a developer a beer!
