                               Psi4 1.3.2 release

  ==> Input File <==

--------------------------------------------------------------------------
#psi4
#
memory 32 gb

molecule  {
1 1
  N        2.4325060    -0.9845600     0.0091070
  C        1.1451611    -0.2377290     0.0864794
  C       -1.2536230    -0.2748500     0.0109180
  C       -0.0352110    -0.9646830     0.0005950
  C        1.1983270     1.1549650    -0.0097610
  C       -1.2241940     1.1288950     0.0124220
  C       -0.0217590     1.8354230    -0.0002870
  C       -2.5623340    -1.0168010    -0.0065280
  H       -0.0261220    -2.0543070     0.0007630
  H        2.1405510     1.6994190    -0.0171620
  H       -2.1632860     1.6774730     0.0209780
  H       -0.0275340     2.9214870    -0.0002680
  H        3.1916030    -0.4398890    -0.4234570
  H        2.7260810    -1.2141090     0.9696670
  H        2.3592330    -1.8699500    -0.5112020
  H       -2.4267910    -2.0731080     0.2370320
  H       -3.2605850    -0.5864750     0.7158300
  H       -3.0261010    -0.9534780    -0.9957790
units angstrom
no_reorient  #important for SAPT in psi4, default
symmetry c1  #important for SAPT in psi4, default
}

set PROPERTIES_ORIGIN ["COM"]
properties('MP2/aug-cc-pvtz', properties = ['dipole'])
--------------------------------------------------------------------------

    Molecular point group: c1
  Charge       = 1
  Multiplicity = 1
  Basis Set: AUG-CC-PVTZ
    Blend: AUG-CC-PVTZ
  Basis Set: (AUG-CC-PVTZ AUX)
    Blend: AUG-CC-PVTZ-JKFIT

    Orbital Energies [Eh]
    ---------------------

    Doubly Occupied:

       1A    -15.892401     2A    -11.464262     3A    -11.405237
       4A    -11.402880     5A    -11.399451     6A    -11.391449
       7A    -11.382220     8A    -11.348606     9A     -1.506584
      10A     -1.311966    11A     -1.200285    12A     -1.174811
      13A     -1.082316    14A     -1.001595    15A     -0.984425
      16A     -0.953437    17A     -0.925391    18A     -0.869847
      19A     -0.827225    20A     -0.791149    21A     -0.753410
      22A     -0.728657    23A     -0.706917    24A     -0.677752
      25A     -0.652799    26A     -0.649380    27A     -0.643351
      28A     -0.501092    29A     -0.483120

  @DF-RHF Final Energy:  -325.23845767631713

   => Energetics <=

    Nuclear Repulsion Energy =            353.1819134570336587
    One-Electron Energy =               -1128.6167144797964283
    Two-Electron Energy =                 450.1963433464455875
    Total Energy =                       -325.2384576763171253
  Basis Set: (AUG-CC-PVTZ AUX)
    Blend: AUG-CC-PVTZ-RI
    Molecular point group: c1

    Geometry (in Angstrom), charge = 1, multiplicity = 1:

       Center              X                  Y                   Z               Mass
    ------------   -----------------  -----------------  -----------------  -----------------
         N            2.427861331930    -1.010468260751    -0.002458001153    14.003074004430
         C            1.140516431930    -0.263637260751     0.074914398847    12.000000000000
         C           -1.258267668070    -0.300758260751    -0.000647001153    12.000000000000
         C           -0.039855668070    -0.990591260751    -0.010970001153    12.000000000000
         C            1.193682331930     1.129056739249    -0.021326001153    12.000000000000
         C           -1.228838668070     1.102986739249     0.000856998847    12.000000000000
         C           -0.026403668070     1.809514739249    -0.011852001153    12.000000000000
         C           -2.566978668070    -1.042709260751    -0.018093001153    12.000000000000
         H           -0.030766668070    -2.080215260751    -0.010802001153     1.007825032230
         H            2.135906331930     1.673510739249    -0.028727001153     1.007825032230
         H           -2.167930668070     1.651564739249     0.009412998847     1.007825032230
         H           -0.032178668070     2.895578739249    -0.011833001153     1.007825032230
         H            3.186958331930    -0.465797260751    -0.435022001153     1.007825032230
         H            2.721436331930    -1.240017260751     0.958101998847     1.007825032230
         H            2.354588331930    -1.895858260751    -0.522767001153     1.007825032230
         H           -2.431435668070    -2.099016260751     0.225466998847     1.007825032230
         H           -3.265229668070    -0.612383260751     0.704264998847     1.007825032230
         H           -3.030745668070    -0.979386260751    -1.007344001153     1.007825032230

  Basis Set: AUG-CC-PVTZ
    Blend: AUG-CC-PVTZ
  Basis Set: (AUG-CC-PVTZ AUX)
    Blend: AUG-CC-PVTZ-JKFIT
	 Reference Energy          =    -325.2384576763171253 [Eh]
	 Singles Energy            =      -0.0000000000000000 [Eh]
	 Same-Spin Energy          =      -0.3531987118949625 [Eh]
	 Opposite-Spin Energy      =      -1.1493884737286417 [Eh]
	 Correlation Energy        =      -1.5025871856236042 [Eh]
	 Total Energy              =    -326.7410448619407362 [Eh]

	 ================> DF-SCS-MP2 Energies <==================
	-----------------------------------------------------------
	 SCS Same-Spin Scale       =       0.3333333333333333 [-]
	 SCS Opposite-Spin Scale   =       1.2000000000000000 [-]
	 SCS Same-Spin Energy      =      -0.1177329039649875 [Eh]
	 SCS Opposite-Spin Energy  =      -1.3792661684743701 [Eh]
	 SCS Correlation Energy    =      -1.4969990724393576 [Eh]
	 SCS Total Energy          =    -326.7354567487564623 [Eh]
	-----------------------------------------------------------

  Dipole Moment: [D]
     X:     7.2820      Y:    -3.2055      Z:    -0.0534     Total:     7.9564

*** Psi4 exiting successfully. Buy a developer a beer!
