                               Psi4 1.3.2 release

  ==> Input File <==

--------------------------------------------------------------------------
#psi4
#
memory 32 gb

molecule  {
1 1
  N        2.4325060    -0.9845600     0.0091070
  C        1.1463630    -0.2321410    -0.0173850
  C       -1.2536230    -0.2748500     0.0109180
  C       -0.0352110    -0.9646830     0.0005950
  C        1.1983270     1.1549650    -0.0097610
  C       -1.2241940     1.1288950     0.0124220
  C       -0.0217590     1.8354230    -0.0002870
  C       -2.5623340    -1.0168010    -0.0065280
  H       -0.0261220    -2.0543070     0.0007630
  H        2.1405510     1.6994190    -0.0171620
  H       -2.1632860     1.6774730     0.0209780
  H       -0.0275340     2.9214870    -0.0002680
  H        3.2101867    -0.4426446    -0.3928219
  H        2.7260810    -1.2141090     0.9696670
  H        2.3592330    -1.8699500    -0.5112020
  H       -2.4267910    -2.0731080     0.2370320
  H       -3.2605850    -0.5864750     0.7158300
  H       -3.0261010    -0.9534780    -0.9957790
units angstrom
no_reorient  #important for SAPT in psi4, default
symmetry c1  #important for SAPT in psi4, default
}

set PROPERTIES_ORIGIN ["COM"]
properties('MP2/aug-cc-pvtz', properties = ['dipole'])
--------------------------------------------------------------------------

    Molecular point group: c1
  Charge       = 1
  Multiplicity = 1
  Basis Set: AUG-CC-PVTZ
    Blend: AUG-CC-PVTZ
  Basis Set: (AUG-CC-PVTZ AUX)
    Blend: AUG-CC-PVTZ-JKFIT

    Orbital Energies [Eh]
    ---------------------

    Doubly Occupied:

       1A    -15.892812     2A    -11.463888     3A    -11.404246
       4A    -11.402502     5A    -11.399604     6A    -11.391545
       7A    -11.381974     8A    -11.348642     9A     -1.506689
      10A     -1.312556    11A     -1.201229    12A     -1.174690
      13A     -1.082833    14A     -1.001612    15A     -0.985532
      16A     -0.950815    17A     -0.926080    18A     -0.870995
      19A     -0.827469    20A     -0.792073    21A     -0.753239
      22A     -0.729109    23A     -0.707069    24A     -0.677986
      25A     -0.651503    26A     -0.651090    27A     -0.643580
      28A     -0.500689    29A     -0.484054

  @DF-RHF Final Energy:  -325.24150438938477

   => Energetics <=

    Nuclear Repulsion Energy =            353.2539138230416143
    One-Electron Energy =               -1128.7586284391913978
    Two-Electron Energy =                 450.2632102267650680
    Total Energy =                       -325.2415043893847724
  Basis Set: (AUG-CC-PVTZ AUX)
    Blend: AUG-CC-PVTZ-RI
    Molecular point group: c1

    Geometry (in Angstrom), charge = 1, multiplicity = 1:

       Center              X                  Y                   Z               Mass
    ------------   -----------------  -----------------  -----------------  -----------------
         N            2.427554600695    -1.011062987340     0.008788141387    14.003074004430
         C            1.141411600695    -0.258643987340    -0.017703858613    12.000000000000
         C           -1.258574399305    -0.301352987340     0.010599141387    12.000000000000
         C           -0.040162399305    -0.991185987340     0.000276141387    12.000000000000
         C            1.193375600695     1.128462012660    -0.010079858613    12.000000000000
         C           -1.229145399305     1.102392012660     0.012103141387    12.000000000000
         C           -0.026710399305     1.808920012660    -0.000605858613    12.000000000000
         C           -2.567285399305    -1.043303987340    -0.006846858613    12.000000000000
         H           -0.031073399305    -2.080809987340     0.000444141387     1.007825032230
         H            2.135599600695     1.672916012660    -0.017480858613     1.007825032230
         H           -2.168237399305     1.650970012660     0.020659141387     1.007825032230
         H           -0.032485399305     2.894984012660    -0.000586858613     1.007825032230
         H            3.205235300695    -0.469147587340    -0.393140758613     1.007825032230
         H            2.721129600695    -1.240611987340     0.969348141387     1.007825032230
         H            2.354281600695    -1.896452987340    -0.511520858613     1.007825032230
         H           -2.431742399305    -2.099610987340     0.236713141387     1.007825032230
         H           -3.265536399305    -0.612977987340     0.715511141387     1.007825032230
         H           -3.031052399305    -0.979980987340    -0.996097858613     1.007825032230

  Basis Set: AUG-CC-PVTZ
    Blend: AUG-CC-PVTZ
  Basis Set: (AUG-CC-PVTZ AUX)
    Blend: AUG-CC-PVTZ-JKFIT
	 Reference Energy          =    -325.2415043893847724 [Eh]
	 Singles Energy            =      -0.0000000000000000 [Eh]
	 Same-Spin Energy          =      -0.3530674984611147 [Eh]
	 Opposite-Spin Energy      =      -1.1489209328840371 [Eh]
	 Correlation Energy        =      -1.5019884313451519 [Eh]
	 Total Energy              =    -326.7434928207298981 [Eh]

	 ================> DF-SCS-MP2 Energies <==================
	-----------------------------------------------------------
	 SCS Same-Spin Scale       =       0.3333333333333333 [-]
	 SCS Opposite-Spin Scale   =       1.2000000000000000 [-]
	 SCS Same-Spin Energy      =      -0.1176891661537049 [Eh]
	 SCS Opposite-Spin Energy  =      -1.3787051194608444 [Eh]
	 SCS Correlation Energy    =      -1.4963942856145493 [Eh]
	 SCS Total Energy          =    -326.7378986749993146 [Eh]
	-----------------------------------------------------------

  Dipole Moment: [D]
     X:     7.3055      Y:    -3.2035      Z:     0.0710     Total:     7.9774

*** Psi4 exiting successfully. Buy a developer a beer!
