                               Psi4 1.3.2 release

  ==> Input File <==

--------------------------------------------------------------------------
#psi4
#
memory 32 gb

molecule  {
1 1
  N        2.5040746    -0.8459730     0.0114155
  C        1.1463630    -0.2321410    -0.0173850
  C       -1.2536230    -0.2748500     0.0109180
  C       -0.0352110    -0.9646830     0.0005950
  C        1.1983270     1.1549650    -0.0097610
  C       -1.2241940     1.1288950     0.0124220
  C       -0.0217590     1.8354230    -0.0002870
  C       -2.5623340    -1.0168010    -0.0065280
  H       -0.0261220    -2.0543070     0.0007630
  H        2.1405510     1.6994190    -0.0171620
  H       -2.1632860     1.6774730     0.0209780
  H       -0.0275340     2.9214870    -0.0002680
  H        3.1916030    -0.4398890    -0.4234570
  H        2.7260810    -1.2141090     0.9696670
  H        2.3592330    -1.8699500    -0.5112020
  H       -2.4267910    -2.0731080     0.2370320
  H       -3.2605850    -0.5864750     0.7158300
  H       -3.0261010    -0.9534780    -0.9957790
units angstrom
no_reorient  #important for SAPT in psi4, default
symmetry c1  #important for SAPT in psi4, default
}

set PROPERTIES_ORIGIN ["COM"]
properties('MP2/aug-cc-pvtz', properties = ['dipole'])
--------------------------------------------------------------------------

    Molecular point group: c1
  Charge       = 1
  Multiplicity = 1
  Basis Set: AUG-CC-PVTZ
    Blend: AUG-CC-PVTZ
  Basis Set: (AUG-CC-PVTZ AUX)
    Blend: AUG-CC-PVTZ-JKFIT

    Orbital Energies [Eh]
    ---------------------

    Doubly Occupied:

       1A    -15.892468     2A    -11.465069     3A    -11.405822
       4A    -11.401253     5A    -11.401005     6A    -11.390399
       7A    -11.381925     8A    -11.349566     9A     -1.509400
      10A     -1.313363    11A     -1.201434    12A     -1.176721
      13A     -1.083243    14A     -1.014553    15A     -0.998462
      16A     -0.953319    17A     -0.890277    18A     -0.873730
      19A     -0.828990    20A     -0.788781    21A     -0.751118
      22A     -0.728916    23A     -0.707667    24A     -0.676555
      25A     -0.653663    26A     -0.650699    27A     -0.643243
      28A     -0.500712    29A     -0.484111

  @DF-RHF Final Energy:  -325.20785436255107

   => Energetics <=

    Nuclear Repulsion Energy =            353.2762069875008706
    One-Electron Energy =               -1128.7351977051732774
    Two-Electron Energy =                 450.2511363551212753
    Total Energy =                       -325.2078543625510747
  Basis Set: (AUG-CC-PVTZ AUX)
    Blend: AUG-CC-PVTZ-RI
    Molecular point group: c1

    Geometry (in Angstrom), charge = 1, multiplicity = 1:

       Center              X                  Y                   Z               Mass
    ------------   -----------------  -----------------  -----------------  -----------------
         N            2.490024021995    -0.890457088069     0.011083213760    14.003074004430
         C            1.132312421995    -0.276625088069    -0.017717286240    12.000000000000
         C           -1.267673578005    -0.319334088069     0.010585713760    12.000000000000
         C           -0.049261578005    -1.009167088069     0.000262713760    12.000000000000
         C            1.184276421995     1.110480911931    -0.010093286240    12.000000000000
         C           -1.238244578005     1.084410911931     0.012089713760    12.000000000000
         C           -0.035809578005     1.790938911931    -0.000619286240    12.000000000000
         C           -2.576384578005    -1.061285088069    -0.006860286240    12.000000000000
         H           -0.040172578005    -2.098791088069     0.000430713760     1.007825032230
         H            2.126500421995     1.654934911931    -0.017494286240     1.007825032230
         H           -2.177336578005     1.632988911931     0.020645713760     1.007825032230
         H           -0.041584578005     2.877002911931    -0.000600286240     1.007825032230
         H            3.177552421995    -0.484373088069    -0.423789286240     1.007825032230
         H            2.712030421995    -1.258593088069     0.969334713760     1.007825032230
         H            2.345182421995    -1.914434088069    -0.511534286240     1.007825032230
         H           -2.440841578005    -2.117592088069     0.236699713760     1.007825032230
         H           -3.274635578005    -0.630959088069     0.715497713760     1.007825032230
         H           -3.040151578005    -0.997962088069    -0.996111286240     1.007825032230

  Basis Set: AUG-CC-PVTZ
    Blend: AUG-CC-PVTZ
  Basis Set: (AUG-CC-PVTZ AUX)
    Blend: AUG-CC-PVTZ-JKFIT
	 Reference Energy          =    -325.2078543625510747 [Eh]
	 Singles Energy            =      -0.0000000000000000 [Eh]
	 Same-Spin Energy          =      -0.3538267766491170 [Eh]
	 Opposite-Spin Energy      =      -1.1508954696909277 [Eh]
	 Correlation Energy        =      -1.5047222463400447 [Eh]
	 Total Energy              =    -326.7125766088911405 [Eh]

	 ================> DF-SCS-MP2 Energies <==================
	-----------------------------------------------------------
	 SCS Same-Spin Scale       =       0.3333333333333333 [-]
	 SCS Opposite-Spin Scale   =       1.2000000000000000 [-]
	 SCS Same-Spin Energy      =      -0.1179422588830390 [Eh]
	 SCS Opposite-Spin Energy  =      -1.3810745636291133 [Eh]
	 SCS Correlation Energy    =      -1.4990168225121523 [Eh]
	 SCS Total Energy          =    -326.7068711850632212 [Eh]
	-----------------------------------------------------------

  Dipole Moment: [D]
     X:     7.1670      Y:    -3.3537      Z:     0.0506     Total:     7.9130

*** Psi4 exiting successfully. Buy a developer a beer!
