                               Psi4 1.3.2 release

  ==> Input File <==

--------------------------------------------------------------------------
#psi4
#
memory 32 gb

molecule  {
1 1
  N        2.4325060    -0.9845600     0.0091070
  C        1.1463630    -0.2321410    -0.0173850
  C       -1.2536230    -0.2748500     0.0109180
  C       -0.0352110    -0.9646830     0.0005950
  C        1.1983270     1.1549650    -0.0097610
  C       -1.2241940     1.1288950     0.0124220
  C       -0.0217590     1.8354230    -0.0002870
  C       -2.5623340    -1.0168010    -0.0065280
  H       -0.0261220    -2.0543070     0.0007630
  H        2.1405510     1.6994190    -0.0171620
  H       -2.1632860     1.6774730     0.0209780
  H       -0.0275340     2.9214870    -0.0002680
  H        3.2278229    -0.4460605    -0.3616972
  H        2.7260810    -1.2141090     0.9696670
  H        2.3592330    -1.8699500    -0.5112020
  H       -2.4267910    -2.0731080     0.2370320
  H       -3.2605850    -0.5864750     0.7158300
  H       -3.0261010    -0.9534780    -0.9957790
units angstrom
no_reorient  #important for SAPT in psi4, default
symmetry c1  #important for SAPT in psi4, default
}

set PROPERTIES_ORIGIN ["COM"]
properties('MP2/aug-cc-pvtz', properties = ['dipole'])
--------------------------------------------------------------------------

    Molecular point group: c1
  Charge       = 1
  Multiplicity = 1
  Basis Set: AUG-CC-PVTZ
    Blend: AUG-CC-PVTZ
  Basis Set: (AUG-CC-PVTZ AUX)
    Blend: AUG-CC-PVTZ-JKFIT

    Orbital Energies [Eh]
    ---------------------

    Doubly Occupied:

       1A    -15.892848     2A    -11.464086     3A    -11.404171
       4A    -11.402561     5A    -11.399606     6A    -11.391465
       7A    -11.381917     8A    -11.348626     9A     -1.506736
      10A     -1.312620    11A     -1.201201    12A     -1.174910
      13A     -1.082772    14A     -1.001503    15A     -0.986975
      16A     -0.948365    17A     -0.925877    18A     -0.871470
      19A     -0.827675    20A     -0.792177    21A     -0.753193
      22A     -0.729066    23A     -0.707030    24A     -0.677940
      25A     -0.651525    26A     -0.651015    27A     -0.643546
      28A     -0.500608    29A     -0.483995

  @DF-RHF Final Energy:  -325.24105746364540

   => Energetics <=

    Nuclear Repulsion Energy =            353.2280011569112617
    One-Electron Energy =               -1128.7071551007425114
    Two-Electron Energy =                 450.2380964801859022
    Total Energy =                       -325.2410574636454044
  Basis Set: (AUG-CC-PVTZ AUX)
    Blend: AUG-CC-PVTZ-RI
    Molecular point group: c1

    Geometry (in Angstrom), charge = 1, multiplicity = 1:

       Center              X                  Y                   Z               Mass
    ------------   -----------------  -----------------  -----------------  -----------------
         N            2.427390148566    -1.011031135125     0.008497913154    14.003074004430
         C            1.141247148566    -0.258612135125    -0.017994086846    12.000000000000
         C           -1.258738851434    -0.301321135125     0.010308913154    12.000000000000
         C           -0.040326851434    -0.991154135125    -0.000014086846    12.000000000000
         C            1.193211148566     1.128493864875    -0.010370086846    12.000000000000
         C           -1.229309851434     1.102423864875     0.011812913154    12.000000000000
         C           -0.026874851434     1.808951864875    -0.000896086846    12.000000000000
         C           -2.567449851434    -1.043272135125    -0.007137086846    12.000000000000
         H           -0.031237851434    -2.080778135125     0.000153913154     1.007825032230
         H            2.135435148566     1.672947864875    -0.017771086846     1.007825032230
         H           -2.168401851434     1.651001864875     0.020368913154     1.007825032230
         H           -0.032649851434     2.895015864875    -0.000877086846     1.007825032230
         H            3.222707048566    -0.472531635125    -0.362306286846     1.007825032230
         H            2.720965148566    -1.240580135125     0.969057913154     1.007825032230
         H            2.354117148566    -1.896421135125    -0.511811086846     1.007825032230
         H           -2.431906851434    -2.099579135125     0.236422913154     1.007825032230
         H           -3.265700851434    -0.612946135125     0.715220913154     1.007825032230
         H           -3.031216851434    -0.979949135125    -0.996388086846     1.007825032230

  Basis Set: AUG-CC-PVTZ
    Blend: AUG-CC-PVTZ
  Basis Set: (AUG-CC-PVTZ AUX)
    Blend: AUG-CC-PVTZ-JKFIT
	 Reference Energy          =    -325.2410574636454044 [Eh]
	 Singles Energy            =      -0.0000000000000000 [Eh]
	 Same-Spin Energy          =      -0.3530767760465910 [Eh]
	 Opposite-Spin Energy      =      -1.1489178999817979 [Eh]
	 Correlation Energy        =      -1.5019946760283889 [Eh]
	 Total Energy              =    -326.7430521396738072 [Eh]

	 ================> DF-SCS-MP2 Energies <==================
	-----------------------------------------------------------
	 SCS Same-Spin Scale       =       0.3333333333333333 [-]
	 SCS Opposite-Spin Scale   =       1.2000000000000000 [-]
	 SCS Same-Spin Energy      =      -0.1176922586821970 [Eh]
	 SCS Opposite-Spin Energy  =      -1.3787014799781574 [Eh]
	 SCS Correlation Energy    =      -1.4963937386603543 [Eh]
	 SCS Total Energy          =    -326.7374512023057491 [Eh]
	-----------------------------------------------------------

  Dipole Moment: [D]
     X:     7.3257      Y:    -3.2050      Z:     0.1022     Total:     7.9968

*** Psi4 exiting successfully. Buy a developer a beer!
