                               Psi4 1.3.2 release

  ==> Input File <==

--------------------------------------------------------------------------
#psi4
#
memory 32 gb

molecule  {
1 1
  N        2.4818358    -0.8929926     0.0106799
  C        1.1463630    -0.2321410    -0.0173850
  C       -1.2536230    -0.2748500     0.0109180
  C       -0.0352110    -0.9646830     0.0005950
  C        1.1983270     1.1549650    -0.0097610
  C       -1.2241940     1.1288950     0.0124220
  C       -0.0217590     1.8354230    -0.0002870
  C       -2.5623340    -1.0168010    -0.0065280
  H       -0.0261220    -2.0543070     0.0007630
  H        2.1405510     1.6994190    -0.0171620
  H       -2.1632860     1.6774730     0.0209780
  H       -0.0275340     2.9214870    -0.0002680
  H        3.1916030    -0.4398890    -0.4234570
  H        2.7260810    -1.2141090     0.9696670
  H        2.3592330    -1.8699500    -0.5112020
  H       -2.4267910    -2.0731080     0.2370320
  H       -3.2605850    -0.5864750     0.7158300
  H       -3.0261010    -0.9534780    -0.9957790
units angstrom
no_reorient  #important for SAPT in psi4, default
symmetry c1  #important for SAPT in psi4, default
}

set PROPERTIES_ORIGIN ["COM"]
properties('MP2/aug-cc-pvtz', properties = ['dipole'])
--------------------------------------------------------------------------

    Molecular point group: c1
  Charge       = 1
  Multiplicity = 1
  Basis Set: AUG-CC-PVTZ
    Blend: AUG-CC-PVTZ
  Basis Set: (AUG-CC-PVTZ AUX)
    Blend: AUG-CC-PVTZ-JKFIT

    Orbital Energies [Eh]
    ---------------------

    Doubly Occupied:

       1A    -15.892643     2A    -11.464329     3A    -11.404656
       4A    -11.402072     5A    -11.400671     6A    -11.390773
       7A    -11.381945     8A    -11.349236     9A     -1.507909
      10A     -1.312888    11A     -1.201218    12A     -1.175592
      13A     -1.083099    14A     -1.002624    15A     -0.998711
      16A     -0.954141    17A     -0.904823    18A     -0.873145
      19A     -0.828405    20A     -0.790645    21A     -0.751960
      22A     -0.728952    23A     -0.707477    24A     -0.677082
      25A     -0.652911    26A     -0.650957    27A     -0.643389
      28A     -0.500722    29A     -0.484091

  @DF-RHF Final Energy:  -325.22666335792263

   => Energetics <=

    Nuclear Repulsion Energy =            353.2576288464845788
    One-Electron Energy =               -1128.7344498964068862
    Two-Electron Energy =                 450.2501576919997319
    Total Energy =                       -325.2266633579226323
  Basis Set: (AUG-CC-PVTZ AUX)
    Blend: AUG-CC-PVTZ-RI
    Molecular point group: c1

    Geometry (in Angstrom), charge = 1, multiplicity = 1:

       Center              X                  Y                   Z               Mass
    ------------   -----------------  -----------------  -----------------  -----------------
         N            2.470666492780    -0.931384803624     0.010442918489    14.003074004430
         C            1.135193692780    -0.270533203624    -0.017621981511    12.000000000000
         C           -1.264792307220    -0.313242203624     0.010681018489    12.000000000000
         C           -0.046380307220    -1.003075203624     0.000358018489    12.000000000000
         C            1.187157692780     1.116572796376    -0.009997981511    12.000000000000
         C           -1.235363307220     1.090502796376     0.012185018489    12.000000000000
         C           -0.032928307220     1.797030796376    -0.000523981511    12.000000000000
         C           -2.573503307220    -1.055193203624    -0.006764981511    12.000000000000
         H           -0.037291307220    -2.092699203624     0.000526018489     1.007825032230
         H            2.129381692780     1.661026796376    -0.017398981511     1.007825032230
         H           -2.174455307220     1.639080796376     0.020741018489     1.007825032230
         H           -0.038703307220     2.883094796376    -0.000504981511     1.007825032230
         H            3.180433692780    -0.478281203624    -0.423693981511     1.007825032230
         H            2.714911692780    -1.252501203624     0.969430018489     1.007825032230
         H            2.348063692780    -1.908342203624    -0.511438981511     1.007825032230
         H           -2.437960307220    -2.111500203624     0.236795018489     1.007825032230
         H           -3.271754307220    -0.624867203624     0.715593018489     1.007825032230
         H           -3.037270307220    -0.991870203624    -0.996015981511     1.007825032230

  Basis Set: AUG-CC-PVTZ
    Blend: AUG-CC-PVTZ
  Basis Set: (AUG-CC-PVTZ AUX)
    Blend: AUG-CC-PVTZ-JKFIT
	 Reference Energy          =    -325.2266633579226323 [Eh]
	 Singles Energy            =      -0.0000000000000000 [Eh]
	 Same-Spin Energy          =      -0.3534029948023278 [Eh]
	 Opposite-Spin Energy      =      -1.1497915684697197 [Eh]
	 Correlation Energy        =      -1.5031945632720476 [Eh]
	 Total Energy              =    -326.7298579211947072 [Eh]

	 ================> DF-SCS-MP2 Energies <==================
	-----------------------------------------------------------
	 SCS Same-Spin Scale       =       0.3333333333333333 [-]
	 SCS Opposite-Spin Scale   =       1.2000000000000000 [-]
	 SCS Same-Spin Energy      =      -0.1178009982674426 [Eh]
	 SCS Opposite-Spin Energy  =      -1.3797498821636636 [Eh]
	 SCS Correlation Energy    =      -1.4975508804311062 [Eh]
	 SCS Total Energy          =    -326.7242142383537384 [Eh]
	-----------------------------------------------------------

  Dipole Moment: [D]
     X:     7.2114      Y:    -3.3055      Z:     0.0452     Total:     7.9330

*** Psi4 exiting successfully. Buy a developer a beer!
