                               Psi4 1.3.2 release

  ==> Input File <==

--------------------------------------------------------------------------
#psi4
#
memory 32 gb

molecule  {
1 1
  N        2.4325060    -0.9845600     0.0091070
  C        1.1463630    -0.2321410    -0.0173850
  C       -1.2410177    -0.2974434     0.0064310
  C       -0.0352110    -0.9646830     0.0005950
  C        1.1983270     1.1549650    -0.0097610
  C       -1.2241940     1.1288950     0.0124220
  C       -0.0217590     1.8354230    -0.0002870
  C       -2.5623340    -1.0168010    -0.0065280
  H       -0.0261220    -2.0543070     0.0007630
  H        2.1405510     1.6994190    -0.0171620
  H       -2.1632860     1.6774730     0.0209780
  H       -0.0275340     2.9214870    -0.0002680
  H        3.1916030    -0.4398890    -0.4234570
  H        2.7260810    -1.2141090     0.9696670
  H        2.3592330    -1.8699500    -0.5112020
  H       -2.4267910    -2.0731080     0.2370320
  H       -3.2605850    -0.5864750     0.7158300
  H       -3.0261010    -0.9534780    -0.9957790
units angstrom
no_reorient  #important for SAPT in psi4, default
symmetry c1  #important for SAPT in psi4, default
}

set PROPERTIES_ORIGIN ["COM"]
properties('MP2/aug-cc-pvtz', properties = ['dipole'])
--------------------------------------------------------------------------

    Molecular point group: c1
  Charge       = 1
  Multiplicity = 1
  Basis Set: AUG-CC-PVTZ
    Blend: AUG-CC-PVTZ
  Basis Set: (AUG-CC-PVTZ AUX)
    Blend: AUG-CC-PVTZ-JKFIT

    Orbital Energies [Eh]
    ---------------------

    Doubly Occupied:

       1A    -15.892752     2A    -11.463417     3A    -11.405334
       4A    -11.400203     5A    -11.398872     6A    -11.390671
       7A    -11.384864     8A    -11.348718     9A     -1.506615
      10A     -1.312812    11A     -1.202055    12A     -1.173629
      13A     -1.082906    14A     -1.000739    15A     -0.985650
      16A     -0.953529    17A     -0.924547    18A     -0.871225
      19A     -0.827493    20A     -0.791926    21A     -0.752648
      22A     -0.729253    23A     -0.707228    24A     -0.678141
      25A     -0.656696    26A     -0.651535    27A     -0.637984
      28A     -0.500385    29A     -0.484620

  @DF-RHF Final Energy:  -325.24092639172613

   => Energetics <=

    Nuclear Repulsion Energy =            353.3141205491673418
    One-Electron Energy =               -1128.8771969991971673
    Two-Electron Energy =                 450.3221500583036914
    Total Energy =                       -325.2409263917261342
  Basis Set: (AUG-CC-PVTZ AUX)
    Blend: AUG-CC-PVTZ-RI
    Molecular point group: c1

    Geometry (in Angstrom), charge = 1, multiplicity = 1:

       Center              X                  Y                   Z               Mass
    ------------   -----------------  -----------------  -----------------  -----------------
         N            2.426328352934    -1.008580193582     0.009571984675    14.003074004430
         C            1.140185352934    -0.256161193582    -0.016920015325    12.000000000000
         C           -1.247195347066    -0.321463593582     0.006895984675    12.000000000000
         C           -0.041388647066    -0.988703193582     0.001059984675    12.000000000000
         C            1.192149352934     1.130944806418    -0.009296015325    12.000000000000
         C           -1.230371647066     1.104874806418     0.012886984675    12.000000000000
         C           -0.027936647066     1.811402806418     0.000177984675    12.000000000000
         C           -2.568511647066    -1.040821193582    -0.006063015325    12.000000000000
         H           -0.032299647066    -2.078327193582     0.001227984675     1.007825032230
         H            2.134373352934     1.675398806418    -0.016697015325     1.007825032230
         H           -2.169463647066     1.653452806418     0.021442984675     1.007825032230
         H           -0.033711647066     2.897466806418     0.000196984675     1.007825032230
         H            3.185425352934    -0.463909193582    -0.422992015325     1.007825032230
         H            2.719903352934    -1.238129193582     0.970131984675     1.007825032230
         H            2.353055352934    -1.893970193582    -0.510737015325     1.007825032230
         H           -2.432968647066    -2.097128193582     0.237496984675     1.007825032230
         H           -3.266762647066    -0.610495193582     0.716294984675     1.007825032230
         H           -3.032278647066    -0.977498193582    -0.995314015325     1.007825032230

  Basis Set: AUG-CC-PVTZ
    Blend: AUG-CC-PVTZ
  Basis Set: (AUG-CC-PVTZ AUX)
    Blend: AUG-CC-PVTZ-JKFIT
	 Reference Energy          =    -325.2409263917261342 [Eh]
	 Singles Energy            =      -0.0000000000000000 [Eh]
	 Same-Spin Energy          =      -0.3529862046632586 [Eh]
	 Opposite-Spin Energy      =      -1.1489441504940516 [Eh]
	 Correlation Energy        =      -1.5019303551573102 [Eh]
	 Total Energy              =    -326.7428567468834331 [Eh]

	 ================> DF-SCS-MP2 Energies <==================
	-----------------------------------------------------------
	 SCS Same-Spin Scale       =       0.3333333333333333 [-]
	 SCS Opposite-Spin Scale   =       1.2000000000000000 [-]
	 SCS Same-Spin Energy      =      -0.1176620682210862 [Eh]
	 SCS Opposite-Spin Energy  =      -1.3787329805928619 [Eh]
	 SCS Correlation Energy    =      -1.4963950488139481 [Eh]
	 SCS Total Energy          =    -326.7373214405400859 [Eh]
	-----------------------------------------------------------

  Dipole Moment: [D]
     X:     7.2771      Y:    -3.1821      Z:     0.0438     Total:     7.9426

*** Psi4 exiting successfully. Buy a developer a beer!
