                               Psi4 1.3.2 release

  ==> Input File <==

--------------------------------------------------------------------------
#psi4
#
memory 32 gb

molecule  {
1 1
  N        2.4325060    -0.9845600     0.0091070
  C        1.1463630    -0.2321410    -0.0173850
  C       -1.2536230    -0.2748500     0.0109180
  C       -0.0233561    -0.9433181     0.0010348
  C        1.1983270     1.1549650    -0.0097610
  C       -1.2241940     1.1288950     0.0124220
  C       -0.0217590     1.8354230    -0.0002870
  C       -2.5623340    -1.0168010    -0.0065280
  H       -0.0261220    -2.0543070     0.0007630
  H        2.1405510     1.6994190    -0.0171620
  H       -2.1632860     1.6774730     0.0209780
  H       -0.0275340     2.9214870    -0.0002680
  H        3.1916030    -0.4398890    -0.4234570
  H        2.7260810    -1.2141090     0.9696670
  H        2.3592330    -1.8699500    -0.5112020
  H       -2.4267910    -2.0731080     0.2370320
  H       -3.2605850    -0.5864750     0.7158300
  H       -3.0261010    -0.9534780    -0.9957790
units angstrom
no_reorient  #important for SAPT in psi4, default
symmetry c1  #important for SAPT in psi4, default
}

set PROPERTIES_ORIGIN ["COM"]
properties('MP2/aug-cc-pvtz', properties = ['dipole'])
--------------------------------------------------------------------------

    Molecular point group: c1
  Charge       = 1
  Multiplicity = 1
  Basis Set: AUG-CC-PVTZ
    Blend: AUG-CC-PVTZ
  Basis Set: (AUG-CC-PVTZ AUX)
    Blend: AUG-CC-PVTZ-JKFIT

    Orbital Energies [Eh]
    ---------------------

    Doubly Occupied:

       1A    -15.893107     2A    -11.461735     3A    -11.403588
       4A    -11.402067     5A    -11.399452     6A    -11.391227
       7A    -11.381629     8A    -11.349346     9A     -1.507220
      10A     -1.314639    11A     -1.200716    12A     -1.176633
      13A     -1.083526    14A     -1.000297    15A     -0.985573
      16A     -0.953976    17A     -0.925246    18A     -0.872571
      19A     -0.825021    20A     -0.793364    21A     -0.750578
      22A     -0.727971    23A     -0.707797    24A     -0.676945
      25A     -0.653463    26A     -0.653147    27A     -0.642133
      28A     -0.502662    29A     -0.483242

  @DF-RHF Final Energy:  -325.24112536185697

   => Energetics <=

    Nuclear Repulsion Energy =            353.6240130429486612
    One-Electron Energy =               -1129.4925344890095857
    Two-Electron Energy =                 450.6273960842038946
    Total Energy =                       -325.2411253618569731
  Basis Set: (AUG-CC-PVTZ AUX)
    Blend: AUG-CC-PVTZ-RI
    Molecular point group: c1

    Geometry (in Angstrom), charge = 1, multiplicity = 1:

       Center              X                  Y                   Z               Mass
    ------------   -----------------  -----------------  -----------------  -----------------
         N            2.426411667975    -1.013460774046     0.009024974354    14.003074004430
         C            1.140268667975    -0.261041774046    -0.017467025646    12.000000000000
         C           -1.259717332025    -0.303750774046     0.010835974354    12.000000000000
         C           -0.029450432025    -0.972218874046     0.000952774354    12.000000000000
         C            1.192232667975     1.126064225954    -0.009843025646    12.000000000000
         C           -1.230288332025     1.099994225954     0.012339974354    12.000000000000
         C           -0.027853332025     1.806522225954    -0.000369025646    12.000000000000
         C           -2.568428332025    -1.045701774046    -0.006610025646    12.000000000000
         H           -0.032216332025    -2.083207774046     0.000680974354     1.007825032230
         H            2.134456667975     1.670518225954    -0.017244025646     1.007825032230
         H           -2.169380332025     1.648572225954     0.020895974354     1.007825032230
         H           -0.033628332025     2.892586225954    -0.000350025646     1.007825032230
         H            3.185508667975    -0.468789774046    -0.423539025646     1.007825032230
         H            2.719986667975    -1.243009774046     0.969584974354     1.007825032230
         H            2.353138667975    -1.898850774046    -0.511284025646     1.007825032230
         H           -2.432885332025    -2.102008774046     0.236949974354     1.007825032230
         H           -3.266679332025    -0.615375774046     0.715747974354     1.007825032230
         H           -3.032195332025    -0.982378774046    -0.995861025646     1.007825032230

  Basis Set: AUG-CC-PVTZ
    Blend: AUG-CC-PVTZ
  Basis Set: (AUG-CC-PVTZ AUX)
    Blend: AUG-CC-PVTZ-JKFIT
	 Reference Energy          =    -325.2411253618569731 [Eh]
	 Singles Energy            =      -0.0000000000000000 [Eh]
	 Same-Spin Energy          =      -0.3531267960687852 [Eh]
	 Opposite-Spin Energy      =      -1.1488543783433192 [Eh]
	 Correlation Energy        =      -1.5019811744121043 [Eh]
	 Total Energy              =    -326.7431065362690674 [Eh]

	 ================> DF-SCS-MP2 Energies <==================
	-----------------------------------------------------------
	 SCS Same-Spin Scale       =       0.3333333333333333 [-]
	 SCS Opposite-Spin Scale   =       1.2000000000000000 [-]
	 SCS Same-Spin Energy      =      -0.1177089320229284 [Eh]
	 SCS Opposite-Spin Energy  =      -1.3786252540119830 [Eh]
	 SCS Correlation Energy    =      -1.4963341860349113 [Eh]
	 SCS Total Energy          =    -326.7374595478918877 [Eh]
	-----------------------------------------------------------

  Dipole Moment: [D]
     X:     7.2681      Y:    -3.2224      Z:     0.0400     Total:     7.9505

*** Psi4 exiting successfully. Buy a developer a beer!
