                               Psi4 1.4a3.dev225

  ==> Input File <==

--------------------------------------------------------------------------
#psi4
#
memory 32 gb

molecule  {
1 1
  N       -2.4283840    -0.9794160    -0.0083510
  C       -1.1098333    -0.2084459     0.0179405
  C        1.2518020    -0.2721820    -0.0143110
  C        0.0325720    -0.9600410    -0.0018850
  C       -1.1926600     1.1553070     0.0124660
  C        1.2305980     1.1300670    -0.0135530
  C        0.0267990     1.8353860     0.0007220
  C        2.5554400    -1.0247750     0.0087590
  H        0.0173310    -2.0482160    -0.0066590
  H       -2.1350750     1.6966590     0.0194740
  H        2.1710470     1.6766600    -0.0258320
  H        0.0318520     2.9216190    -0.0004860
  H       -3.1892600    -0.4557660     0.4440390
  H       -2.7337660    -1.1857680    -0.9692710
  H       -2.3540760    -1.8789800     0.4839570
  H        2.4304730    -2.0404690    -0.3743800
  H        3.3081630    -0.5154690    -0.5984160
  H        2.9426300    -1.0948430     1.0303570
units angstrom
no_reorient  #important for SAPT in psi4, default
symmetry c1  #important for SAPT in psi4, default
}

set PROPERTIES_ORIGIN ["COM"]
properties('MP2/aug-cc-pvtz', properties = ['dipole'])
--------------------------------------------------------------------------

    Molecular point group: c1
  Charge       = 1
  Multiplicity = 1
  Basis Set: AUG-CC-PVTZ
    Blend: AUG-CC-PVTZ
  Basis Set: (AUG-CC-PVTZ AUX)
    Blend: AUG-CC-PVTZ-JKFIT

    Orbital Energies [Eh]
    ---------------------

    Doubly Occupied:

       1A    -15.887366     2A    -11.464245     3A    -11.401615
       4A    -11.400953     5A    -11.399680     6A    -11.392838
       7A    -11.381572     8A    -11.349140     9A     -1.497052
      10A     -1.319272    11A     -1.204484    12A     -1.177654
      13A     -1.085183    14A     -0.999347    15A     -0.980004
      16A     -0.946919    17A     -0.923280    18A     -0.870939
      19A     -0.822842    20A     -0.798029    21A     -0.754312
      22A     -0.732788    23A     -0.708878    24A     -0.679012
      25A     -0.656500    26A     -0.651461    27A     -0.644756
      28A     -0.503522    29A     -0.485953

  @DF-RHF Final Energy:  -325.24075184562173

   => Energetics <=

    Nuclear Repulsion Energy =            353.9447466106897195
    One-Electron Energy =               -1130.1318039108937228
    Two-Electron Energy =                 450.9463054545823297
    Total Energy =                       -325.2407518456217304
  Basis Set: (AUG-CC-PVTZ AUX)
    Blend: AUG-CC-PVTZ-RI
    Molecular point group: c1

    Geometry (in Angstrom), charge = 1, multiplicity = 1:

       Center              X                  Y                   Z               Mass
    ------------   -----------------  -----------------  -----------------  -----------------
         N           -2.428614562254    -1.009037219141    -0.008420642985    14.003074004430
         C           -1.110063862254    -0.238067119141     0.017870857015    12.000000000000
         C            1.251571437746    -0.301803219141    -0.014380642985    12.000000000000
         C            0.032341437746    -0.989662219141    -0.001954642985    12.000000000000
         C           -1.192890562254     1.125685780859     0.012396357015    12.000000000000
         C            1.230367437746     1.100445780859    -0.013622642985    12.000000000000
         C            0.026568437746     1.805764780859     0.000652357015    12.000000000000
         C            2.555209437746    -1.054396219141     0.008689357015    12.000000000000
         H            0.017100437746    -2.077837219141    -0.006728642985     1.007825032230
         H           -2.135305562254     1.667037780859     0.019404357015     1.007825032230
         H            2.170816437746     1.647038780859    -0.025901642985     1.007825032230
         H            0.031621437746     2.891997780859    -0.000555642985     1.007825032230
         H           -3.189490562254    -0.485387219141     0.443969357015     1.007825032230
         H           -2.733996562254    -1.215389219141    -0.969340642985     1.007825032230
         H           -2.354306562254    -1.908601219141     0.483887357015     1.007825032230
         H            2.430242437746    -2.070090219141    -0.374449642985     1.007825032230
         H            3.307932437746    -0.545090219141    -0.598485642985     1.007825032230
         H            2.942399437746    -1.124464219141     1.030287357015     1.007825032230

  Basis Set: AUG-CC-PVTZ
    Blend: AUG-CC-PVTZ
  Basis Set: (AUG-CC-PVTZ AUX)
    Blend: AUG-CC-PVTZ-JKFIT
	 Reference Energy          =    -325.2407518456217304 [Eh]
	 Singles Energy            =      -0.0000000000000000 [Eh]
	 Same-Spin Energy          =      -0.3529031814548013 [Eh]
	 Opposite-Spin Energy      =      -1.1484521531442247 [Eh]
	 Correlation Energy        =      -1.5013553345990260 [Eh]
	 Total Energy              =    -326.7421071802207280 [Eh]

	 ================> DF-SCS-MP2 Energies <==================
	-----------------------------------------------------------
	 SCS Same-Spin Scale       =       0.3333333333333333 [-]
	 SCS Opposite-Spin Scale   =       1.2000000000000000 [-]
	 SCS Same-Spin Energy      =      -0.1176343938182671 [Eh]
	 SCS Opposite-Spin Energy  =      -1.3781425837730696 [Eh]
	 SCS Correlation Energy    =      -1.4957769775913368 [Eh]
	 SCS Total Energy          =    -326.7365288232130638 [Eh]
	-----------------------------------------------------------

  Dipole Moment: [D]
     X:    -7.2232      Y:    -3.1669      Z:    -0.0345     Total:     7.8870

*** Psi4 exiting successfully. Buy a developer a beer!
