                               Psi4 1.3.2 release

  ==> Input File <==

--------------------------------------------------------------------------
#psi4
#
memory 32 gb

molecule  {
1 1
  N        2.4325060    -0.9845600     0.0091070
  C        1.1463630    -0.2321410    -0.0173850
  C       -1.1841008    -0.4135574    -0.0160361
  C       -0.0352110    -0.9646830     0.0005950
  C        1.1983270     1.1549650    -0.0097610
  C       -1.2241940     1.1288950     0.0124220
  C       -0.0217590     1.8354230    -0.0002870
  C       -2.5623340    -1.0168010    -0.0065280
  H       -0.0261220    -2.0543070     0.0007630
  H        2.1405510     1.6994190    -0.0171620
  H       -2.1632860     1.6774730     0.0209780
  H       -0.0275340     2.9214870    -0.0002680
  H        3.1916030    -0.4398890    -0.4234570
  H        2.7260810    -1.2141090     0.9696670
  H        2.3592330    -1.8699500    -0.5112020
  H       -2.4267910    -2.0731080     0.2370320
  H       -3.2605850    -0.5864750     0.7158300
  H       -3.0261010    -0.9534780    -0.9957790
units angstrom
no_reorient  #important for SAPT in psi4, default
symmetry c1  #important for SAPT in psi4, default
}

set PROPERTIES_ORIGIN ["COM"]
properties('MP2/aug-cc-pvtz', properties = ['dipole'])
--------------------------------------------------------------------------

    Molecular point group: c1
  Charge       = 1
  Multiplicity = 1
  Basis Set: AUG-CC-PVTZ
    Blend: AUG-CC-PVTZ
  Basis Set: (AUG-CC-PVTZ AUX)
    Blend: AUG-CC-PVTZ-JKFIT

    Orbital Energies [Eh]
    ---------------------

    Doubly Occupied:

       1A    -15.892597     2A    -11.461681     3A    -11.411014
       4A    -11.396694     5A    -11.396021     6A    -11.385548
       7A    -11.384984     8A    -11.349890     9A     -1.506069
      10A     -1.316200    11A     -1.211274    12A     -1.166242
      13A     -1.084131    14A     -1.006723    15A     -0.982696
      16A     -0.953075    17A     -0.917123    18A     -0.875387
      19A     -0.827684    20A     -0.790392    21A     -0.751518
      22A     -0.729425    23A     -0.709130    24A     -0.679295
      25A     -0.677292    26A     -0.652837    27A     -0.605309
      28A     -0.511393    29A     -0.479089

  @DF-RHF Final Energy:  -325.21294372082417

   => Energetics <=

    Nuclear Repulsion Energy =            353.5016513065232289
    One-Electron Energy =               -1129.2077601895916814
    Two-Electron Energy =                 450.4931651622443383
    Total Energy =                       -325.2129437208241711
  Basis Set: (AUG-CC-PVTZ AUX)
    Blend: AUG-CC-PVTZ-RI
    Molecular point group: c1

    Geometry (in Angstrom), charge = 1, multiplicity = 1:

       Center              X                  Y                   Z               Mass
    ------------   -----------------  -----------------  -----------------  -----------------
         N            2.420009011417    -0.995688345627     0.012066450779    14.003074004430
         C            1.133866011417    -0.243269345627    -0.014425549221    12.000000000000
         C           -1.196597788583    -0.424685745627    -0.013076649221    12.000000000000
         C           -0.047707988583    -0.975811345627     0.003554450779    12.000000000000
         C            1.185830011417     1.143836654373    -0.006801549221    12.000000000000
         C           -1.236690988583     1.117766654373     0.015381450779    12.000000000000
         C           -0.034255988583     1.824294654373     0.002672450779    12.000000000000
         C           -2.574830988583    -1.027929345627    -0.003568549221    12.000000000000
         H           -0.038618988583    -2.065435345627     0.003722450779     1.007825032230
         H            2.128054011417     1.688290654373    -0.014202549221     1.007825032230
         H           -2.175782988583     1.666344654373     0.023937450779     1.007825032230
         H           -0.040030988583     2.910358654373     0.002691450779     1.007825032230
         H            3.179106011417    -0.451017345627    -0.420497549221     1.007825032230
         H            2.713584011417    -1.225237345627     0.972626450779     1.007825032230
         H            2.346736011417    -1.881078345627    -0.508242549221     1.007825032230
         H           -2.439287988583    -2.084236345627     0.239991450779     1.007825032230
         H           -3.273081988583    -0.597603345627     0.718789450779     1.007825032230
         H           -3.038597988583    -0.964606345627    -0.992819549221     1.007825032230

  Basis Set: AUG-CC-PVTZ
    Blend: AUG-CC-PVTZ
  Basis Set: (AUG-CC-PVTZ AUX)
    Blend: AUG-CC-PVTZ-JKFIT
	 Reference Energy          =    -325.2129437208241711 [Eh]
	 Singles Energy            =      -0.0000000000000000 [Eh]
	 Same-Spin Energy          =      -0.3520983390805090 [Eh]
	 Opposite-Spin Energy      =      -1.1498404047694730 [Eh]
	 Correlation Energy        =      -1.5019387438499820 [Eh]
	 Total Energy              =    -326.7148824646741332 [Eh]

	 ================> DF-SCS-MP2 Energies <==================
	-----------------------------------------------------------
	 SCS Same-Spin Scale       =       0.3333333333333333 [-]
	 SCS Opposite-Spin Scale   =       1.2000000000000000 [-]
	 SCS Same-Spin Energy      =      -0.1173661130268363 [Eh]
	 SCS Opposite-Spin Energy  =      -1.3798084857233677 [Eh]
	 SCS Correlation Energy    =      -1.4971745987502041 [Eh]
	 SCS Total Energy          =    -326.7101183195743488 [Eh]
	-----------------------------------------------------------

  Dipole Moment: [D]
     X:     7.2535      Y:    -3.0854      Z:     0.0588     Total:     7.8827

*** Psi4 exiting successfully. Buy a developer a beer!
