                               Psi4 1.3.2 release

  ==> Input File <==

--------------------------------------------------------------------------
#psi4
#
memory 32 gb

molecule  {
1 1
  N        2.4325060    -0.9845600     0.0091070
  C        1.1463630    -0.2321410    -0.0173850
  C       -1.3079906    -0.1868042     0.0287994
  C       -0.0352110    -0.9646830     0.0005950
  C        1.1983270     1.1549650    -0.0097610
  C       -1.2241940     1.1288950     0.0124220
  C       -0.0217590     1.8354230    -0.0002870
  C       -2.5623340    -1.0168010    -0.0065280
  H       -0.0261220    -2.0543070     0.0007630
  H        2.1405510     1.6994190    -0.0171620
  H       -2.1632860     1.6774730     0.0209780
  H       -0.0275340     2.9214870    -0.0002680
  H        3.1916030    -0.4398890    -0.4234570
  H        2.7260810    -1.2141090     0.9696670
  H        2.3592330    -1.8699500    -0.5112020
  H       -2.4267910    -2.0731080     0.2370320
  H       -3.2605850    -0.5864750     0.7158300
  H       -3.0261010    -0.9534780    -0.9957790
units angstrom
no_reorient  #important for SAPT in psi4, default
symmetry c1  #important for SAPT in psi4, default
}

set PROPERTIES_ORIGIN ["COM"]
properties('MP2/aug-cc-pvtz', properties = ['dipole'])
--------------------------------------------------------------------------

    Molecular point group: c1
  Charge       = 1
  Multiplicity = 1
  Basis Set: AUG-CC-PVTZ
    Blend: AUG-CC-PVTZ
  Basis Set: (AUG-CC-PVTZ AUX)
    Blend: AUG-CC-PVTZ-JKFIT

    Orbital Energies [Eh]
    ---------------------

    Doubly Occupied:

       1A    -15.892520     2A    -11.464430     3A    -11.411621
       4A    -11.401010     5A    -11.399118     6A    -11.395205
       7A    -11.369581     8A    -11.348984     9A     -1.506732
      10A     -1.312427    11A     -1.203651    12A     -1.173709
      13A     -1.083632    14A     -1.009692    15A     -0.974855
      16A     -0.953586    17A     -0.929813    18A     -0.868063
      19A     -0.825513    20A     -0.790946    21A     -0.756728
      22A     -0.728622    23A     -0.707507    24A     -0.677024
      25A     -0.663280    26A     -0.650468    27A     -0.626748
      28A     -0.510023    29A     -0.477924

  @DF-RHF Final Energy:  -325.22854252154093

   => Energetics <=

    Nuclear Repulsion Energy =            353.1681774173108010
    One-Electron Energy =               -1128.5666159748770951
    Two-Electron Energy =                 450.1698960360254205
    Total Energy =                       -325.2285425215409305
  Basis Set: (AUG-CC-PVTZ AUX)
    Blend: AUG-CC-PVTZ-RI
    Molecular point group: c1

    Geometry (in Angstrom), charge = 1, multiplicity = 1:

       Center              X                  Y                   Z               Mass
    ------------   -----------------  -----------------  -----------------  -----------------
         N            2.433764187062    -1.020864188141     0.007088476986    14.003074004430
         C            1.147621187062    -0.268445188141    -0.019403523014    12.000000000000
         C           -1.306732412938    -0.223108388141     0.026780876986    12.000000000000
         C           -0.033952812938    -1.000987188141    -0.001423523014    12.000000000000
         C            1.199585187062     1.118660811859    -0.011779523014    12.000000000000
         C           -1.222935812938     1.092590811859     0.010403476986    12.000000000000
         C           -0.020500812938     1.799118811859    -0.002305523014    12.000000000000
         C           -2.561075812938    -1.053105188141    -0.008546523014    12.000000000000
         H           -0.024863812938    -2.090611188141    -0.001255523014     1.007825032230
         H            2.141809187062     1.663114811859    -0.019180523014     1.007825032230
         H           -2.162027812938     1.641168811859     0.018959476986     1.007825032230
         H           -0.026275812938     2.885182811859    -0.002286523014     1.007825032230
         H            3.192861187062    -0.476193188141    -0.425475523014     1.007825032230
         H            2.727339187062    -1.250413188141     0.967648476986     1.007825032230
         H            2.360491187062    -1.906254188141    -0.513220523014     1.007825032230
         H           -2.425532812938    -2.109412188141     0.235013476986     1.007825032230
         H           -3.259326812938    -0.622779188141     0.713811476986     1.007825032230
         H           -3.024842812938    -0.989782188141    -0.997797523014     1.007825032230

  Basis Set: AUG-CC-PVTZ
    Blend: AUG-CC-PVTZ
  Basis Set: (AUG-CC-PVTZ AUX)
    Blend: AUG-CC-PVTZ-JKFIT
	 Reference Energy          =    -325.2285425215409305 [Eh]
	 Singles Energy            =      -0.0000000000000000 [Eh]
	 Same-Spin Energy          =      -0.3529738061953676 [Eh]
	 Opposite-Spin Energy      =      -1.1495397559914791 [Eh]
	 Correlation Energy        =      -1.5025135621868466 [Eh]
	 Total Energy              =    -326.7310560837277649 [Eh]

	 ================> DF-SCS-MP2 Energies <==================
	-----------------------------------------------------------
	 SCS Same-Spin Scale       =       0.3333333333333333 [-]
	 SCS Opposite-Spin Scale   =       1.2000000000000000 [-]
	 SCS Same-Spin Energy      =      -0.1176579353984559 [Eh]
	 SCS Opposite-Spin Energy  =      -1.3794477071897748 [Eh]
	 SCS Correlation Energy    =      -1.4971056425882308 [Eh]
	 SCS Total Energy          =    -326.7256481641291543 [Eh]
	-----------------------------------------------------------

  Dipole Moment: [D]
     X:     7.3161      Y:    -3.2856      Z:     0.0290     Total:     8.0201

*** Psi4 exiting successfully. Buy a developer a beer!
