                               Psi4 1.3.2 release

  ==> Input File <==

--------------------------------------------------------------------------
#psi4
#
memory 32 gb

molecule  {
1 1
  N        2.4325060    -0.9845600     0.0091070
  C        1.1463630    -0.2321410    -0.0173850
  C       -1.2536230    -0.2748500     0.0109180
  C       -0.0474370    -0.9858377     0.0001583
  C        1.1983270     1.1549650    -0.0097610
  C       -1.2241940     1.1288950     0.0124220
  C       -0.0217590     1.8354230    -0.0002870
  C       -2.5623340    -1.0168010    -0.0065280
  H       -0.0261220    -2.0543070     0.0007630
  H        2.1405510     1.6994190    -0.0171620
  H       -2.1632860     1.6774730     0.0209780
  H       -0.0275340     2.9214870    -0.0002680
  H        3.1916030    -0.4398890    -0.4234570
  H        2.7260810    -1.2141090     0.9696670
  H        2.3592330    -1.8699500    -0.5112020
  H       -2.4267910    -2.0731080     0.2370320
  H       -3.2605850    -0.5864750     0.7158300
  H       -3.0261010    -0.9534780    -0.9957790
units angstrom
no_reorient  #important for SAPT in psi4, default
symmetry c1  #important for SAPT in psi4, default
}

set PROPERTIES_ORIGIN ["COM"]
properties('MP2/aug-cc-pvtz', properties = ['dipole'])
--------------------------------------------------------------------------

    Molecular point group: c1
  Charge       = 1
  Multiplicity = 1
  Basis Set: AUG-CC-PVTZ
    Blend: AUG-CC-PVTZ
  Basis Set: (AUG-CC-PVTZ AUX)
    Blend: AUG-CC-PVTZ-JKFIT

    Orbital Energies [Eh]
    ---------------------

    Doubly Occupied:

       1A    -15.892394     2A    -11.465592     3A    -11.405067
       4A    -11.402853     5A    -11.399827     6A    -11.392043
       7A    -11.382464     8A    -11.347990     9A     -1.506155
      10A     -1.310535    11A     -1.201904    12A     -1.172375
      13A     -1.082251    14A     -1.003290    15A     -0.982820
      16A     -0.953193    17A     -0.926437    18A     -0.868617
      19A     -0.829918    20A     -0.790211    21A     -0.756004
      22A     -0.730094    23A     -0.706484    24A     -0.679160
      25A     -0.649951    26A     -0.649339    27A     -0.644073
      28A     -0.498925    29A     -0.485019

  @DF-RHF Final Energy:  -325.24057411125034

   => Energetics <=

    Nuclear Repulsion Energy =            352.9462245594109504
    One-Electron Energy =               -1128.1436287682754482
    Two-Electron Energy =                 449.9568300976142154
    Total Energy =                       -325.2405741112503392
  Basis Set: (AUG-CC-PVTZ AUX)
    Blend: AUG-CC-PVTZ-RI
    Molecular point group: c1

    Geometry (in Angstrom), charge = 1, multiplicity = 1:

       Center              X                  Y                   Z               Mass
    ------------   -----------------  -----------------  -----------------  -----------------
         N            2.429085310270    -1.008739928856     0.009122289964    14.003074004430
         C            1.142942310270    -0.256320928856    -0.017369710036    12.000000000000
         C           -1.257043689730    -0.299029928856     0.010933289964    12.000000000000
         C           -0.050857689730    -1.010017628856     0.000173589964    12.000000000000
         C            1.194906310270     1.130785071144    -0.009745710036    12.000000000000
         C           -1.227614689730     1.104715071144     0.012437289964    12.000000000000
         C           -0.025179689730     1.811243071144    -0.000271710036    12.000000000000
         C           -2.565754689730    -1.040980928856    -0.006512710036    12.000000000000
         H           -0.029542689730    -2.078486928856     0.000778289964     1.007825032230
         H            2.137130310270     1.675239071144    -0.017146710036     1.007825032230
         H           -2.166706689730     1.653293071144     0.020993289964     1.007825032230
         H           -0.030954689730     2.897307071144    -0.000252710036     1.007825032230
         H            3.188182310270    -0.464068928856    -0.423441710036     1.007825032230
         H            2.722660310270    -1.238288928856     0.969682289964     1.007825032230
         H            2.355812310270    -1.894129928856    -0.511186710036     1.007825032230
         H           -2.430211689730    -2.097287928856     0.237047289964     1.007825032230
         H           -3.264005689730    -0.610654928856     0.715845289964     1.007825032230
         H           -3.029521689730    -0.977657928856    -0.995763710036     1.007825032230

  Basis Set: AUG-CC-PVTZ
    Blend: AUG-CC-PVTZ
  Basis Set: (AUG-CC-PVTZ AUX)
    Blend: AUG-CC-PVTZ-JKFIT
	 Reference Energy          =    -325.2405741112503392 [Eh]
	 Singles Energy            =      -0.0000000000000000 [Eh]
	 Same-Spin Energy          =      -0.3530296715390107 [Eh]
	 Opposite-Spin Energy      =      -1.1491176970275443 [Eh]
	 Correlation Energy        =      -1.5021473685665550 [Eh]
	 Total Energy              =    -326.7427214798169075 [Eh]

	 ================> DF-SCS-MP2 Energies <==================
	-----------------------------------------------------------
	 SCS Same-Spin Scale       =       0.3333333333333333 [-]
	 SCS Opposite-Spin Scale   =       1.2000000000000000 [-]
	 SCS Same-Spin Energy      =      -0.1176765571796702 [Eh]
	 SCS Opposite-Spin Energy  =      -1.3789412364330531 [Eh]
	 SCS Correlation Energy    =      -1.4966177936127234 [Eh]
	 SCS Total Energy          =    -326.7371919048630389 [Eh]
	-----------------------------------------------------------

  Dipole Moment: [D]
     X:     7.3001      Y:    -3.1820      Z:     0.0416     Total:     7.9635

*** Psi4 exiting successfully. Buy a developer a beer!
