                               Psi4 1.3.2 release

  ==> Input File <==

--------------------------------------------------------------------------
#psi4
#
memory 32 gb

molecule  {
1 1
  N        2.4325060    -0.9845600     0.0091070
  C        1.1463630    -0.2321410    -0.0173850
  C       -1.2288148    -0.3202559     0.0019400
  C       -0.0352110    -0.9646830     0.0005950
  C        1.1983270     1.1549650    -0.0097610
  C       -1.2241940     1.1288950     0.0124220
  C       -0.0217590     1.8354230    -0.0002870
  C       -2.5623340    -1.0168010    -0.0065280
  H       -0.0261220    -2.0543070     0.0007630
  H        2.1405510     1.6994190    -0.0171620
  H       -2.1632860     1.6774730     0.0209780
  H       -0.0275340     2.9214870    -0.0002680
  H        3.1916030    -0.4398890    -0.4234570
  H        2.7260810    -1.2141090     0.9696670
  H        2.3592330    -1.8699500    -0.5112020
  H       -2.4267910    -2.0731080     0.2370320
  H       -3.2605850    -0.5864750     0.7158300
  H       -3.0261010    -0.9534780    -0.9957790
units angstrom
no_reorient  #important for SAPT in psi4, default
symmetry c1  #important for SAPT in psi4, default
}

set PROPERTIES_ORIGIN ["COM"]
properties('MP2/aug-cc-pvtz', properties = ['dipole'])
--------------------------------------------------------------------------

    Molecular point group: c1
  Charge       = 1
  Multiplicity = 1
  Basis Set: AUG-CC-PVTZ
    Blend: AUG-CC-PVTZ
  Basis Set: (AUG-CC-PVTZ AUX)
    Blend: AUG-CC-PVTZ-JKFIT

    Orbital Energies [Eh]
    ---------------------

    Doubly Occupied:

       1A    -15.892744     2A    -11.463110     3A    -11.406405
       4A    -11.399293     5A    -11.396545     6A    -11.389787
       7A    -11.387451     8A    -11.348830     9A     -1.506531
      10A     -1.313248    11A     -1.203320    12A     -1.172461
      13A     -1.082994    14A     -1.000573    15A     -0.986326
      16A     -0.953461    17A     -0.923198    18A     -0.872004
      19A     -0.827666    20A     -0.791803    21A     -0.752136
      22A     -0.729332    23A     -0.707431    24A     -0.678188
      25A     -0.661744    26A     -0.651769    27A     -0.632047
      28A     -0.501157    29A     -0.484320

  @DF-RHF Final Energy:  -325.23857255858223

   => Energetics <=

    Nuclear Repulsion Energy =            353.3489063855706149
    One-Electron Energy =               -1128.9432084774014129
    Two-Electron Energy =                 450.3557295332485069
    Total Energy =                       -325.2385725585822343
  Basis Set: (AUG-CC-PVTZ AUX)
    Blend: AUG-CC-PVTZ-RI
    Molecular point group: c1

    Geometry (in Angstrom), charge = 1, multiplicity = 1:

       Center              X                  Y                   Z               Mass
    ------------   -----------------  -----------------  -----------------  -----------------
         N            2.424973495368    -1.006047378577     0.010070609210    14.003074004430
         C            1.138830495368    -0.253628378577    -0.016421390790    12.000000000000
         C           -1.236347304632    -0.341743278577     0.002903609210    12.000000000000
         C           -0.042743504632    -0.986170378577     0.001558609210    12.000000000000
         C            1.190794495368     1.133477621423    -0.008797390790    12.000000000000
         C           -1.231726504632     1.107407621423     0.013385609210    12.000000000000
         C           -0.029291504632     1.813935621423     0.000676609210    12.000000000000
         C           -2.569866504632    -1.038288378577    -0.005564390790    12.000000000000
         H           -0.033654504632    -2.075794378577     0.001726609210     1.007825032230
         H            2.133018495368     1.677931621423    -0.016198390790     1.007825032230
         H           -2.170818504632     1.655985621423     0.021941609210     1.007825032230
         H           -0.035066504632     2.899999621423     0.000695609210     1.007825032230
         H            3.184070495368    -0.461376378577    -0.422493390790     1.007825032230
         H            2.718548495368    -1.235596378577     0.970630609210     1.007825032230
         H            2.351700495368    -1.891437378577    -0.510238390790     1.007825032230
         H           -2.434323504632    -2.094595378577     0.237995609210     1.007825032230
         H           -3.268117504632    -0.607962378577     0.716793609210     1.007825032230
         H           -3.033633504632    -0.974965378577    -0.994815390790     1.007825032230

  Basis Set: AUG-CC-PVTZ
    Blend: AUG-CC-PVTZ
  Basis Set: (AUG-CC-PVTZ AUX)
    Blend: AUG-CC-PVTZ-JKFIT
	 Reference Energy          =    -325.2385725585822343 [Eh]
	 Singles Energy            =      -0.0000000000000000 [Eh]
	 Same-Spin Energy          =      -0.3528602667955575 [Eh]
	 Opposite-Spin Energy      =      -1.1490077845560087 [Eh]
	 Correlation Energy        =      -1.5018680513515663 [Eh]
	 Total Energy              =    -326.7404406099337848 [Eh]

	 ================> DF-SCS-MP2 Energies <==================
	-----------------------------------------------------------
	 SCS Same-Spin Scale       =       0.3333333333333333 [-]
	 SCS Opposite-Spin Scale   =       1.2000000000000000 [-]
	 SCS Same-Spin Energy      =      -0.1176200889318525 [Eh]
	 SCS Opposite-Spin Energy  =      -1.3788093414672105 [Eh]
	 SCS Correlation Energy    =      -1.4964294303990631 [Eh]
	 SCS Total Energy          =    -326.7350019889813098 [Eh]
	-----------------------------------------------------------

  Dipole Moment: [D]
     X:     7.2706      Y:    -3.1618      Z:     0.0469     Total:     7.9285

*** Psi4 exiting successfully. Buy a developer a beer!
