                               Psi4 1.3.2 release

  ==> Input File <==

--------------------------------------------------------------------------
#psi4
#
memory 32 gb

molecule  {
1 1
  N        2.4325060    -0.9845600     0.0091070
  C        1.1463630    -0.2321410    -0.0173850
  C       -1.2536230    -0.2748500     0.0109180
  C       -0.1140000    -1.0882362    -0.0019732
  C        1.1983270     1.1549650    -0.0097610
  C       -1.2241940     1.1288950     0.0124220
  C       -0.0217590     1.8354230    -0.0002870
  C       -2.5623340    -1.0168010    -0.0065280
  H       -0.0261220    -2.0543070     0.0007630
  H        2.1405510     1.6994190    -0.0171620
  H       -2.1632860     1.6774730     0.0209780
  H       -0.0275340     2.9214870    -0.0002680
  H        3.1916030    -0.4398890    -0.4234570
  H        2.7260810    -1.2141090     0.9696670
  H        2.3592330    -1.8699500    -0.5112020
  H       -2.4267910    -2.0731080     0.2370320
  H       -3.2605850    -0.5864750     0.7158300
  H       -3.0261010    -0.9534780    -0.9957790
units angstrom
no_reorient  #important for SAPT in psi4, default
symmetry c1  #important for SAPT in psi4, default
}

set PROPERTIES_ORIGIN ["COM"]
properties('MP2/aug-cc-pvtz', properties = ['dipole'])
--------------------------------------------------------------------------

    Molecular point group: c1
  Charge       = 1
  Multiplicity = 1
  Basis Set: AUG-CC-PVTZ
    Blend: AUG-CC-PVTZ
  Basis Set: (AUG-CC-PVTZ AUX)
    Blend: AUG-CC-PVTZ-JKFIT

    Orbital Energies [Eh]
    ---------------------

    Doubly Occupied:

       1A    -15.890632     2A    -11.473449     3A    -11.408768
       4A    -11.405532     5A    -11.402127     6A    -11.394428
       7A    -11.384919     8A    -11.345035     9A     -1.503544
      10A     -1.303118    11A     -1.205975    12A     -1.163666
      13A     -1.079171    14A     -1.012044    15A     -0.976742
      16A     -0.951234    17A     -0.930627    18A     -0.864041
      19A     -0.846644    20A     -0.783235    21A     -0.761855
      22A     -0.732774    23A     -0.704224    24A     -0.684907
      25A     -0.652006    26A     -0.642121    27A     -0.630169
      28A     -0.491676    29A     -0.488803

  @DF-RHF Final Energy:  -325.21155710289867

   => Energetics <=

    Nuclear Repulsion Energy =            351.3939003870173110
    One-Electron Energy =               -1124.9839872867964914
    Two-Electron Energy =                 448.3785297968805139
    Total Energy =                       -325.2115571028986665
  Basis Set: (AUG-CC-PVTZ AUX)
    Blend: AUG-CC-PVTZ-RI
    Molecular point group: c1

    Geometry (in Angstrom), charge = 1, multiplicity = 1:

       Center              X                  Y                   Z               Mass
    ------------   -----------------  -----------------  -----------------  -----------------
         N            2.436475634223    -0.997370878675     0.009358945095    14.003074004430
         C            1.150332634223    -0.244951878675    -0.017133054905    12.000000000000
         C           -1.249653365777    -0.287660878675     0.011169945095    12.000000000000
         C           -0.110030365777    -1.101047078675    -0.001721254905    12.000000000000
         C            1.202296634223     1.142154121325    -0.009509054905    12.000000000000
         C           -1.220224365777     1.116084121325     0.012673945095    12.000000000000
         C           -0.017789365777     1.822612121325    -0.000035054905    12.000000000000
         C           -2.558364365777    -1.029611878675    -0.006276054905    12.000000000000
         H           -0.022152365777    -2.067117878675     0.001014945095     1.007825032230
         H            2.144520634223     1.686608121325    -0.016910054905     1.007825032230
         H           -2.159316365777     1.664662121325     0.021229945095     1.007825032230
         H           -0.023564365777     2.908676121325    -0.000016054905     1.007825032230
         H            3.195572634223    -0.452699878675    -0.423205054905     1.007825032230
         H            2.730050634223    -1.226919878675     0.969918945095     1.007825032230
         H            2.363202634223    -1.882760878675    -0.510950054905     1.007825032230
         H           -2.422821365777    -2.085918878675     0.237283945095     1.007825032230
         H           -3.256615365777    -0.599285878675     0.716081945095     1.007825032230
         H           -3.022131365777    -0.966288878675    -0.995527054905     1.007825032230

  Basis Set: AUG-CC-PVTZ
    Blend: AUG-CC-PVTZ
  Basis Set: (AUG-CC-PVTZ AUX)
    Blend: AUG-CC-PVTZ-JKFIT
	 Reference Energy          =    -325.2115571028986665 [Eh]
	 Singles Energy            =      -0.0000000000000000 [Eh]
	 Same-Spin Energy          =      -0.3530531028337076 [Eh]
	 Opposite-Spin Energy      =      -1.1512702373544597 [Eh]
	 Correlation Energy        =      -1.5043233401881673 [Eh]
	 Total Energy              =    -326.7158804430868599 [Eh]

	 ================> DF-SCS-MP2 Energies <==================
	-----------------------------------------------------------
	 SCS Same-Spin Scale       =       0.3333333333333333 [-]
	 SCS Opposite-Spin Scale   =       1.2000000000000000 [-]
	 SCS Same-Spin Energy      =      -0.1176843676112359 [Eh]
	 SCS Opposite-Spin Energy  =      -1.3815242848253515 [Eh]
	 SCS Correlation Energy    =      -1.4992086524365873 [Eh]
	 SCS Total Energy          =    -326.7107657553352738 [Eh]
	-----------------------------------------------------------

  Dipole Moment: [D]
     X:     7.3646      Y:    -3.0697      Z:     0.0463     Total:     7.9789

*** Psi4 exiting successfully. Buy a developer a beer!
