                               Psi4 1.3.2 release

  ==> Input File <==

--------------------------------------------------------------------------
#psi4
#
memory 32 gb

molecule  {
1 1
  N        2.4325060    -0.9845600     0.0091070
  C        1.1463630    -0.2321410    -0.0173850
  C       -1.2536230    -0.2748500     0.0109180
  C       -0.0352110    -0.9646830     0.0005950
  C        1.1983270     1.1549650    -0.0097610
  C       -1.2241940     1.1288950     0.0124220
  C       -0.0217590     1.8354230    -0.0002870
  C       -2.5623340    -1.0168010    -0.0065280
  H       -0.0261220    -2.0543070     0.0007630
  H        2.1405510     1.6994190    -0.0171620
  H       -2.1632860     1.6774730     0.0209780
  H       -0.0275340     2.9214870    -0.0002680
  H        3.1178732    -0.4927920    -0.3814428
  H        2.7260810    -1.2141090     0.9696670
  H        2.3592330    -1.8699500    -0.5112020
  H       -2.4267910    -2.0731080     0.2370320
  H       -3.2605850    -0.5864750     0.7158300
  H       -3.0261010    -0.9534780    -0.9957790
units angstrom
no_reorient  #important for SAPT in psi4, default
symmetry c1  #important for SAPT in psi4, default
}

set PROPERTIES_ORIGIN ["COM"]
properties('MP2/aug-cc-pvtz', properties = ['dipole'])
--------------------------------------------------------------------------

    Molecular point group: c1
  Charge       = 1
  Multiplicity = 1
  Basis Set: AUG-CC-PVTZ
    Blend: AUG-CC-PVTZ
  Basis Set: (AUG-CC-PVTZ AUX)
    Blend: AUG-CC-PVTZ-JKFIT

    Orbital Energies [Eh]
    ---------------------

    Doubly Occupied:

       1A    -15.886053     2A    -11.464608     3A    -11.405159
       4A    -11.403121     5A    -11.400125     6A    -11.392179
       7A    -11.382716     8A    -11.349065     9A     -1.525071
      10A     -1.314577    11A     -1.202155    12A     -1.177460
      13A     -1.083922    14A     -1.004035    15A     -0.999941
      16A     -0.962210    17A     -0.935471    18A     -0.873200
      19A     -0.828448    20A     -0.793857    21A     -0.753994
      22A     -0.729707    23A     -0.707632    24A     -0.678632
      25A     -0.652214    26A     -0.651913    27A     -0.644151
      28A     -0.501589    29A     -0.484734

  @DF-RHF Final Energy:  -325.23600124431954

   => Energetics <=

    Nuclear Repulsion Energy =            353.8373883563057802
    One-Electron Energy =               -1129.7708972767109117
    Two-Electron Energy =                 450.6975076760855359
    Total Energy =                       -325.2360012443195387
  Basis Set: (AUG-CC-PVTZ AUX)
    Blend: AUG-CC-PVTZ-RI
    Molecular point group: c1

    Geometry (in Angstrom), charge = 1, multiplicity = 1:

       Center              X                  Y                   Z               Mass
    ------------   -----------------  -----------------  -----------------  -----------------
         N            2.428415395626    -1.010595378293     0.008682034787    14.003074004430
         C            1.142272395626    -0.258176378293    -0.017809965213    12.000000000000
         C           -1.257713604374    -0.300885378293     0.010493034787    12.000000000000
         C           -0.039301604374    -0.990718378293     0.000170034787    12.000000000000
         C            1.194236395626     1.128929621707    -0.010185965213    12.000000000000
         C           -1.228284604374     1.102859621707     0.011997034787    12.000000000000
         C           -0.025849604374     1.809387621707    -0.000711965213    12.000000000000
         C           -2.566424604374    -1.042836378293    -0.006952965213    12.000000000000
         H           -0.030212604374    -2.080342378293     0.000338034787     1.007825032230
         H            2.136460395626     1.673383621707    -0.017586965213     1.007825032230
         H           -2.167376604374     1.651437621707     0.020553034787     1.007825032230
         H           -0.031624604374     2.895451621707    -0.000692965213     1.007825032230
         H            3.113782595626    -0.518827378293    -0.381867765213     1.007825032230
         H            2.721990395626    -1.240144378293     0.969242034787     1.007825032230
         H            2.355142395626    -1.895985378293    -0.511626965213     1.007825032230
         H           -2.430881604374    -2.099143378293     0.236607034787     1.007825032230
         H           -3.264675604374    -0.612510378293     0.715405034787     1.007825032230
         H           -3.030191604374    -0.979513378293    -0.996203965213     1.007825032230

  Basis Set: AUG-CC-PVTZ
    Blend: AUG-CC-PVTZ
  Basis Set: (AUG-CC-PVTZ AUX)
    Blend: AUG-CC-PVTZ-JKFIT
	 Reference Energy          =    -325.2360012443195387 [Eh]
	 Singles Energy            =      -0.0000000000000000 [Eh]
	 Same-Spin Energy          =      -0.3525064034336697 [Eh]
	 Opposite-Spin Energy      =      -1.1473341021847796 [Eh]
	 Correlation Energy        =      -1.4998405056184492 [Eh]
	 Total Energy              =    -326.7358417499380039 [Eh]

	 ================> DF-SCS-MP2 Energies <==================
	-----------------------------------------------------------
	 SCS Same-Spin Scale       =       0.3333333333333333 [-]
	 SCS Opposite-Spin Scale   =       1.2000000000000000 [-]
	 SCS Same-Spin Energy      =      -0.1175021344778899 [Eh]
	 SCS Opposite-Spin Energy  =      -1.3768009226217355 [Eh]
	 SCS Correlation Energy    =      -1.4943030570996254 [Eh]
	 SCS Total Energy          =    -326.7303043014191530 [Eh]
	-----------------------------------------------------------

  Dipole Moment: [D]
     X:     7.1695      Y:    -3.2595      Z:     0.1007     Total:     7.8763

*** Psi4 exiting successfully. Buy a developer a beer!
