                               Psi4 1.3.2 release

  ==> Input File <==

--------------------------------------------------------------------------
#psi4
#
memory 32 gb

molecule  {
1 1
  N        2.4325060    -0.9845600     0.0091070
  C        1.1463630    -0.2321410    -0.0173850
  C       -1.2536230    -0.2748500     0.0109180
  C       -0.0352110    -0.9646830     0.0005950
  C        1.1983270     1.1549650    -0.0097610
  C       -1.2241940     1.1288950     0.0124220
  C       -0.0217590     1.8354230    -0.0002870
  C       -2.7363069    -1.1154319    -0.0088472
  H       -0.0261220    -2.0543070     0.0007630
  H        2.1405510     1.6994190    -0.0171620
  H       -2.1632860     1.6774730     0.0209780
  H       -0.0275340     2.9214870    -0.0002680
  H        3.1916030    -0.4398890    -0.4234570
  H        2.7260810    -1.2141090     0.9696670
  H        2.3592330    -1.8699500    -0.5112020
  H       -2.4267910    -2.0731080     0.2370320
  H       -3.2605850    -0.5864750     0.7158300
  H       -3.0261010    -0.9534780    -0.9957790
units angstrom
no_reorient  #important for SAPT in psi4, default
symmetry c1  #important for SAPT in psi4, default
}

set PROPERTIES_ORIGIN ["COM"]
properties('MP2/aug-cc-pvtz', properties = ['dipole'])
--------------------------------------------------------------------------

    Molecular point group: c1
  Charge       = 1
  Multiplicity = 1
  Basis Set: AUG-CC-PVTZ
    Blend: AUG-CC-PVTZ
  Basis Set: (AUG-CC-PVTZ AUX)
    Blend: AUG-CC-PVTZ-JKFIT

    Orbital Energies [Eh]
    ---------------------

    Doubly Occupied:

       1A    -15.891720     2A    -11.462341     3A    -11.403248
       4A    -11.402201     5A    -11.401006     6A    -11.390325
       7A    -11.381095     8A    -11.352103     9A     -1.505652
      10A     -1.307635    11A     -1.186247    12A     -1.172148
      13A     -1.082879    14A     -0.999603    15A     -0.986818
      16A     -0.952610    17A     -0.924327    18A     -0.868322
      19A     -0.824610    20A     -0.788015    21A     -0.751101
      22A     -0.724877    23A     -0.716368    24A     -0.704406
      25A     -0.659758    26A     -0.657565    27A     -0.592938
      28A     -0.499466    29A     -0.486896

  @DF-RHF Final Energy:  -325.21492831205148

   => Energetics <=

    Nuclear Repulsion Energy =            350.2387220937968664
    One-Electron Energy =               -1122.7547388560399213
    Two-Electron Energy =                 447.3010884501915143
    Total Energy =                       -325.2149283120514838
  Basis Set: (AUG-CC-PVTZ AUX)
    Blend: AUG-CC-PVTZ-RI
    Molecular point group: c1

    Geometry (in Angstrom), charge = 1, multiplicity = 1:

       Center              X                  Y                   Z               Mass
    ------------   -----------------  -----------------  -----------------  -----------------
         N            2.447043665352    -1.000137939514     0.009331299246    14.003074004430
         C            1.160900665352    -0.247718939514    -0.017160700754    12.000000000000
         C           -1.239085334648    -0.290427939514     0.011142299246    12.000000000000
         C           -0.020673334648    -0.980260939514     0.000819299246    12.000000000000
         C            1.212864665352     1.139387060486    -0.009536700754    12.000000000000
         C           -1.209656334648     1.113317060486     0.012646299246    12.000000000000
         C           -0.007221334648     1.819845060486    -0.000062700754    12.000000000000
         C           -2.721769234648    -1.131009839514    -0.008622900754    12.000000000000
         H           -0.011584334648    -2.069884939514     0.000987299246     1.007825032230
         H            2.155088665352     1.683841060486    -0.016937700754     1.007825032230
         H           -2.148748334648     1.661895060486     0.021202299246     1.007825032230
         H           -0.012996334648     2.905909060486    -0.000043700754     1.007825032230
         H            3.206140665352    -0.455466939514    -0.423232700754     1.007825032230
         H            2.740618665352    -1.229686939514     0.969891299246     1.007825032230
         H            2.373770665352    -1.885527939514    -0.510977700754     1.007825032230
         H           -2.412253334648    -2.088685939514     0.237256299246     1.007825032230
         H           -3.246047334648    -0.602052939514     0.716054299246     1.007825032230
         H           -3.011563334648    -0.969055939514    -0.995554700754     1.007825032230

  Basis Set: AUG-CC-PVTZ
    Blend: AUG-CC-PVTZ
  Basis Set: (AUG-CC-PVTZ AUX)
    Blend: AUG-CC-PVTZ-JKFIT
	 Reference Energy          =    -325.2149283120514838 [Eh]
	 Singles Energy            =      -0.0000000000000000 [Eh]
	 Same-Spin Energy          =      -0.3525944370054116 [Eh]
	 Opposite-Spin Energy      =      -1.1496550393878993 [Eh]
	 Correlation Energy        =      -1.5022494763933110 [Eh]
	 Total Energy              =    -326.7171777884448147 [Eh]

	 ================> DF-SCS-MP2 Energies <==================
	-----------------------------------------------------------
	 SCS Same-Spin Scale       =       0.3333333333333333 [-]
	 SCS Opposite-Spin Scale   =       1.2000000000000000 [-]
	 SCS Same-Spin Energy      =      -0.1175314790018039 [Eh]
	 SCS Opposite-Spin Energy  =      -1.3795860472654791 [Eh]
	 SCS Correlation Energy    =      -1.4971175262672829 [Eh]
	 SCS Total Energy          =    -326.7120458383187724 [Eh]
	-----------------------------------------------------------

  Dipole Moment: [D]
     X:     7.3845      Y:    -3.1554      Z:     0.0492     Total:     8.0305

*** Psi4 exiting successfully. Buy a developer a beer!
