                               Psi4 1.3.2 release

  ==> Input File <==

--------------------------------------------------------------------------
#psi4
#
memory 32 gb

molecule  {
1 1
  N        2.4325060    -0.9845600     0.0091070
  C        1.1476434    -0.2313161    -0.0433507
  C       -1.2536230    -0.2748500     0.0109180
  C       -0.0352110    -0.9646830     0.0005950
  C        1.1983270     1.1549650    -0.0097610
  C       -1.2241940     1.1288950     0.0124220
  C       -0.0217590     1.8354230    -0.0002870
  C       -2.5623340    -1.0168010    -0.0065280
  H       -0.0261220    -2.0543070     0.0007630
  H        2.1405510     1.6994190    -0.0171620
  H       -2.1632860     1.6774730     0.0209780
  H       -0.0275340     2.9214870    -0.0002680
  H        3.1916030    -0.4398890    -0.4234570
  H        2.7260810    -1.2141090     0.9696670
  H        2.3592330    -1.8699500    -0.5112020
  H       -2.4267910    -2.0731080     0.2370320
  H       -3.2605850    -0.5864750     0.7158300
  H       -3.0261010    -0.9534780    -0.9957790
units angstrom
no_reorient  #important for SAPT in psi4, default
symmetry c1  #important for SAPT in psi4, default
}

set PROPERTIES_ORIGIN ["COM"]
properties('MP2/aug-cc-pvtz', properties = ['dipole'])
--------------------------------------------------------------------------

    Molecular point group: c1
  Charge       = 1
  Multiplicity = 1
  Basis Set: AUG-CC-PVTZ
    Blend: AUG-CC-PVTZ
  Basis Set: (AUG-CC-PVTZ AUX)
    Blend: AUG-CC-PVTZ-JKFIT

    Orbital Energies [Eh]
    ---------------------

    Doubly Occupied:

       1A    -15.892652     2A    -11.463685     3A    -11.404487
       4A    -11.402689     5A    -11.399632     6A    -11.391659
       7A    -11.382309     8A    -11.348697     9A     -1.506557
      10A     -1.312396    11A     -1.201393    12A     -1.174247
      13A     -1.082897    14A     -1.001869    15A     -0.984124
      16A     -0.953375    17A     -0.925761    18A     -0.870249
      19A     -0.827325    20A     -0.791745    21A     -0.753293
      22A     -0.729199    23A     -0.707099    24A     -0.678137
      25A     -0.651909    26A     -0.650629    27A     -0.643651
      28A     -0.500706    29A     -0.484269

  @DF-RHF Final Energy:  -325.24128864618115

   => Energetics <=

    Nuclear Repulsion Energy =            353.2528615652565236
    One-Electron Energy =               -1128.7550239654281086
    Two-Electron Energy =                 450.2608737539903814
    Total Energy =                       -325.2412886461811468
  Basis Set: (AUG-CC-PVTZ AUX)
    Blend: AUG-CC-PVTZ-RI
    Molecular point group: c1

    Geometry (in Angstrom), charge = 1, multiplicity = 1:

       Center              X                  Y                   Z               Mass
    ------------   -----------------  -----------------  -----------------  -----------------
         N            2.427585728349    -1.011180269051     0.011956711191    14.003074004430
         C            1.142723128349    -0.257936369051    -0.040500988809    12.000000000000
         C           -1.258543271651    -0.301470269051     0.013767711191    12.000000000000
         C           -0.040131271651    -0.991303269051     0.003444711191    12.000000000000
         C            1.193406728349     1.128344730949    -0.006911288809    12.000000000000
         C           -1.229114271651     1.102274730949     0.015271711191    12.000000000000
         C           -0.026679271651     1.808802730949     0.002562711191    12.000000000000
         C           -2.567254271651    -1.043421269051    -0.003678288809    12.000000000000
         H           -0.031042271651    -2.080927269051     0.003612711191     1.007825032230
         H            2.135630728349     1.672798730949    -0.014312288809     1.007825032230
         H           -2.168206271651     1.650852730949     0.023827711191     1.007825032230
         H           -0.032454271651     2.894866730949     0.002581711191     1.007825032230
         H            3.186682728349    -0.466509269051    -0.420607288809     1.007825032230
         H            2.721160728349    -1.240729269051     0.972516711191     1.007825032230
         H            2.354312728349    -1.896570269051    -0.508352288809     1.007825032230
         H           -2.431711271651    -2.099728269051     0.239881711191     1.007825032230
         H           -3.265505271651    -0.613095269051     0.718679711191     1.007825032230
         H           -3.031021271651    -0.980098269051    -0.992929288809     1.007825032230

  Basis Set: AUG-CC-PVTZ
    Blend: AUG-CC-PVTZ
  Basis Set: (AUG-CC-PVTZ AUX)
    Blend: AUG-CC-PVTZ-JKFIT
	 Reference Energy          =    -325.2412886461811468 [Eh]
	 Singles Energy            =      -0.0000000000000000 [Eh]
	 Same-Spin Energy          =      -0.3530890164289949 [Eh]
	 Opposite-Spin Energy      =      -1.1489959975625226 [Eh]
	 Correlation Energy        =      -1.5020850139915174 [Eh]
	 Total Energy              =    -326.7433736601726650 [Eh]

	 ================> DF-SCS-MP2 Energies <==================
	-----------------------------------------------------------
	 SCS Same-Spin Scale       =       0.3333333333333333 [-]
	 SCS Opposite-Spin Scale   =       1.2000000000000000 [-]
	 SCS Same-Spin Energy      =      -0.1176963388096650 [Eh]
	 SCS Opposite-Spin Energy  =      -1.3787951970750270 [Eh]
	 SCS Correlation Energy    =      -1.4964915358846920 [Eh]
	 SCS Total Energy          =    -326.7377801820658192 [Eh]
	-----------------------------------------------------------

  Dipole Moment: [D]
     X:     7.2743      Y:    -3.1963      Z:     0.0645     Total:     7.9458

*** Psi4 exiting successfully. Buy a developer a beer!
