                               Psi4 1.3.2 release

  ==> Input File <==

--------------------------------------------------------------------------
#psi4
#
memory 32 gb

molecule  {
1 1
  N        2.4325060    -0.9845600     0.0091070
  C        1.1463630    -0.2321410    -0.0173850
  C       -1.2536230    -0.2748500     0.0109180
  C       -0.0352110    -0.9646830     0.0005950
  C        1.1983270     1.1549650    -0.0097610
  C       -1.2241940     1.1288950     0.0124220
  C       -0.0217590     1.8354230    -0.0002870
  C       -2.3883611    -0.9181701    -0.0042088
  H       -0.0261220    -2.0543070     0.0007630
  H        2.1405510     1.6994190    -0.0171620
  H       -2.1632860     1.6774730     0.0209780
  H       -0.0275340     2.9214870    -0.0002680
  H        3.1916030    -0.4398890    -0.4234570
  H        2.7260810    -1.2141090     0.9696670
  H        2.3592330    -1.8699500    -0.5112020
  H       -2.4267910    -2.0731080     0.2370320
  H       -3.2605850    -0.5864750     0.7158300
  H       -3.0261010    -0.9534780    -0.9957790
units angstrom
no_reorient  #important for SAPT in psi4, default
symmetry c1  #important for SAPT in psi4, default
}

set PROPERTIES_ORIGIN ["COM"]
properties('MP2/aug-cc-pvtz', properties = ['dipole'])
--------------------------------------------------------------------------

    Molecular point group: c1
  Charge       = 1
  Multiplicity = 1
  Basis Set: AUG-CC-PVTZ
    Blend: AUG-CC-PVTZ
  Basis Set: (AUG-CC-PVTZ AUX)
    Blend: AUG-CC-PVTZ-JKFIT

    Orbital Energies [Eh]
    ---------------------

    Doubly Occupied:

       1A    -15.892797     2A    -11.463872     3A    -11.403787
       4A    -11.401706     5A    -11.391657     6A    -11.389676
       7A    -11.381756     8A    -11.357574     9A     -1.506732
      10A     -1.322041    11A     -1.227863    12A     -1.175561
      13A     -1.088863    14A     -1.004330    15A     -0.977401
      16A     -0.953608    17A     -0.925849    18A     -0.870872
      19A     -0.830062    20A     -0.797725    21A     -0.764782
      22A     -0.748697    23A     -0.704983    24A     -0.676207
      25A     -0.672264    26A     -0.634216    27A     -0.605538
      28A     -0.501115    29A     -0.472046

  @DF-RHF Final Energy:  -325.18873829483209

   => Energetics <=

    Nuclear Repulsion Energy =            356.8059635320664142
    One-Electron Energy =               -1135.7022487341864689
    Two-Electron Energy =                 453.7075469072879059
    Total Energy =                       -325.1887382948320919
  Basis Set: (AUG-CC-PVTZ AUX)
    Blend: AUG-CC-PVTZ-RI
    Molecular point group: c1

    Geometry (in Angstrom), charge = 1, multiplicity = 1:

       Center              X                  Y                   Z               Mass
    ------------   -----------------  -----------------  -----------------  -----------------
         N            2.408412110585    -1.022039425406     0.008816309257    14.003074004430
         C            1.122269110585    -0.269620425406    -0.017675690743    12.000000000000
         C           -1.277716889415    -0.312329425406     0.010627309257    12.000000000000
         C           -0.059304889415    -1.002162425406     0.000304309257    12.000000000000
         C            1.174233110585     1.117485574594    -0.010051690743    12.000000000000
         C           -1.248287889415     1.091415574594     0.012131309257    12.000000000000
         C           -0.045852889415     1.797943574594    -0.000577690743    12.000000000000
         C           -2.412454989415    -0.955649525406    -0.004499490743    12.000000000000
         H           -0.050215889415    -2.091786425406     0.000472309257     1.007825032230
         H            2.116457110585     1.661939574594    -0.017452690743     1.007825032230
         H           -2.187379889415     1.639993574594     0.020687309257     1.007825032230
         H           -0.051627889415     2.884007574594    -0.000558690743     1.007825032230
         H            3.167509110585    -0.477368425406    -0.423747690743     1.007825032230
         H            2.701987110585    -1.251588425406     0.969376309257     1.007825032230
         H            2.335139110585    -1.907429425406    -0.511492690743     1.007825032230
         H           -2.450884889415    -2.110587425406     0.236741309257     1.007825032230
         H           -3.284678889415    -0.623954425406     0.715539309257     1.007825032230
         H           -3.050194889415    -0.990957425406    -0.996069690743     1.007825032230

  Basis Set: AUG-CC-PVTZ
    Blend: AUG-CC-PVTZ
  Basis Set: (AUG-CC-PVTZ AUX)
    Blend: AUG-CC-PVTZ-JKFIT
	 Reference Energy          =    -325.1887382948320919 [Eh]
	 Singles Energy            =      -0.0000000000000000 [Eh]
	 Same-Spin Energy          =      -0.3567866903821081 [Eh]
	 Opposite-Spin Energy      =      -1.1537403513320563 [Eh]
	 Correlation Energy        =      -1.5105270417141645 [Eh]
	 Total Energy              =    -326.6992653365462616 [Eh]

	 ================> DF-SCS-MP2 Energies <==================
	-----------------------------------------------------------
	 SCS Same-Spin Scale       =       0.3333333333333333 [-]
	 SCS Opposite-Spin Scale   =       1.2000000000000000 [-]
	 SCS Same-Spin Energy      =      -0.1189288967940360 [Eh]
	 SCS Opposite-Spin Energy  =      -1.3844884215984676 [Eh]
	 SCS Correlation Energy    =      -1.5034173183925037 [Eh]
	 SCS Total Energy          =    -326.6921556132245996 [Eh]
	-----------------------------------------------------------

  Dipole Moment: [D]
     X:     7.0287      Y:    -3.3110      Z:     0.0197     Total:     7.7695

*** Psi4 exiting successfully. Buy a developer a beer!
