                               Psi4 1.3.2 release

  ==> Input File <==

--------------------------------------------------------------------------
#psi4
#
memory 32 gb

molecule  {
1 1
  N        2.4325060    -0.9845600     0.0091070
  C        1.3189647    -0.3331164    -0.0138297
  C       -1.2536230    -0.2748500     0.0109180
  C       -0.0352110    -0.9646830     0.0005950
  C        1.1983270     1.1549650    -0.0097610
  C       -1.2241940     1.1288950     0.0124220
  C       -0.0217590     1.8354230    -0.0002870
  C       -2.5623340    -1.0168010    -0.0065280
  H       -0.0261220    -2.0543070     0.0007630
  H        2.1405510     1.6994190    -0.0171620
  H       -2.1632860     1.6774730     0.0209780
  H       -0.0275340     2.9214870    -0.0002680
  H        3.1916030    -0.4398890    -0.4234570
  H        2.7260810    -1.2141090     0.9696670
  H        2.3592330    -1.8699500    -0.5112020
  H       -2.4267910    -2.0731080     0.2370320
  H       -3.2605850    -0.5864750     0.7158300
  H       -3.0261010    -0.9534780    -0.9957790
units angstrom
no_reorient  #important for SAPT in psi4, default
symmetry c1  #important for SAPT in psi4, default
}

set PROPERTIES_ORIGIN ["COM"]
properties('MP2/aug-cc-pvtz', properties = ['dipole'])
--------------------------------------------------------------------------

    Molecular point group: c1
  Charge       = 1
  Multiplicity = 1
  Basis Set: AUG-CC-PVTZ
    Blend: AUG-CC-PVTZ
  Basis Set: (AUG-CC-PVTZ AUX)
    Blend: AUG-CC-PVTZ-JKFIT

    Orbital Energies [Eh]
    ---------------------

    Doubly Occupied:

       1A    -15.907635     2A    -11.460399     3A    -11.416036
       4A    -11.413052     5A    -11.396708     6A    -11.389067
       7A    -11.385998     8A    -11.347455     9A     -1.573504
      10A     -1.291167    11A     -1.190175    12A     -1.166295
      13A     -1.076027    14A     -1.037617    15A     -1.007584
      16A     -0.988487    17A     -0.931421    18A     -0.882349
      19A     -0.833813    20A     -0.770677    21A     -0.750091
      22A     -0.709560    23A     -0.702320    24A     -0.674451
      25A     -0.652966    26A     -0.630227    27A     -0.626879
      28A     -0.489371    29A     -0.476900

  @DF-RHF Final Energy:  -325.18580498202834

   => Energetics <=

    Nuclear Repulsion Energy =            352.1620270244671360
    One-Electron Energy =               -1126.3392026519732099
    Two-Electron Energy =                 448.9913706454777866
    Total Energy =                       -325.1858049820283441
  Basis Set: (AUG-CC-PVTZ AUX)
    Blend: AUG-CC-PVTZ-RI
    Molecular point group: c1

    Geometry (in Angstrom), charge = 1, multiplicity = 1:

       Center              X                  Y                   Z               Mass
    ------------   -----------------  -----------------  -----------------  -----------------
         N            2.408564351503    -0.999877635523     0.008679068155    14.003074004430
         C            1.295023051503    -0.348434035523    -0.014257631845    12.000000000000
         C           -1.277564648497    -0.290167635523     0.010490068155    12.000000000000
         C           -0.059152648497    -0.980000635523     0.000167068155    12.000000000000
         C            1.174385351503     1.139647364477    -0.010188931845    12.000000000000
         C           -1.248135648497     1.113577364476     0.011994068155    12.000000000000
         C           -0.045700648497     1.820105364476    -0.000714931845    12.000000000000
         C           -2.586275648497    -1.032118635523    -0.006955931845    12.000000000000
         H           -0.050063648497    -2.069624635524     0.000335068155     1.007825032230
         H            2.116609351503     1.684101364477    -0.017589931845     1.007825032230
         H           -2.187227648497     1.662155364477     0.020550068155     1.007825032230
         H           -0.051475648497     2.906169364476    -0.000695931845     1.007825032230
         H            3.167661351503    -0.455206635523    -0.423884931845     1.007825032230
         H            2.702139351503    -1.229426635523     0.969239068155     1.007825032230
         H            2.335291351503    -1.885267635523    -0.511629931845     1.007825032230
         H           -2.450732648497    -2.088425635524     0.236604068155     1.007825032230
         H           -3.284526648497    -0.601792635523     0.715402068155     1.007825032230
         H           -3.050042648497    -0.968795635523    -0.996206931845     1.007825032230

  Basis Set: AUG-CC-PVTZ
    Blend: AUG-CC-PVTZ
  Basis Set: (AUG-CC-PVTZ AUX)
    Blend: AUG-CC-PVTZ-JKFIT
	 Reference Energy          =    -325.1858049820283441 [Eh]
	 Singles Energy            =      -0.0000000000000000 [Eh]
	 Same-Spin Energy          =      -0.3558628660899367 [Eh]
	 Opposite-Spin Energy      =      -1.1536214369140718 [Eh]
	 Correlation Energy        =      -1.5094843030040086 [Eh]
	 Total Energy              =    -326.6952892850323451 [Eh]

	 ================> DF-SCS-MP2 Energies <==================
	-----------------------------------------------------------
	 SCS Same-Spin Scale       =       0.3333333333333333 [-]
	 SCS Opposite-Spin Scale   =       1.2000000000000000 [-]
	 SCS Same-Spin Energy      =      -0.1186209553633122 [Eh]
	 SCS Opposite-Spin Energy  =      -1.3843457242968862 [Eh]
	 SCS Correlation Energy    =      -1.5029666796601984 [Eh]
	 SCS Total Energy          =    -326.6887716616885200 [Eh]
	-----------------------------------------------------------

  Dipole Moment: [D]
     X:     7.4861      Y:    -3.3159      Z:     0.0545     Total:     8.1878

*** Psi4 exiting successfully. Buy a developer a beer!
