                               Psi4 1.3.2 release

  ==> Input File <==

--------------------------------------------------------------------------
#psi4
#
memory 32 gb

molecule  {
1 1
  N        2.3769103    -1.0724617     0.0074051
  C        1.1463630    -0.2321410    -0.0173850
  C       -1.2536230    -0.2748500     0.0109180
  C       -0.0352110    -0.9646830     0.0005950
  C        1.1983270     1.1549650    -0.0097610
  C       -1.2241940     1.1288950     0.0124220
  C       -0.0217590     1.8354230    -0.0002870
  C       -2.5623340    -1.0168010    -0.0065280
  H       -0.0261220    -2.0543070     0.0007630
  H        2.1405510     1.6994190    -0.0171620
  H       -2.1632860     1.6774730     0.0209780
  H       -0.0275340     2.9214870    -0.0002680
  H        3.1916030    -0.4398890    -0.4234570
  H        2.7260810    -1.2141090     0.9696670
  H        2.3592330    -1.8699500    -0.5112020
  H       -2.4267910    -2.0731080     0.2370320
  H       -3.2605850    -0.5864750     0.7158300
  H       -3.0261010    -0.9534780    -0.9957790
units angstrom
no_reorient  #important for SAPT in psi4, default
symmetry c1  #important for SAPT in psi4, default
}

set PROPERTIES_ORIGIN ["COM"]
properties('MP2/aug-cc-pvtz', properties = ['dipole'])
--------------------------------------------------------------------------

    Molecular point group: c1
  Charge       = 1
  Multiplicity = 1
  Basis Set: AUG-CC-PVTZ
    Blend: AUG-CC-PVTZ
  Basis Set: (AUG-CC-PVTZ AUX)
    Blend: AUG-CC-PVTZ-JKFIT

    Orbital Energies [Eh]
    ---------------------

    Doubly Occupied:

       1A    -15.892547     2A    -11.464218     3A    -11.406677
       4A    -11.400438     5A    -11.398637     6A    -11.392615
       7A    -11.382171     8A    -11.348196     9A     -1.507703
      10A     -1.312787    11A     -1.201742    12A     -1.174846
      13A     -1.082941    14A     -1.010051    15A     -0.981967
      16A     -0.964564    17A     -0.910649    18A     -0.866338
      19A     -0.826313    20A     -0.789335    21A     -0.754386
      22A     -0.729493    23A     -0.706760    24A     -0.678896
      25A     -0.651571    26A     -0.649567    27A     -0.643740
      28A     -0.500816    29A     -0.484252

  @DF-RHF Final Energy:  -325.22694403283543

   => Energetics <=

    Nuclear Repulsion Energy =            353.3851579655244564
    One-Electron Energy =               -1128.9957725316787673
    Two-Electron Energy =                 450.3836705333188206
    Total Energy =                       -325.2269440328354335
  Basis Set: (AUG-CC-PVTZ AUX)
    Blend: AUG-CC-PVTZ-RI
    Molecular point group: c1

    Geometry (in Angstrom), charge = 1, multiplicity = 1:

       Center              X                  Y                   Z               Mass
    ------------   -----------------  -----------------  -----------------  -----------------
         N            2.379335196502    -1.087601791342     0.007592403323    14.003074004430
         C            1.148787896502    -0.247281091342    -0.017197696677    12.000000000000
         C           -1.251198103498    -0.289990091342     0.011105303323    12.000000000000
         C           -0.032786103498    -0.979823091342     0.000782303323    12.000000000000
         C            1.200751896502     1.139824908658    -0.009573696677    12.000000000000
         C           -1.221769103498     1.113754908658     0.012609303323    12.000000000000
         C           -0.019334103498     1.820282908658    -0.000099696677    12.000000000000
         C           -2.559909103498    -1.031941091342    -0.006340696677    12.000000000000
         H           -0.023697103498    -2.069447091342     0.000950303323     1.007825032230
         H            2.142975896502     1.684278908658    -0.016974696677     1.007825032230
         H           -2.160861103498     1.662332908658     0.021165303323     1.007825032230
         H           -0.025109103498     2.906346908658    -0.000080696677     1.007825032230
         H            3.194027896502    -0.455029091342    -0.423269696677     1.007825032230
         H            2.728505896502    -1.229249091342     0.969854303323     1.007825032230
         H            2.361657896502    -1.885090091342    -0.511014696677     1.007825032230
         H           -2.424366103498    -2.088248091342     0.237219303323     1.007825032230
         H           -3.258160103498    -0.601615091342     0.716017303323     1.007825032230
         H           -3.023676103498    -0.968618091342    -0.995591696677     1.007825032230

  Basis Set: AUG-CC-PVTZ
    Blend: AUG-CC-PVTZ
  Basis Set: (AUG-CC-PVTZ AUX)
    Blend: AUG-CC-PVTZ-JKFIT
	 Reference Energy          =    -325.2269440328354335 [Eh]
	 Singles Energy            =      -0.0000000000000000 [Eh]
	 Same-Spin Energy          =      -0.3534188620573354 [Eh]
	 Opposite-Spin Energy      =      -1.1498842695408480 [Eh]
	 Correlation Energy        =      -1.5033031315981833 [Eh]
	 Total Energy              =    -326.7302471644335924 [Eh]

	 ================> DF-SCS-MP2 Energies <==================
	-----------------------------------------------------------
	 SCS Same-Spin Scale       =       0.3333333333333333 [-]
	 SCS Opposite-Spin Scale   =       1.2000000000000000 [-]
	 SCS Same-Spin Energy      =      -0.1178062873524451 [Eh]
	 SCS Opposite-Spin Energy  =      -1.3798611234490175 [Eh]
	 SCS Correlation Energy    =      -1.4976674108014625 [Eh]
	 SCS Total Energy          =    -326.7246114436368885 [Eh]
	-----------------------------------------------------------

  Dipole Moment: [D]
     X:     7.3380      Y:    -3.0915      Z:     0.0470     Total:     7.9628

*** Psi4 exiting successfully. Buy a developer a beer!
