                               Psi4 1.3.2 release

  ==> Input File <==

--------------------------------------------------------------------------
#psi4
#
memory 32 gb

molecule  {
1 1
  N        2.4325060    -0.9845600     0.0091070
  C        1.1463630    -0.2321410    -0.0173850
  C       -1.2536230    -0.2748500     0.0109180
  C       -0.0352110    -0.9646830     0.0005950
  C        1.1983270     1.1549650    -0.0097610
  C       -1.2241940     1.1288950     0.0124220
  C       -0.0217590     1.8354230    -0.0002870
  C       -2.5623340    -1.0168010    -0.0065280
  H       -0.0261220    -2.0543070     0.0007630
  H        2.1405510     1.6994190    -0.0171620
  H       -2.1632860     1.6774730     0.0209780
  H       -0.0275340     2.9214870    -0.0002680
  H        3.1720945    -0.4377970    -0.4535651
  H        2.7260810    -1.2141090     0.9696670
  H        2.3592330    -1.8699500    -0.5112020
  H       -2.4267910    -2.0731080     0.2370320
  H       -3.2605850    -0.5864750     0.7158300
  H       -3.0261010    -0.9534780    -0.9957790
units angstrom
no_reorient  #important for SAPT in psi4, default
symmetry c1  #important for SAPT in psi4, default
}

set PROPERTIES_ORIGIN ["COM"]
properties('MP2/aug-cc-pvtz', properties = ['dipole'])
--------------------------------------------------------------------------

    Molecular point group: c1
  Charge       = 1
  Multiplicity = 1
  Basis Set: AUG-CC-PVTZ
    Blend: AUG-CC-PVTZ
  Basis Set: (AUG-CC-PVTZ AUX)
    Blend: AUG-CC-PVTZ-JKFIT

    Orbital Energies [Eh]
    ---------------------

    Doubly Occupied:

       1A    -15.892653     2A    -11.463520     3A    -11.404389
       4A    -11.402384     5A    -11.399606     6A    -11.391707
       7A    -11.382091     8A    -11.348679     9A     -1.506719
      10A     -1.312442    11A     -1.201295    12A     -1.174266
      13A     -1.082959    14A     -1.001920    15A     -0.982932
      16A     -0.956524    17A     -0.925176    18A     -0.869945
      19A     -0.827007    20A     -0.791783    21A     -0.753329
      22A     -0.729191    23A     -0.707150    24A     -0.678081
      25A     -0.651561    26A     -0.651134    27A     -0.643649
      28A     -0.500853    29A     -0.484178

  @DF-RHF Final Energy:  -325.24153688084863

   => Energetics <=

    Nuclear Repulsion Energy =            353.3097801893285919
    One-Electron Energy =               -1128.8683852443964497
    Two-Electron Energy =                 450.3170681742191732
    Total Energy =                       -325.2415368808486278
  Basis Set: (AUG-CC-PVTZ AUX)
    Blend: AUG-CC-PVTZ-RI
    Molecular point group: c1

    Geometry (in Angstrom), charge = 1, multiplicity = 1:

       Center              X                  Y                   Z               Mass
    ------------   -----------------  -----------------  -----------------  -----------------
         N            2.427909798718    -1.011108189715     0.009354553003    14.003074004430
         C            1.141766798718    -0.258689189715    -0.017137446997    12.000000000000
         C           -1.258219201282    -0.301398189715     0.011165553003    12.000000000000
         C           -0.039807201282    -0.991231189715     0.000842553003    12.000000000000
         C            1.193730798718     1.128416810285    -0.009513446997    12.000000000000
         C           -1.228790201282     1.102346810285     0.012669553003    12.000000000000
         C           -0.026355201282     1.808874810285    -0.000039446997    12.000000000000
         C           -2.566930201282    -1.043349189715    -0.006280446997    12.000000000000
         H           -0.030718201282    -2.080855189715     0.001010553003     1.007825032230
         H            2.135954798718     1.672870810285    -0.016914446997     1.007825032230
         H           -2.167882201282     1.650924810285     0.021225553003     1.007825032230
         H           -0.032130201282     2.894938810285    -0.000020446997     1.007825032230
         H            3.167498298718    -0.464345189715    -0.453317546997     1.007825032230
         H            2.721484798718    -1.240657189715     0.969914553003     1.007825032230
         H            2.354636798718    -1.896498189715    -0.510954446997     1.007825032230
         H           -2.431387201282    -2.099656189715     0.237279553003     1.007825032230
         H           -3.265181201282    -0.613023189715     0.716077553003     1.007825032230
         H           -3.030697201282    -0.980026189715    -0.995531446997     1.007825032230

  Basis Set: AUG-CC-PVTZ
    Blend: AUG-CC-PVTZ
  Basis Set: (AUG-CC-PVTZ AUX)
    Blend: AUG-CC-PVTZ-JKFIT
	 Reference Energy          =    -325.2415368808486278 [Eh]
	 Singles Energy            =      -0.0000000000000000 [Eh]
	 Same-Spin Energy          =      -0.3530852680327097 [Eh]
	 Opposite-Spin Energy      =      -1.1489809854770410 [Eh]
	 Correlation Energy        =      -1.5020662535097506 [Eh]
	 Total Energy              =    -326.7436031343583522 [Eh]

	 ================> DF-SCS-MP2 Energies <==================
	-----------------------------------------------------------
	 SCS Same-Spin Scale       =       0.3333333333333333 [-]
	 SCS Opposite-Spin Scale   =       1.2000000000000000 [-]
	 SCS Same-Spin Energy      =      -0.1176950893442366 [Eh]
	 SCS Opposite-Spin Energy  =      -1.3787771825724491 [Eh]
	 SCS Correlation Energy    =      -1.4964722719166856 [Eh]
	 SCS Total Energy          =    -326.7380091527653008 [Eh]
	-----------------------------------------------------------

  Dipole Moment: [D]
     X:     7.2622      Y:    -3.2026      Z:     0.0116     Total:     7.9370

*** Psi4 exiting successfully. Buy a developer a beer!
