                               Psi4 1.4a3.dev225

  ==> Input File <==

--------------------------------------------------------------------------
#psi4
#
memory 32 gb

molecule  {
1 1
  N       -2.4283840    -0.9794160    -0.0083510
  C       -1.1702527    -0.2437737     0.0167358
  C        1.2518020    -0.2721820    -0.0143110
  C        0.0325720    -0.9600410    -0.0018850
  C       -1.1926600     1.1553070     0.0124660
  C        1.2305980     1.1300670    -0.0135530
  C        0.0267990     1.8353860     0.0007220
  C        2.5554400    -1.0247750     0.0087590
  H        0.0173310    -2.0482160    -0.0066590
  H       -2.1350750     1.6966590     0.0194740
  H        2.1710470     1.6766600    -0.0258320
  H        0.0318520     2.9216190    -0.0004860
  H       -3.1892600    -0.4557660     0.4440390
  H       -2.7337660    -1.1857680    -0.9692710
  H       -2.3540760    -1.8789800     0.4839570
  H        2.4304730    -2.0404690    -0.3743800
  H        3.3081630    -0.5154690    -0.5984160
  H        2.9426300    -1.0948430     1.0303570
units angstrom
no_reorient  #important for SAPT in psi4, default
symmetry c1  #important for SAPT in psi4, default
}

set PROPERTIES_ORIGIN ["COM"]
properties('MP2/aug-cc-pvtz', properties = ['dipole'])
--------------------------------------------------------------------------

    Molecular point group: c1
  Charge       = 1
  Multiplicity = 1
  Basis Set: AUG-CC-PVTZ
    Blend: AUG-CC-PVTZ
  Basis Set: (AUG-CC-PVTZ AUX)
    Blend: AUG-CC-PVTZ-JKFIT

    Orbital Energies [Eh]
    ---------------------

    Doubly Occupied:

       1A    -15.896347     2A    -11.461939     3A    -11.404541
       4A    -11.402858     5A    -11.398457     6A    -11.390925
       7A    -11.382290     8A    -11.348161     9A     -1.517053
      10A     -1.309611    11A     -1.199394    12A     -1.174222
      13A     -1.081398    14A     -1.006020    15A     -0.988590
      16A     -0.959285    17A     -0.927599    18A     -0.872766
      19A     -0.830967    20A     -0.788392    21A     -0.753146
      22A     -0.725802    23A     -0.705892    24A     -0.677577
      25A     -0.652506    26A     -0.648326    27A     -0.641116
      28A     -0.499666    29A     -0.482792

  @DF-RHF Final Energy:  -325.24069517076975

   => Energetics <=

    Nuclear Repulsion Energy =            353.4147575818125233
    One-Electron Energy =               -1129.0556334127397804
    Two-Electron Energy =                 450.4001806601575026
    Total Energy =                       -325.2406951707697544
  Basis Set: (AUG-CC-PVTZ AUX)
    Blend: AUG-CC-PVTZ-RI
    Molecular point group: c1

    Geometry (in Angstrom), charge = 1, multiplicity = 1:

       Center              X                  Y                   Z               Mass
    ------------   -----------------  -----------------  -----------------  -----------------
         N           -2.421906346894    -1.005114861577    -0.008286888147    14.003074004430
         C           -1.163775046894    -0.269472561577     0.016799911853    12.000000000000
         C            1.258279653106    -0.297880861577    -0.014246888147    12.000000000000
         C            0.039049653106    -0.985739861577    -0.001820888147    12.000000000000
         C           -1.186182346894     1.129608138423     0.012530111853    12.000000000000
         C            1.237075653106     1.104368138423    -0.013488888147    12.000000000000
         C            0.033276653106     1.809687138423     0.000786111853    12.000000000000
         C            2.561917653106    -1.050473861577     0.008823111853    12.000000000000
         H            0.023808653106    -2.073914861577    -0.006594888147     1.007825032230
         H           -2.128597346894     1.670960138423     0.019538111853     1.007825032230
         H            2.177524653106     1.650961138423    -0.025767888147     1.007825032230
         H            0.038329653106     2.895920138423    -0.000421888147     1.007825032230
         H           -3.182782346894    -0.481464861577     0.444103111853     1.007825032230
         H           -2.727288346894    -1.211466861577    -0.969206888147     1.007825032230
         H           -2.347598346894    -1.904678861577     0.484021111853     1.007825032230
         H            2.436950653106    -2.066167861577    -0.374315888147     1.007825032230
         H            3.314640653106    -0.541167861577    -0.598351888147     1.007825032230
         H            2.949107653106    -1.120541861577     1.030421111853     1.007825032230

  Basis Set: AUG-CC-PVTZ
    Blend: AUG-CC-PVTZ
  Basis Set: (AUG-CC-PVTZ AUX)
    Blend: AUG-CC-PVTZ-JKFIT
	 Reference Energy          =    -325.2406951707697544 [Eh]
	 Singles Energy            =      -0.0000000000000000 [Eh]
	 Same-Spin Energy          =      -0.3532469257406666 [Eh]
	 Opposite-Spin Energy      =      -1.1489819842537172 [Eh]
	 Correlation Energy        =      -1.5022289099943840 [Eh]
	 Total Energy              =    -326.7429240807641122 [Eh]

	 ================> DF-SCS-MP2 Energies <==================
	-----------------------------------------------------------
	 SCS Same-Spin Scale       =       0.3333333333333333 [-]
	 SCS Opposite-Spin Scale   =       1.2000000000000000 [-]
	 SCS Same-Spin Energy      =      -0.1177489752468889 [Eh]
	 SCS Opposite-Spin Energy  =      -1.3787783811044607 [Eh]
	 SCS Correlation Energy    =      -1.4965273563513495 [Eh]
	 SCS Total Energy          =    -326.7372225271211050 [Eh]
	-----------------------------------------------------------

  Dipole Moment: [D]
     X:    -7.3740      Y:    -3.2484      Z:    -0.0402     Total:     8.0579

*** Psi4 exiting successfully. Buy a developer a beer!
