                               Psi4 1.3.2 release

  ==> Input File <==

--------------------------------------------------------------------------
#psi4
#
memory 32 gb

molecule  {
1 1
  N        2.4325060    -0.9845600     0.0091070
  C        1.1493153    -0.2307206    -0.0693004
  C       -1.2536230    -0.2748500     0.0109180
  C       -0.0352110    -0.9646830     0.0005950
  C        1.1983270     1.1549650    -0.0097610
  C       -1.2241940     1.1288950     0.0124220
  C       -0.0217590     1.8354230    -0.0002870
  C       -2.5623340    -1.0168010    -0.0065280
  H       -0.0261220    -2.0543070     0.0007630
  H        2.1405510     1.6994190    -0.0171620
  H       -2.1632860     1.6774730     0.0209780
  H       -0.0275340     2.9214870    -0.0002680
  H        3.1916030    -0.4398890    -0.4234570
  H        2.7260810    -1.2141090     0.9696670
  H        2.3592330    -1.8699500    -0.5112020
  H       -2.4267910    -2.0731080     0.2370320
  H       -3.2605850    -0.5864750     0.7158300
  H       -3.0261010    -0.9534780    -0.9957790
units angstrom
no_reorient  #important for SAPT in psi4, default
symmetry c1  #important for SAPT in psi4, default
}

set PROPERTIES_ORIGIN ["COM"]
properties('MP2/aug-cc-pvtz', properties = ['dipole'])
--------------------------------------------------------------------------

    Molecular point group: c1
  Charge       = 1
  Multiplicity = 1
  Basis Set: AUG-CC-PVTZ
    Blend: AUG-CC-PVTZ
  Basis Set: (AUG-CC-PVTZ AUX)
    Blend: AUG-CC-PVTZ-JKFIT

    Orbital Energies [Eh]
    ---------------------

    Doubly Occupied:

       1A    -15.892485     2A    -11.463721     3A    -11.404817
       4A    -11.403077     5A    -11.399654     6A    -11.391689
       7A    -11.382717     8A    -11.348745     9A     -1.506368
      10A     -1.312205    11A     -1.201481    12A     -1.173964
      13A     -1.082842    14A     -1.002014    15A     -0.984074
      16A     -0.953072    17A     -0.925659    18A     -0.869854
      19A     -0.827434    20A     -0.791391    21A     -0.753318
      22A     -0.729216    23A     -0.707069    24A     -0.678256
      25A     -0.652271    26A     -0.650070    27A     -0.643676
      28A     -0.500656    29A     -0.484382

  @DF-RHF Final Energy:  -325.24044158401841

   => Energetics <=

    Nuclear Repulsion Energy =            353.2033719114767791
    One-Electron Energy =               -1128.6552758283835374
    Two-Electron Energy =                 450.2114623328883454
    Total Energy =                       -325.2404415840184129
  Basis Set: (AUG-CC-PVTZ AUX)
    Blend: AUG-CC-PVTZ-RI
    Molecular point group: c1

    Geometry (in Angstrom), charge = 1, multiplicity = 1:

       Center              X                  Y                   Z               Mass
    ------------   -----------------  -----------------  -----------------  -----------------
         N            2.427400101460    -1.011246385931     0.014837841691    14.003074004430
         C            1.144209401460    -0.257406985931    -0.063569558309    12.000000000000
         C           -1.258728898540    -0.301536385931     0.016648841691    12.000000000000
         C           -0.040316898540    -0.991369385931     0.006325841691    12.000000000000
         C            1.193221101460     1.128278614069    -0.004030158309    12.000000000000
         C           -1.229299898540     1.102208614069     0.018152841691    12.000000000000
         C           -0.026864898540     1.808736614069     0.005443841691    12.000000000000
         C           -2.567439898540    -1.043487385931    -0.000797158309    12.000000000000
         H           -0.031227898540    -2.080993385931     0.006493841691     1.007825032230
         H            2.135445101460     1.672732614069    -0.011431158309     1.007825032230
         H           -2.168391898540     1.650786614069     0.026708841691     1.007825032230
         H           -0.032639898540     2.894800614069     0.005462841691     1.007825032230
         H            3.186497101460    -0.466575385931    -0.417726158309     1.007825032230
         H            2.720975101460    -1.240795385931     0.975397841691     1.007825032230
         H            2.354127101460    -1.896636385931    -0.505471158309     1.007825032230
         H           -2.431896898540    -2.099794385931     0.242762841691     1.007825032230
         H           -3.265690898540    -0.613161385931     0.721560841691     1.007825032230
         H           -3.031206898540    -0.980164385931    -0.990048158309     1.007825032230

  Basis Set: AUG-CC-PVTZ
    Blend: AUG-CC-PVTZ
  Basis Set: (AUG-CC-PVTZ AUX)
    Blend: AUG-CC-PVTZ-JKFIT
	 Reference Energy          =    -325.2404415840184129 [Eh]
	 Singles Energy            =      -0.0000000000000000 [Eh]
	 Same-Spin Energy          =      -0.3531277000211534 [Eh]
	 Opposite-Spin Energy      =      -1.1491235602717844 [Eh]
	 Correlation Energy        =      -1.5022512602929379 [Eh]
	 Total Energy              =    -326.7426928443113638 [Eh]

	 ================> DF-SCS-MP2 Energies <==================
	-----------------------------------------------------------
	 SCS Same-Spin Scale       =       0.3333333333333333 [-]
	 SCS Opposite-Spin Scale   =       1.2000000000000000 [-]
	 SCS Same-Spin Energy      =      -0.1177092333403845 [Eh]
	 SCS Opposite-Spin Energy  =      -1.3789482723261413 [Eh]
	 SCS Correlation Energy    =      -1.4966575056665257 [Eh]
	 SCS Total Energy          =    -326.7370990896849321 [Eh]
	-----------------------------------------------------------

  Dipole Moment: [D]
     X:     7.2599      Y:    -3.1876      Z:     0.0884     Total:     7.9294

*** Psi4 exiting successfully. Buy a developer a beer!
