                               Psi4 1.3.2 release

  ==> Input File <==

--------------------------------------------------------------------------
#psi4
#
memory 32 gb

molecule  {
1 1
  N        2.4325060    -0.9845600     0.0091070
  C        1.0600622    -0.1816533    -0.0191626
  C       -1.2536230    -0.2748500     0.0109180
  C       -0.0352110    -0.9646830     0.0005950
  C        1.1983270     1.1549650    -0.0097610
  C       -1.2241940     1.1288950     0.0124220
  C       -0.0217590     1.8354230    -0.0002870
  C       -2.5623340    -1.0168010    -0.0065280
  H       -0.0261220    -2.0543070     0.0007630
  H        2.1405510     1.6994190    -0.0171620
  H       -2.1632860     1.6774730     0.0209780
  H       -0.0275340     2.9214870    -0.0002680
  H        3.1916030    -0.4398890    -0.4234570
  H        2.7260810    -1.2141090     0.9696670
  H        2.3592330    -1.8699500    -0.5112020
  H       -2.4267910    -2.0731080     0.2370320
  H       -3.2605850    -0.5864750     0.7158300
  H       -3.0261010    -0.9534780    -0.9957790
units angstrom
no_reorient  #important for SAPT in psi4, default
symmetry c1  #important for SAPT in psi4, default
}

set PROPERTIES_ORIGIN ["COM"]
properties('MP2/aug-cc-pvtz', properties = ['dipole'])
--------------------------------------------------------------------------

    Molecular point group: c1
  Charge       = 1
  Multiplicity = 1
  Basis Set: AUG-CC-PVTZ
    Blend: AUG-CC-PVTZ
  Basis Set: (AUG-CC-PVTZ AUX)
    Blend: AUG-CC-PVTZ-JKFIT

    Orbital Energies [Eh]
    ---------------------

    Doubly Occupied:

       1A    -15.877274     2A    -11.467954     3A    -11.403368
       4A    -11.401197     5A    -11.399482     6A    -11.395049
       7A    -11.381509     8A    -11.350467     9A     -1.479309
      10A     -1.327268    11A     -1.209586    12A     -1.179731
      13A     -1.088965    14A     -0.996205    15A     -0.972555
      16A     -0.935312    17A     -0.917676    18A     -0.870571
      19A     -0.811689    20A     -0.807251    21A     -0.754522
      22A     -0.737910    23A     -0.712250    24A     -0.680125
      25A     -0.663199    26A     -0.651149    27A     -0.646872
      28A     -0.506317    29A     -0.489181

  @DF-RHF Final Energy:  -325.23300471559122

   => Energetics <=

    Nuclear Repulsion Energy =            354.0951923322816697
    One-Electron Energy =               -1130.4285042839139805
    Two-Electron Energy =                 451.1003072360411466
    Total Energy =                       -325.2330047155912212
  Basis Set: (AUG-CC-PVTZ AUX)
    Blend: AUG-CC-PVTZ-RI
    Molecular point group: c1

    Geometry (in Angstrom), charge = 1, multiplicity = 1:

       Center              X                  Y                   Z               Mass
    ------------   -----------------  -----------------  -----------------  -----------------
         N            2.437309650650    -1.016694205928     0.009271166748    14.003074004430
         C            1.064865850650    -0.213787505928    -0.018998433252    12.000000000000
         C           -1.248819349350    -0.306984205928     0.011082166748    12.000000000000
         C           -0.030407349350    -0.996817205928     0.000759166748    12.000000000000
         C            1.203130650650     1.122830794072    -0.009596833252    12.000000000000
         C           -1.219390349350     1.096760794072     0.012586166748    12.000000000000
         C           -0.016955349350     1.803288794072    -0.000122833252    12.000000000000
         C           -2.557530349350    -1.048935205928    -0.006363833252    12.000000000000
         H           -0.021318349350    -2.086441205928     0.000927166748     1.007825032230
         H            2.145354650650     1.667284794072    -0.016997833252     1.007825032230
         H           -2.158482349350     1.645338794072     0.021142166748     1.007825032230
         H           -0.022730349350     2.889352794072    -0.000103833252     1.007825032230
         H            3.196406650650    -0.472023205928    -0.423292833252     1.007825032230
         H            2.730884650650    -1.246243205928     0.969831166748     1.007825032230
         H            2.364036650650    -1.902084205928    -0.511037833252     1.007825032230
         H           -2.421987349350    -2.105242205928     0.237196166748     1.007825032230
         H           -3.255781349350    -0.618609205928     0.715994166748     1.007825032230
         H           -3.021297349350    -0.985612205928    -0.995614833252     1.007825032230

  Basis Set: AUG-CC-PVTZ
    Blend: AUG-CC-PVTZ
  Basis Set: (AUG-CC-PVTZ AUX)
    Blend: AUG-CC-PVTZ-JKFIT
	 Reference Energy          =    -325.2330047155912212 [Eh]
	 Singles Energy            =      -0.0000000000000000 [Eh]
	 Same-Spin Energy          =      -0.3529193939167035 [Eh]
	 Opposite-Spin Energy      =      -1.1487477961785877 [Eh]
	 Correlation Energy        =      -1.5016671900952911 [Eh]
	 Total Energy              =    -326.7346719056865254 [Eh]

	 ================> DF-SCS-MP2 Energies <==================
	-----------------------------------------------------------
	 SCS Same-Spin Scale       =       0.3333333333333333 [-]
	 SCS Opposite-Spin Scale   =       1.2000000000000000 [-]
	 SCS Same-Spin Energy      =      -0.1176397979722345 [Eh]
	 SCS Opposite-Spin Energy  =      -1.3784973554143052 [Eh]
	 SCS Correlation Energy    =      -1.4961371533865397 [Eh]
	 SCS Total Energy          =    -326.7291418689777629 [Eh]
	-----------------------------------------------------------

  Dipole Moment: [D]
     X:     7.0082      Y:    -3.0552      Z:     0.0327     Total:     7.6452

*** Psi4 exiting successfully. Buy a developer a beer!
