                               Psi4 1.4a3.dev225

  ==> Input File <==

--------------------------------------------------------------------------
#psi4
#
memory 32 gb

molecule  {
1 1
  N       -2.4283840    -0.9794160    -0.0083510
  C       -1.1529900    -0.2336800     0.0170800
  C        1.2518020    -0.2721820    -0.0143110
  C        0.0325720    -0.9600410    -0.0018850
  C       -1.1926600     1.1553070     0.0124660
  C        1.2305980     1.1300670    -0.0135530
  C        0.0267990     1.8353860     0.0007220
  C        2.5987371    -1.0497705     0.0095252
  H        0.0173310    -2.0482160    -0.0066590
  H       -2.1350750     1.6966590     0.0194740
  H        2.1710470     1.6766600    -0.0258320
  H        0.0318520     2.9216190    -0.0004860
  H       -3.1892600    -0.4557660     0.4440390
  H       -2.7337660    -1.1857680    -0.9692710
  H       -2.3540760    -1.8789800     0.4839570
  H        2.4304730    -2.0404690    -0.3743800
  H        3.3081630    -0.5154690    -0.5984160
  H        2.9426300    -1.0948430     1.0303570
units angstrom
no_reorient  #important for SAPT in psi4, default
symmetry c1  #important for SAPT in psi4, default
}

set PROPERTIES_ORIGIN ["COM"]
properties('MP2/aug-cc-pvtz', properties = ['dipole'])
--------------------------------------------------------------------------

    Molecular point group: c1
  Charge       = 1
  Multiplicity = 1
  Basis Set: AUG-CC-PVTZ
    Blend: AUG-CC-PVTZ
  Basis Set: (AUG-CC-PVTZ AUX)
    Blend: AUG-CC-PVTZ-JKFIT

    Orbital Energies [Eh]
    ---------------------

    Doubly Occupied:

       1A    -15.893896     2A    -11.462262     3A    -11.403478
       4A    -11.402043     5A    -11.400027     6A    -11.391186
       7A    -11.381935     8A    -11.347929     9A     -1.511003
      10A     -1.310843    11A     -1.196100    12A     -1.174745
      13A     -1.081842    14A     -1.003035    15A     -0.987266
      16A     -0.955646    17A     -0.926295    18A     -0.871474
      19A     -0.828577    20A     -0.789861    21A     -0.752862
      22A     -0.722936    23A     -0.710033    24A     -0.683066
      25A     -0.654933    26A     -0.653868    27A     -0.633152
      28A     -0.500557    29A     -0.484949

  @DF-RHF Final Energy:  -325.24027401105104

   => Energetics <=

    Nuclear Repulsion Energy =            352.7653471264594032
    One-Electron Energy =               -1127.7796472445609197
    Two-Electron Energy =                 449.7740261070505312
    Total Energy =                       -325.2402740110510422
  Basis Set: (AUG-CC-PVTZ AUX)
    Blend: AUG-CC-PVTZ-RI
    Molecular point group: c1

    Geometry (in Angstrom), charge = 1, multiplicity = 1:

       Center              X                  Y                   Z               Mass
    ------------   -----------------  -----------------  -----------------  -----------------
         N           -2.428630150516    -1.003460351872    -0.008410173091    14.003074004430
         C           -1.153236150516    -0.257724351872     0.017020826909    12.000000000000
         C            1.251555849484    -0.296226351872    -0.014370173091    12.000000000000
         C            0.032325849484    -0.984085351872    -0.001944173091    12.000000000000
         C           -1.192906150516     1.131262648128     0.012406826909    12.000000000000
         C            1.230351849484     1.106022648128    -0.013612173091    12.000000000000
         C            0.026552849484     1.811341648128     0.000662826909    12.000000000000
         C            2.598490949484    -1.073814851872     0.009466026909    12.000000000000
         H            0.017084849484    -2.072260351872    -0.006718173091     1.007825032230
         H           -2.135321150516     1.672614648128     0.019414826909     1.007825032230
         H            2.170800849484     1.652615648128    -0.025891173091     1.007825032230
         H            0.031605849484     2.897574648128    -0.000545173091     1.007825032230
         H           -3.189506150516    -0.479810351872     0.443979826909     1.007825032230
         H           -2.734012150516    -1.209812351872    -0.969330173091     1.007825032230
         H           -2.354322150516    -1.903024351872     0.483897826909     1.007825032230
         H            2.430226849484    -2.064513351872    -0.374439173091     1.007825032230
         H            3.307916849484    -0.539513351872    -0.598475173091     1.007825032230
         H            2.942383849484    -1.118887351872     1.030297826909     1.007825032230

  Basis Set: AUG-CC-PVTZ
    Blend: AUG-CC-PVTZ
  Basis Set: (AUG-CC-PVTZ AUX)
    Blend: AUG-CC-PVTZ-JKFIT
	 Reference Energy          =    -325.2402740110510422 [Eh]
	 Singles Energy            =      -0.0000000000000000 [Eh]
	 Same-Spin Energy          =      -0.3527387156401113 [Eh]
	 Opposite-Spin Energy      =      -1.1485099401131400 [Eh]
	 Correlation Energy        =      -1.5012486557532514 [Eh]
	 Total Energy              =    -326.7415226668043147 [Eh]

	 ================> DF-SCS-MP2 Energies <==================
	-----------------------------------------------------------
	 SCS Same-Spin Scale       =       0.3333333333333333 [-]
	 SCS Opposite-Spin Scale   =       1.2000000000000000 [-]
	 SCS Same-Spin Energy      =      -0.1175795718800371 [Eh]
	 SCS Opposite-Spin Energy  =      -1.3782119281357679 [Eh]
	 SCS Correlation Energy    =      -1.4957915000158051 [Eh]
	 SCS Total Energy          =    -326.7360655110668404 [Eh]
	-----------------------------------------------------------

  Dipole Moment: [D]
     X:    -7.3718      Y:    -3.2107      Z:    -0.0424     Total:     8.0407

*** Psi4 exiting successfully. Buy a developer a beer!
