                               Psi4 1.3.2 release

  ==> Input File <==

--------------------------------------------------------------------------
#psi4
#
memory 32 gb

molecule  {
1 1
  N        2.4325060    -0.9845600     0.0091070
  C        1.1469129    -0.2418898     0.1383019
  C       -1.2536230    -0.2748500     0.0109180
  C       -0.0352110    -0.9646830     0.0005950
  C        1.1983270     1.1549650    -0.0097610
  C       -1.2241940     1.1288950     0.0124220
  C       -0.0217590     1.8354230    -0.0002870
  C       -2.5623340    -1.0168010    -0.0065280
  H       -0.0261220    -2.0543070     0.0007630
  H        2.1405510     1.6994190    -0.0171620
  H       -2.1632860     1.6774730     0.0209780
  H       -0.0275340     2.9214870    -0.0002680
  H        3.1916030    -0.4398890    -0.4234570
  H        2.7260810    -1.2141090     0.9696670
  H        2.3592330    -1.8699500    -0.5112020
  H       -2.4267910    -2.0731080     0.2370320
  H       -3.2605850    -0.5864750     0.7158300
  H       -3.0261010    -0.9534780    -0.9957790
units angstrom
no_reorient  #important for SAPT in psi4, default
symmetry c1  #important for SAPT in psi4, default
}

set PROPERTIES_ORIGIN ["COM"]
properties('MP2/aug-cc-pvtz', properties = ['dipole'])
--------------------------------------------------------------------------

    Molecular point group: c1
  Charge       = 1
  Multiplicity = 1
  Basis Set: AUG-CC-PVTZ
    Blend: AUG-CC-PVTZ
  Basis Set: (AUG-CC-PVTZ AUX)
    Blend: AUG-CC-PVTZ-JKFIT

    Orbital Energies [Eh]
    ---------------------

    Doubly Occupied:

       1A    -15.891779     2A    -11.464825     3A    -11.406635
       4A    -11.403981     5A    -11.399346     6A    -11.391355
       7A    -11.383115     8A    -11.348646     9A     -1.506166
      10A     -1.311173    11A     -1.199569    12A     -1.174624
      13A     -1.081720    14A     -1.001766    15A     -0.984479
      16A     -0.952804    17A     -0.924865    18A     -0.868578
      19A     -0.827379    20A     -0.789858    21A     -0.753577
      22A     -0.728228    23A     -0.706703    24A     -0.677697
      25A     -0.653529    26A     -0.647934    27A     -0.643127
      28A     -0.501289    29A     -0.482448

  @DF-RHF Final Energy:  -325.23399825400782

   => Energetics <=

    Nuclear Repulsion Energy =            353.0065951488126075
    One-Electron Energy =               -1128.2667913749828585
    Two-Electron Energy =                 450.0261979721624357
    Total Energy =                       -325.2339982540078154
  Basis Set: (AUG-CC-PVTZ AUX)
    Blend: AUG-CC-PVTZ-RI
    Molecular point group: c1

    Geometry (in Angstrom), charge = 1, multiplicity = 1:

       Center              X                  Y                   Z               Mass
    ------------   -----------------  -----------------  -----------------  -----------------
         N            2.427666833943    -1.010006297499    -0.008211724138    14.003074004430
         C            1.142073733943    -0.267336097499     0.120983175862    12.000000000000
         C           -1.258462166057    -0.300296297499    -0.006400724138    12.000000000000
         C           -0.040050166057    -0.990129297499    -0.016723724138    12.000000000000
         C            1.193487833943     1.129518702501    -0.027079724138    12.000000000000
         C           -1.229033166057     1.103448702501    -0.004896724138    12.000000000000
         C           -0.026598166057     1.809976702501    -0.017605724138    12.000000000000
         C           -2.567173166057    -1.042247297499    -0.023846724138    12.000000000000
         H           -0.030961166057    -2.079753297499    -0.016555724138     1.007825032230
         H            2.135711833943     1.673972702501    -0.034480724138     1.007825032230
         H           -2.168125166057     1.652026702501     0.003659275862     1.007825032230
         H           -0.032373166057     2.896040702501    -0.017586724138     1.007825032230
         H            3.186763833943    -0.465335297499    -0.440775724138     1.007825032230
         H            2.721241833943    -1.239555297499     0.952348275862     1.007825032230
         H            2.354393833943    -1.895396297499    -0.528520724138     1.007825032230
         H           -2.431630166057    -2.098554297499     0.219713275862     1.007825032230
         H           -3.265424166057    -0.611921297499     0.698511275862     1.007825032230
         H           -3.030940166057    -0.978924297499    -1.013097724138     1.007825032230

  Basis Set: AUG-CC-PVTZ
    Blend: AUG-CC-PVTZ
  Basis Set: (AUG-CC-PVTZ AUX)
    Blend: AUG-CC-PVTZ-JKFIT
	 Reference Energy          =    -325.2339982540078154 [Eh]
	 Singles Energy            =      -0.0000000000000000 [Eh]
	 Same-Spin Energy          =      -0.3533792759785891 [Eh]
	 Opposite-Spin Energy      =      -1.1500130652142784 [Eh]
	 Correlation Energy        =      -1.5033923411928676 [Eh]
	 Total Energy              =    -326.7373905952006794 [Eh]

	 ================> DF-SCS-MP2 Energies <==================
	-----------------------------------------------------------
	 SCS Same-Spin Scale       =       0.3333333333333333 [-]
	 SCS Opposite-Spin Scale   =       1.2000000000000000 [-]
	 SCS Same-Spin Energy      =      -0.1177930919928630 [Eh]
	 SCS Opposite-Spin Energy  =      -1.3800156782571340 [Eh]
	 SCS Correlation Energy    =      -1.4978087702499971 [Eh]
	 SCS Total Energy          =    -326.7318070242578187 [Eh]
	-----------------------------------------------------------

  Dipole Moment: [D]
     X:     7.2549      Y:    -3.1928      Z:    -0.1012     Total:     7.9271

*** Psi4 exiting successfully. Buy a developer a beer!
