                               Psi4 1.4a3.dev225

  ==> Input File <==

--------------------------------------------------------------------------
#psi4
#
memory 32 gb

molecule  {
1 1
  N       -2.4283840    -0.9794160    -0.0083510
  C       -1.1529900    -0.2336800     0.0170800
  C        1.2518020    -0.2721820    -0.0143110
  C        0.0325720    -0.9600410    -0.0018850
  C       -1.1926600     1.1553070     0.0124660
  C        1.2305980     1.1300670    -0.0135530
  C        0.0267990     1.8353860     0.0007220
  C        2.5554400    -1.0247750     0.0087590
  H        0.0173310    -2.0482160    -0.0066590
  H       -2.1350750     1.6966590     0.0194740
  H        2.1710470     1.6766600    -0.0258320
  H        0.0318520     2.9216190    -0.0004860
  H       -3.2040559    -0.4455831     0.4528361
  H       -2.7337660    -1.1857680    -0.9692710
  H       -2.3540760    -1.8789800     0.4839570
  H        2.4304730    -2.0404690    -0.3743800
  H        3.3081630    -0.5154690    -0.5984160
  H        2.9426300    -1.0948430     1.0303570
units angstrom
no_reorient  #important for SAPT in psi4, default
symmetry c1  #important for SAPT in psi4, default
}

set PROPERTIES_ORIGIN ["COM"]
properties('MP2/aug-cc-pvtz', properties = ['dipole'])
--------------------------------------------------------------------------

    Molecular point group: c1
  Charge       = 1
  Multiplicity = 1
  Basis Set: AUG-CC-PVTZ
    Blend: AUG-CC-PVTZ
  Basis Set: (AUG-CC-PVTZ AUX)
    Blend: AUG-CC-PVTZ-JKFIT

    Orbital Energies [Eh]
    ---------------------

    Doubly Occupied:

       1A    -15.895190     2A    -11.462321     3A    -11.403425
       4A    -11.401892     5A    -11.398810     6A    -11.391280
       7A    -11.381889     8A    -11.348313     9A     -1.508091
      10A     -1.311849    11A     -1.200565    12A     -1.174621
      13A     -1.082203    14A     -1.003317    15A     -0.983921
      16A     -0.953933    17A     -0.923928    18A     -0.871280
      19A     -0.828901    20A     -0.790541    21A     -0.753347
      22A     -0.727756    23A     -0.706531    24A     -0.677859
      25A     -0.652115    26A     -0.650425    27A     -0.642130
      28A     -0.500599    29A     -0.483503

  @DF-RHF Final Energy:  -325.24084357520383

   => Energetics <=

    Nuclear Repulsion Energy =            353.4560796518522352
    One-Electron Energy =               -1129.1727746469725844
    Two-Electron Energy =                 450.4758514199165802
    Total Energy =                       -325.2408435752038258
  Basis Set: (AUG-CC-PVTZ AUX)
    Blend: AUG-CC-PVTZ-RI
    Molecular point group: c1

    Geometry (in Angstrom), charge = 1, multiplicity = 1:

       Center              X                  Y                   Z               Mass
    ------------   -----------------  -----------------  -----------------  -----------------
         N           -2.423685014234    -1.006330492328    -0.008407134061    14.003074004430
         C           -1.148291014234    -0.260594492328     0.017023865939    12.000000000000
         C            1.256500985766    -0.299096492328    -0.014367134061    12.000000000000
         C            0.037270985766    -0.986955492328    -0.001941134061    12.000000000000
         C           -1.187961014234     1.128392507672     0.012409865939    12.000000000000
         C            1.235296985766     1.103152507672    -0.013609134061    12.000000000000
         C            0.031497985766     1.808471507672     0.000665865939    12.000000000000
         C            2.560138985766    -1.051689492328     0.008702865939    12.000000000000
         H            0.022029985766    -2.075130492328    -0.006715134061     1.007825032230
         H           -2.130376014234     1.669744507672     0.019417865939     1.007825032230
         H            2.175745985766     1.649745507672    -0.025888134061     1.007825032230
         H            0.036550985766     2.894704507672    -0.000542134061     1.007825032230
         H           -3.199356914234    -0.472497592328     0.452779965939     1.007825032230
         H           -2.729067014234    -1.212682492328    -0.969327134061     1.007825032230
         H           -2.349377014234    -1.905894492328     0.483900865939     1.007825032230
         H            2.435171985766    -2.067383492328    -0.374436134061     1.007825032230
         H            3.312861985766    -0.542383492328    -0.598472134061     1.007825032230
         H            2.947328985766    -1.121757492328     1.030300865939     1.007825032230

  Basis Set: AUG-CC-PVTZ
    Blend: AUG-CC-PVTZ
  Basis Set: (AUG-CC-PVTZ AUX)
    Blend: AUG-CC-PVTZ-JKFIT
	 Reference Energy          =    -325.2408435752038258 [Eh]
	 Singles Energy            =      -0.0000000000000000 [Eh]
	 Same-Spin Energy          =      -0.3532312929924002 [Eh]
	 Opposite-Spin Energy      =      -1.1491202034407277 [Eh]
	 Correlation Energy        =      -1.5023514964331279 [Eh]
	 Total Energy              =    -326.7431950716369329 [Eh]

	 ================> DF-SCS-MP2 Energies <==================
	-----------------------------------------------------------
	 SCS Same-Spin Scale       =       0.3333333333333333 [-]
	 SCS Opposite-Spin Scale   =       1.2000000000000000 [-]
	 SCS Same-Spin Energy      =      -0.1177437643308001 [Eh]
	 SCS Opposite-Spin Energy  =      -1.3789442441288733 [Eh]
	 SCS Correlation Energy    =      -1.4966880084596734 [Eh]
	 SCS Total Energy          =    -326.7375315836634968 [Eh]
	-----------------------------------------------------------

  Dipole Moment: [D]
     X:    -7.3609      Y:    -3.2168      Z:    -0.0255     Total:     8.0332

*** Psi4 exiting successfully. Buy a developer a beer!
