                               Psi4 1.3.2 release

  ==> Input File <==

--------------------------------------------------------------------------
#psi4
#
memory 32 gb

molecule  {
1 1
  N        2.4325060    -0.9845600     0.0091070
  C        1.1463630    -0.2321410    -0.0173850
  C       -1.2536230    -0.2748500     0.0109180
  C       -0.0352110    -0.9646830     0.0005950
  C        1.1983270     1.1549650    -0.0097610
  C       -1.2241940     1.1288950     0.0124220
  C       -0.0217590     1.8354230    -0.0002870
  C       -2.5623340    -1.0168010    -0.0065280
  H       -0.0261220    -2.0543070     0.0007630
  H        2.1405510     1.6994190    -0.0171620
  H       -2.1632860     1.6774730     0.0209780
  H       -0.0275340     2.9214870    -0.0002680
  H        3.2653328    -0.3869860    -0.4654712
  H        2.7260810    -1.2141090     0.9696670
  H        2.3592330    -1.8699500    -0.5112020
  H       -2.4267910    -2.0731080     0.2370320
  H       -3.2605850    -0.5864750     0.7158300
  H       -3.0261010    -0.9534780    -0.9957790
units angstrom
no_reorient  #important for SAPT in psi4, default
symmetry c1  #important for SAPT in psi4, default
}

set PROPERTIES_ORIGIN ["COM"]
properties('MP2/aug-cc-pvtz', properties = ['dipole'])
--------------------------------------------------------------------------

    Molecular point group: c1
  Charge       = 1
  Multiplicity = 1
  Basis Set: AUG-CC-PVTZ
    Blend: AUG-CC-PVTZ
  Basis Set: (AUG-CC-PVTZ AUX)
    Blend: AUG-CC-PVTZ-JKFIT

    Orbital Energies [Eh]
    ---------------------

    Doubly Occupied:

       1A    -15.897666     2A    -11.462780     3A    -11.403452
       4A    -11.401773     5A    -11.399055     6A    -11.391043
       7A    -11.381333     8A    -11.348236     9A     -1.492786
      10A     -1.310662    11A     -1.200409    12A     -1.172044
      13A     -1.081995    14A     -1.000284    15A     -0.975959
      16A     -0.945808    17A     -0.909774    18A     -0.866467
      19A     -0.825819    20A     -0.789442    21A     -0.752549
      22A     -0.728541    23A     -0.706558    24A     -0.677405
      25A     -0.650871    26A     -0.650188    27A     -0.643050
      28A     -0.499919    29A     -0.483455

  @DF-RHF Final Energy:  -325.23186744372362

   => Energetics <=

    Nuclear Repulsion Energy =            352.7976868300461888
    One-Electron Energy =               -1127.9604613358685583
    Two-Electron Energy =                 449.9309070620988109
    Total Energy =                       -325.2318674437236155
  Basis Set: (AUG-CC-PVTZ AUX)
    Blend: AUG-CC-PVTZ-RI
    Molecular point group: c1

    Geometry (in Angstrom), charge = 1, multiplicity = 1:

       Center              X                  Y                   Z               Mass
    ------------   -----------------  -----------------  -----------------  -----------------
         N            2.427040380312    -1.011581986627     0.009465573715    14.003074004430
         C            1.140897380312    -0.259162986627    -0.017026426285    12.000000000000
         C           -1.259088619688    -0.301871986627     0.011276573715    12.000000000000
         C           -0.040676619688    -0.991704986627     0.000953573715    12.000000000000
         C            1.192861380312     1.127943013373    -0.009402426285    12.000000000000
         C           -1.229659619688     1.101873013373     0.012780573715    12.000000000000
         C           -0.027224619688     1.808401013373     0.000071573715    12.000000000000
         C           -2.567799619688    -1.043822986627    -0.006169426285    12.000000000000
         H           -0.031587619688    -2.081328986627     0.001121573715     1.007825032230
         H            2.135085380312     1.672397013373    -0.016803426285     1.007825032230
         H           -2.168751619688     1.650451013373     0.021336573715     1.007825032230
         H           -0.032999619688     2.894465013373     0.000090573715     1.007825032230
         H            3.259867180312    -0.414007986627    -0.465112626285     1.007825032230
         H            2.720615380312    -1.241130986627     0.970025573715     1.007825032230
         H            2.353767380312    -1.896971986627    -0.510843426285     1.007825032230
         H           -2.432256619688    -2.100129986627     0.237390573715     1.007825032230
         H           -3.266050619688    -0.613496986627     0.716188573715     1.007825032230
         H           -3.031566619688    -0.980499986627    -0.995420426285     1.007825032230

  Basis Set: AUG-CC-PVTZ
    Blend: AUG-CC-PVTZ
  Basis Set: (AUG-CC-PVTZ AUX)
    Blend: AUG-CC-PVTZ-JKFIT
	 Reference Energy          =    -325.2318674437236155 [Eh]
	 Singles Energy            =      -0.0000000000000000 [Eh]
	 Same-Spin Energy          =      -0.3537025533454169 [Eh]
	 Opposite-Spin Energy      =      -1.1508343417268403 [Eh]
	 Correlation Energy        =      -1.5045368950722573 [Eh]
	 Total Energy              =    -326.7364043387958645 [Eh]

	 ================> DF-SCS-MP2 Energies <==================
	-----------------------------------------------------------
	 SCS Same-Spin Scale       =       0.3333333333333333 [-]
	 SCS Opposite-Spin Scale   =       1.2000000000000000 [-]
	 SCS Same-Spin Energy      =      -0.1179008511151390 [Eh]
	 SCS Opposite-Spin Energy  =      -1.3810012100722082 [Eh]
	 SCS Correlation Energy    =      -1.4989020611873471 [Eh]
	 SCS Total Energy          =    -326.7307695049109384 [Eh]
	-----------------------------------------------------------

  Dipole Moment: [D]
     X:     7.4034      Y:    -3.1395      Z:    -0.0231     Total:     8.0416

*** Psi4 exiting successfully. Buy a developer a beer!
