                               Psi4 1.3.2 release

  ==> Input File <==

--------------------------------------------------------------------------
#psi4
#
memory 32 gb

molecule  {
1 1
  N        2.4325060    -0.9845600     0.0091070
  C        1.1463630    -0.2321410    -0.0173850
  C       -1.2666270    -0.2524826     0.0153997
  C       -0.0352110    -0.9646830     0.0005950
  C        1.1983270     1.1549650    -0.0097610
  C       -1.2241940     1.1288950     0.0124220
  C       -0.0217590     1.8354230    -0.0002870
  C       -2.5623340    -1.0168010    -0.0065280
  H       -0.0261220    -2.0543070     0.0007630
  H        2.1405510     1.6994190    -0.0171620
  H       -2.1632860     1.6774730     0.0209780
  H       -0.0275340     2.9214870    -0.0002680
  H        3.1916030    -0.4398890    -0.4234570
  H        2.7260810    -1.2141090     0.9696670
  H        2.3592330    -1.8699500    -0.5112020
  H       -2.4267910    -2.0731080     0.2370320
  H       -3.2605850    -0.5864750     0.7158300
  H       -3.0261010    -0.9534780    -0.9957790
units angstrom
no_reorient  #important for SAPT in psi4, default
symmetry c1  #important for SAPT in psi4, default
}

set PROPERTIES_ORIGIN ["COM"]
properties('MP2/aug-cc-pvtz', properties = ['dipole'])
--------------------------------------------------------------------------

    Molecular point group: c1
  Charge       = 1
  Multiplicity = 1
  Basis Set: AUG-CC-PVTZ
    Blend: AUG-CC-PVTZ
  Basis Set: (AUG-CC-PVTZ AUX)
    Blend: AUG-CC-PVTZ-JKFIT

    Orbital Energies [Eh]
    ---------------------

    Doubly Occupied:

       1A    -15.892726     2A    -11.463949     3A    -11.404961
       4A    -11.403369     5A    -11.399757     6A    -11.392573
       7A    -11.379049     8A    -11.348654     9A     -1.506735
      10A     -1.312300    11A     -1.201015    12A     -1.174916
      13A     -1.082961    14A     -1.003349    15A     -0.982173
      16A     -0.953619    17A     -0.926963    18A     -0.869797
      19A     -0.826924    20A     -0.791847    21A     -0.754028
      22A     -0.729031    23A     -0.707074    24A     -0.677865
      25A     -0.651112    26A     -0.648970    27A     -0.645612
      28A     -0.502183    29A     -0.482941

  @DF-RHF Final Energy:  -325.24078990184756

   => Energetics <=

    Nuclear Repulsion Energy =            353.2501584482710086
    One-Electron Energy =               -1128.7489891485654425
    Two-Electron Energy =                 450.2580407984468707
    Total Energy =                       -325.2407899018475632
  Basis Set: (AUG-CC-PVTZ AUX)
    Blend: AUG-CC-PVTZ-RI
    Molecular point group: c1

    Geometry (in Angstrom), charge = 1, multiplicity = 1:

       Center              X                  Y                   Z               Mass
    ------------   -----------------  -----------------  -----------------  -----------------
         N            2.429171689671    -1.013572079122     0.008576212273    14.003074004430
         C            1.143028689671    -0.261153079122    -0.017915787727    12.000000000000
         C           -1.269961310329    -0.281494679122     0.014868912273    12.000000000000
         C           -0.038545310329    -0.993695079122     0.000064212273    12.000000000000
         C            1.194992689671     1.125952920878    -0.010291787727    12.000000000000
         C           -1.227528310329     1.099882920878     0.011891212273    12.000000000000
         C           -0.025093310329     1.806410920878    -0.000817787727    12.000000000000
         C           -2.565668310329    -1.045813079122    -0.007058787727    12.000000000000
         H           -0.029456310329    -2.083319079122     0.000232212273     1.007825032230
         H            2.137216689671     1.670406920878    -0.017692787727     1.007825032230
         H           -2.166620310329     1.648460920878     0.020447212273     1.007825032230
         H           -0.030868310329     2.892474920878    -0.000798787727     1.007825032230
         H            3.188268689671    -0.468901079122    -0.423987787727     1.007825032230
         H            2.722746689671    -1.243121079122     0.969136212273     1.007825032230
         H            2.355898689671    -1.898962079122    -0.511732787727     1.007825032230
         H           -2.430125310329    -2.102120079122     0.236501212273     1.007825032230
         H           -3.263919310329    -0.615487079122     0.715299212273     1.007825032230
         H           -3.029435310329    -0.982490079122    -0.996309787727     1.007825032230

  Basis Set: AUG-CC-PVTZ
    Blend: AUG-CC-PVTZ
  Basis Set: (AUG-CC-PVTZ AUX)
    Blend: AUG-CC-PVTZ-JKFIT
	 Reference Energy          =    -325.2407899018475632 [Eh]
	 Singles Energy            =      -0.0000000000000000 [Eh]
	 Same-Spin Energy          =      -0.3531093185855408 [Eh]
	 Opposite-Spin Energy      =      -1.1490020522509345 [Eh]
	 Correlation Energy        =      -1.5021113708364753 [Eh]
	 Total Energy              =    -326.7429012726840369 [Eh]

	 ================> DF-SCS-MP2 Energies <==================
	-----------------------------------------------------------
	 SCS Same-Spin Scale       =       0.3333333333333333 [-]
	 SCS Opposite-Spin Scale   =       1.2000000000000000 [-]
	 SCS Same-Spin Energy      =      -0.1177031061951803 [Eh]
	 SCS Opposite-Spin Energy  =      -1.3788024627011215 [Eh]
	 SCS Correlation Energy    =      -1.4965055688963018 [Eh]
	 SCS Total Energy          =    -326.7372954707438453 [Eh]
	-----------------------------------------------------------

  Dipole Moment: [D]
     X:     7.2922      Y:    -3.2236      Z:     0.0378     Total:     7.9731

*** Psi4 exiting successfully. Buy a developer a beer!
