                               Psi4 1.3.2 release

  ==> Input File <==

--------------------------------------------------------------------------
#psi4
#
memory 32 gb

molecule  {
1 1
  N        2.4191844    -1.0068961     0.0086933
  C        1.1463630    -0.2321410    -0.0173850
  C       -1.2536230    -0.2748500     0.0109180
  C       -0.0352110    -0.9646830     0.0005950
  C        1.1983270     1.1549650    -0.0097610
  C       -1.2241940     1.1288950     0.0124220
  C       -0.0217590     1.8354230    -0.0002870
  C       -2.5623340    -1.0168010    -0.0065280
  H       -0.0261220    -2.0543070     0.0007630
  H        2.1405510     1.6994190    -0.0171620
  H       -2.1632860     1.6774730     0.0209780
  H       -0.0275340     2.9214870    -0.0002680
  H        3.1916030    -0.4398890    -0.4234570
  H        2.7260810    -1.2141090     0.9696670
  H        2.3592330    -1.8699500    -0.5112020
  H       -2.4267910    -2.0731080     0.2370320
  H       -3.2605850    -0.5864750     0.7158300
  H       -3.0261010    -0.9534780    -0.9957790
units angstrom
no_reorient  #important for SAPT in psi4, default
symmetry c1  #important for SAPT in psi4, default
}

set PROPERTIES_ORIGIN ["COM"]
properties('MP2/aug-cc-pvtz', properties = ['dipole'])
--------------------------------------------------------------------------

    Molecular point group: c1
  Charge       = 1
  Multiplicity = 1
  Basis Set: AUG-CC-PVTZ
    Blend: AUG-CC-PVTZ
  Basis Set: (AUG-CC-PVTZ AUX)
    Blend: AUG-CC-PVTZ-JKFIT

    Orbital Energies [Eh]
    ---------------------

    Doubly Occupied:

       1A    -15.892723     2A    -11.463723     3A    -11.404900
       4A    -11.401919     5A    -11.399355     6A    -11.391861
       7A    -11.382062     8A    -11.348533     9A     -1.506737
      10A     -1.312507    11A     -1.201344    12A     -1.174427
      13A     -1.082879    14A     -1.002893    15A     -0.982617
      16A     -0.955442    17A     -0.925082    18A     -0.869620
      19A     -0.826981    20A     -0.791701    21A     -0.753572
      22A     -0.729225    23A     -0.707020    24A     -0.678255
      25A     -0.651479    26A     -0.650814    27A     -0.643657
      28A     -0.500784    29A     -0.484137

  @DF-RHF Final Energy:  -325.24072480232866

   => Energetics <=

    Nuclear Repulsion Energy =            353.2997868683316369
    One-Electron Energy =               -1128.8485240235982019
    Two-Electron Energy =                 450.3080123529378511
    Total Energy =                       -325.2407248023286570
  Basis Set: (AUG-CC-PVTZ AUX)
    Blend: AUG-CC-PVTZ-RI
    Molecular point group: c1

    Geometry (in Angstrom), charge = 1, multiplicity = 1:

       Center              X                  Y                   Z               Mass
    ------------   -----------------  -----------------  -----------------  -----------------
         N            2.416132241567    -1.030530905435     0.008713703444    14.003074004430
         C            1.143310841567    -0.255775805435    -0.017364596556    12.000000000000
         C           -1.256675158433    -0.298484805435     0.010938403444    12.000000000000
         C           -0.038263158433    -0.988317805435     0.000615403444    12.000000000000
         C            1.195274841567     1.131330194565    -0.009740596556    12.000000000000
         C           -1.227246158433     1.105260194565     0.012442403444    12.000000000000
         C           -0.024811158433     1.811788194565    -0.000266596556    12.000000000000
         C           -2.565386158433    -1.040435805435    -0.006507596556    12.000000000000
         H           -0.029174158433    -2.077941805435     0.000783403444     1.007825032230
         H            2.137498841567     1.675784194565    -0.017141596556     1.007825032230
         H           -2.166338158433     1.653838194565     0.020998403444     1.007825032230
         H           -0.030586158433     2.897852194565    -0.000247596556     1.007825032230
         H            3.188550841567    -0.463523805435    -0.423436596556     1.007825032230
         H            2.723028841567    -1.237743805435     0.969687403444     1.007825032230
         H            2.356180841567    -1.893584805435    -0.511181596556     1.007825032230
         H           -2.429843158433    -2.096742805435     0.237052403444     1.007825032230
         H           -3.263637158433    -0.610109805435     0.715850403444     1.007825032230
         H           -3.029153158433    -0.977112805435    -0.995758596556     1.007825032230

  Basis Set: AUG-CC-PVTZ
    Blend: AUG-CC-PVTZ
  Basis Set: (AUG-CC-PVTZ AUX)
    Blend: AUG-CC-PVTZ-JKFIT
	 Reference Energy          =    -325.2407248023286570 [Eh]
	 Singles Energy            =      -0.0000000000000000 [Eh]
	 Same-Spin Energy          =      -0.3530936834989056 [Eh]
	 Opposite-Spin Energy      =      -1.1490115586307934 [Eh]
	 Correlation Energy        =      -1.5021052421296990 [Eh]
	 Total Energy              =    -326.7428300444583442 [Eh]

	 ================> DF-SCS-MP2 Energies <==================
	-----------------------------------------------------------
	 SCS Same-Spin Scale       =       0.3333333333333333 [-]
	 SCS Opposite-Spin Scale   =       1.2000000000000000 [-]
	 SCS Same-Spin Energy      =      -0.1176978944996352 [Eh]
	 SCS Opposite-Spin Energy  =      -1.3788138703569521 [Eh]
	 SCS Correlation Energy    =      -1.4965117648565873 [Eh]
	 SCS Total Energy          =    -326.7372365671852208 [Eh]
	-----------------------------------------------------------

  Dipole Moment: [D]
     X:     7.2995      Y:    -3.1758      Z:     0.0414     Total:     7.9605

*** Psi4 exiting successfully. Buy a developer a beer!
