                               Psi4 1.3.2 release

  ==> Input File <==

--------------------------------------------------------------------------
#psi4
#
memory 32 gb

molecule  {
1 1
  N        2.4325060    -0.9845600     0.0091070
  C        1.1463630    -0.2321410    -0.0173850
  C       -1.3374837    -0.1442716     0.0376809
  C       -0.0352110    -0.9646830     0.0005950
  C        1.1983270     1.1549650    -0.0097610
  C       -1.2241940     1.1288950     0.0124220
  C       -0.0217590     1.8354230    -0.0002870
  C       -2.5623340    -1.0168010    -0.0065280
  H       -0.0261220    -2.0543070     0.0007630
  H        2.1405510     1.6994190    -0.0171620
  H       -2.1632860     1.6774730     0.0209780
  H       -0.0275340     2.9214870    -0.0002680
  H        3.1916030    -0.4398890    -0.4234570
  H        2.7260810    -1.2141090     0.9696670
  H        2.3592330    -1.8699500    -0.5112020
  H       -2.4267910    -2.0731080     0.2370320
  H       -3.2605850    -0.5864750     0.7158300
  H       -3.0261010    -0.9534780    -0.9957790
units angstrom
no_reorient  #important for SAPT in psi4, default
symmetry c1  #important for SAPT in psi4, default
}

set PROPERTIES_ORIGIN ["COM"]
properties('MP2/aug-cc-pvtz', properties = ['dipole'])
--------------------------------------------------------------------------

    Molecular point group: c1
  Charge       = 1
  Multiplicity = 1
  Basis Set: AUG-CC-PVTZ
    Blend: AUG-CC-PVTZ
  Basis Set: (AUG-CC-PVTZ AUX)
    Blend: AUG-CC-PVTZ-JKFIT

    Orbital Energies [Eh]
    ---------------------

    Doubly Occupied:

       1A    -15.892208     2A    -11.464428     3A    -11.414946
       4A    -11.399922     5A    -11.398144     6A    -11.396660
       7A    -11.363198     8A    -11.349557     9A     -1.506543
      10A     -1.313105    11A     -1.207473    12A     -1.171452
      13A     -1.084498    14A     -1.014247    15A     -0.969773
      16A     -0.953389    17A     -0.931176    18A     -0.867207
      19A     -0.824249    20A     -0.789926    21A     -0.758734
      22A     -0.728358    23A     -0.708295    24A     -0.676217
      25A     -0.671531    26A     -0.650071    27A     -0.612738
      28A     -0.516798    29A     -0.474605

  @DF-RHF Final Energy:  -325.21242685511464

   => Energetics <=

    Nuclear Repulsion Energy =            353.1207092777321463
    One-Electron Energy =               -1128.4473739728869077
    Two-Electron Energy =                 450.1142378400400617
    Total Energy =                       -325.2124268551146429
  Basis Set: (AUG-CC-PVTZ AUX)
    Blend: AUG-CC-PVTZ-RI
    Molecular point group: c1

    Geometry (in Angstrom), charge = 1, multiplicity = 1:

       Center              X                  Y                   Z               Mass
    ------------   -----------------  -----------------  -----------------  -----------------
         N            2.437038732430    -1.025586476688     0.006102386182    14.003074004430
         C            1.150895732430    -0.273167476688    -0.020389613818    12.000000000000
         C           -1.332950967570    -0.185298076688     0.034676286182    12.000000000000
         C           -0.030678267570    -1.005709476688    -0.002409613818    12.000000000000
         C            1.202859732430     1.113938523312    -0.012765613818    12.000000000000
         C           -1.219661267570     1.087868523312     0.009417386182    12.000000000000
         C           -0.017226267570     1.794396523312    -0.003291613818    12.000000000000
         C           -2.557801267570    -1.057827476688    -0.009532613818    12.000000000000
         H           -0.021589267570    -2.095333476688    -0.002241613818     1.007825032230
         H            2.145083732430     1.658392523312    -0.020166613818     1.007825032230
         H           -2.158753267570     1.636446523312     0.017973386182     1.007825032230
         H           -0.023001267570     2.880460523312    -0.003272613818     1.007825032230
         H            3.196135732430    -0.480915476688    -0.426461613818     1.007825032230
         H            2.730613732430    -1.255135476688     0.966662386182     1.007825032230
         H            2.363765732430    -1.910976476688    -0.514206613818     1.007825032230
         H           -2.422258267570    -2.114134476688     0.234027386182     1.007825032230
         H           -3.256052267570    -0.627501476688     0.712825386182     1.007825032230
         H           -3.021568267570    -0.994504476688    -0.998783613818     1.007825032230

  Basis Set: AUG-CC-PVTZ
    Blend: AUG-CC-PVTZ
  Basis Set: (AUG-CC-PVTZ AUX)
    Blend: AUG-CC-PVTZ-JKFIT
	 Reference Energy          =    -325.2124268551146429 [Eh]
	 Singles Energy            =      -0.0000000000000000 [Eh]
	 Same-Spin Energy          =      -0.3527418715043007 [Eh]
	 Opposite-Spin Energy      =      -1.1501711393826621 [Eh]
	 Correlation Energy        =      -1.5029130108869628 [Eh]
	 Total Energy              =    -326.7153398660016137 [Eh]

	 ================> DF-SCS-MP2 Energies <==================
	-----------------------------------------------------------
	 SCS Same-Spin Scale       =       0.3333333333333333 [-]
	 SCS Opposite-Spin Scale   =       1.2000000000000000 [-]
	 SCS Same-Spin Energy      =      -0.1175806238347669 [Eh]
	 SCS Opposite-Spin Energy  =      -1.3802053672591945 [Eh]
	 SCS Correlation Energy    =      -1.4977859910939615 [Eh]
	 SCS Total Energy          =    -326.7102128462086057 [Eh]
	-----------------------------------------------------------

  Dipole Moment: [D]
     X:     7.3273      Y:    -3.3237      Z:     0.0236     Total:     8.0459

*** Psi4 exiting successfully. Buy a developer a beer!
