                               Psi4 1.3.2 release

  ==> Input File <==

--------------------------------------------------------------------------
#psi4
#
memory 32 gb

molecule  {
1 1
  N        2.4325060    -0.9845600     0.0091070
  C        1.1463630    -0.2321410    -0.0173850
  C       -1.2536230    -0.2748500     0.0109180
  C       -0.0352110    -0.9646830     0.0005950
  C        1.1983270     1.1549650    -0.0097610
  C       -1.2241940     1.1288950     0.0124220
  C       -0.0217590     1.8354230    -0.0002870
  C       -2.4753476    -0.9674855    -0.0053684
  H       -0.0261220    -2.0543070     0.0007630
  H        2.1405510     1.6994190    -0.0171620
  H       -2.1632860     1.6774730     0.0209780
  H       -0.0275340     2.9214870    -0.0002680
  H        3.1916030    -0.4398890    -0.4234570
  H        2.7260810    -1.2141090     0.9696670
  H        2.3592330    -1.8699500    -0.5112020
  H       -2.4267910    -2.0731080     0.2370320
  H       -3.2605850    -0.5864750     0.7158300
  H       -3.0261010    -0.9534780    -0.9957790
units angstrom
no_reorient  #important for SAPT in psi4, default
symmetry c1  #important for SAPT in psi4, default
}

set PROPERTIES_ORIGIN ["COM"]
properties('MP2/aug-cc-pvtz', properties = ['dipole'])
--------------------------------------------------------------------------

    Molecular point group: c1
  Charge       = 1
  Multiplicity = 1
  Basis Set: AUG-CC-PVTZ
    Blend: AUG-CC-PVTZ
  Basis Set: (AUG-CC-PVTZ AUX)
    Blend: AUG-CC-PVTZ-JKFIT

    Orbital Energies [Eh]
    ---------------------

    Doubly Occupied:

       1A    -15.892885     2A    -11.463913     3A    -11.404259
       4A    -11.402181     5A    -11.395724     6A    -11.391788
       7A    -11.381998     8A    -11.351961     9A     -1.506821
      10A     -1.316113    11A     -1.212884    12A     -1.175133
      13A     -1.085224    14A     -1.002902    15A     -0.981222
      16A     -0.953705    17A     -0.926039    18A     -0.871083
      19A     -0.828560    20A     -0.794480    21A     -0.755632
      22A     -0.741308    23A     -0.703730    24A     -0.673535
      25A     -0.665445    26A     -0.642978    27A     -0.629045
      28A     -0.501019    29A     -0.479621

  @DF-RHF Final Energy:  -325.22908577265417

   => Energetics <=

    Nuclear Repulsion Energy =            354.9614046357479538
    One-Electron Energy =               -1132.1186029191055695
    Two-Electron Energy =                 451.9281125107034427
    Total Energy =                       -325.2290857726541731
  Basis Set: (AUG-CC-PVTZ AUX)
    Blend: AUG-CC-PVTZ-RI
    Molecular point group: c1

    Geometry (in Angstrom), charge = 1, multiplicity = 1:

       Center              X                  Y                   Z               Mass
    ------------   -----------------  -----------------  -----------------  -----------------
         N            2.418070004828    -1.016564059485     0.008945056754    14.003074004430
         C            1.131927004828    -0.264145059485    -0.017546943246    12.000000000000
         C           -1.268058995172    -0.306854059485     0.010756056754    12.000000000000
         C           -0.049646995172    -0.996687059485     0.000433056754    12.000000000000
         C            1.183891004828     1.122960940515    -0.009922943246    12.000000000000
         C           -1.238629995172     1.096890940515     0.012260056754    12.000000000000
         C           -0.036194995172     1.803418940515    -0.000448943246    12.000000000000
         C           -2.489783595172    -0.999489559485    -0.005530343246    12.000000000000
         H           -0.040557995172    -2.086311059485     0.000601056754     1.007825032230
         H            2.126115004828     1.667414940515    -0.017323943246     1.007825032230
         H           -2.177721995172     1.645468940515     0.020816056754     1.007825032230
         H           -0.041969995172     2.889482940515    -0.000429943246     1.007825032230
         H            3.177167004828    -0.471893059485    -0.423618943246     1.007825032230
         H            2.711645004828    -1.246113059485     0.969505056754     1.007825032230
         H            2.344797004828    -1.901954059485    -0.511363943246     1.007825032230
         H           -2.441226995172    -2.105112059485     0.236870056754     1.007825032230
         H           -3.275020995172    -0.618479059485     0.715668056754     1.007825032230
         H           -3.040536995172    -0.985482059485    -0.995940943246     1.007825032230

  Basis Set: AUG-CC-PVTZ
    Blend: AUG-CC-PVTZ
  Basis Set: (AUG-CC-PVTZ AUX)
    Blend: AUG-CC-PVTZ-JKFIT
	 Reference Energy          =    -325.2290857726541731 [Eh]
	 Singles Energy            =      -0.0000000000000000 [Eh]
	 Same-Spin Energy          =      -0.3544434023168170 [Eh]
	 Opposite-Spin Energy      =      -1.1505226835385121 [Eh]
	 Correlation Energy        =      -1.5049660858553291 [Eh]
	 Total Energy              =    -326.7340518585094742 [Eh]

	 ================> DF-SCS-MP2 Energies <==================
	-----------------------------------------------------------
	 SCS Same-Spin Scale       =       0.3333333333333333 [-]
	 SCS Opposite-Spin Scale   =       1.2000000000000000 [-]
	 SCS Same-Spin Energy      =      -0.1181478007722723 [Eh]
	 SCS Opposite-Spin Energy  =      -1.3806272202462144 [Eh]
	 SCS Correlation Energy    =      -1.4987750210184867 [Eh]
	 SCS Total Energy          =    -326.7278607936726758 [Eh]
	-----------------------------------------------------------

  Dipole Moment: [D]
     X:     7.1793      Y:    -3.2484      Z:     0.0326     Total:     7.8800

*** Psi4 exiting successfully. Buy a developer a beer!
