                               Psi4 1.4a3.dev225

  ==> Input File <==

--------------------------------------------------------------------------
#psi4
#
memory 32 gb

molecule  {
1 1
  N       -2.4283840    -0.9794160    -0.0083510
  C       -1.1529900    -0.2336800     0.0170800
  C        1.2518020    -0.2721820    -0.0143110
  C        0.0325720    -0.9600410    -0.0018850
  C       -1.1926600     1.1553070     0.0124660
  C        1.2305980     1.1300670    -0.0135530
  C        0.0267990     1.8353860     0.0007220
  C        2.5727588    -1.0347732     0.0090655
  H        0.0173310    -2.0482160    -0.0066590
  H       -2.1350750     1.6966590     0.0194740
  H        2.1710470     1.6766600    -0.0258320
  H        0.0318520     2.9216190    -0.0004860
  H       -3.1892600    -0.4557660     0.4440390
  H       -2.7337660    -1.1857680    -0.9692710
  H       -2.3540760    -1.8789800     0.4839570
  H        2.4304730    -2.0404690    -0.3743800
  H        3.3081630    -0.5154690    -0.5984160
  H        2.9426300    -1.0948430     1.0303570
units angstrom
no_reorient  #important for SAPT in psi4, default
symmetry c1  #important for SAPT in psi4, default
}

set PROPERTIES_ORIGIN ["COM"]
properties('MP2/aug-cc-pvtz', properties = ['dipole'])
--------------------------------------------------------------------------

    Molecular point group: c1
  Charge       = 1
  Multiplicity = 1
  Basis Set: AUG-CC-PVTZ
    Blend: AUG-CC-PVTZ
  Basis Set: (AUG-CC-PVTZ AUX)
    Blend: AUG-CC-PVTZ-JKFIT

    Orbital Energies [Eh]
    ---------------------

    Doubly Occupied:

       1A    -15.894007     2A    -11.462417     3A    -11.403564
       4A    -11.402040     5A    -11.399429     6A    -11.391322
       7A    -11.382002     8A    -11.348108     9A     -1.511116
      10A     -1.311658    11A     -1.198804    12A     -1.175007
      13A     -1.082125    14A     -1.003382    15A     -0.986638
      16A     -0.955751    17A     -0.926470    18A     -0.871766
      19A     -0.828922    20A     -0.790521    21A     -0.753222
      22A     -0.725762    23A     -0.707874    24A     -0.679746
      25A     -0.652981    26A     -0.651994    27A     -0.639519
      28A     -0.500695    29A     -0.484222

  @DF-RHF Final Energy:  -325.24173310256498

   => Energetics <=

    Nuclear Repulsion Energy =            353.2380290839024610
    One-Electron Energy =               -1128.7173980986331117
    Two-Electron Energy =                 450.2376359121656719
    Total Energy =                       -325.2417331025649787
  Basis Set: (AUG-CC-PVTZ AUX)
    Blend: AUG-CC-PVTZ-RI
    Molecular point group: c1

    Geometry (in Angstrom), charge = 1, multiplicity = 1:

       Center              X                  Y                   Z               Mass
    ------------   -----------------  -----------------  -----------------  -----------------
         N           -2.425745844629    -1.005125464704    -0.008359133746    14.003074004430
         C           -1.150351844629    -0.259389464704     0.017071866254    12.000000000000
         C            1.254440155371    -0.297891464704    -0.014319133746    12.000000000000
         C            0.035210155371    -0.985750464704    -0.001893133746    12.000000000000
         C           -1.190021844629     1.129597535296     0.012457866254    12.000000000000
         C            1.233236155371     1.104357535296    -0.013561133746    12.000000000000
         C            0.029437155371     1.809676535296     0.000713866254    12.000000000000
         C            2.575396955371    -1.060482664704     0.009057366254    12.000000000000
         H            0.019969155371    -2.073925464704    -0.006667133746     1.007825032230
         H           -2.132436844629     1.670949535296     0.019465866254     1.007825032230
         H            2.173685155371     1.650950535296    -0.025840133746     1.007825032230
         H            0.034490155371     2.895909535296    -0.000494133746     1.007825032230
         H           -3.186621844629    -0.481475464704     0.444030866254     1.007825032230
         H           -2.731127844629    -1.211477464704    -0.969279133746     1.007825032230
         H           -2.351437844629    -1.904689464704     0.483948866254     1.007825032230
         H            2.433111155371    -2.066178464704    -0.374388133746     1.007825032230
         H            3.310801155371    -0.541178464704    -0.598424133746     1.007825032230
         H            2.945268155371    -1.120552464704     1.030348866254     1.007825032230

  Basis Set: AUG-CC-PVTZ
    Blend: AUG-CC-PVTZ
  Basis Set: (AUG-CC-PVTZ AUX)
    Blend: AUG-CC-PVTZ-JKFIT
	 Reference Energy          =    -325.2417331025649787 [Eh]
	 Singles Energy            =      -0.0000000000000000 [Eh]
	 Same-Spin Energy          =      -0.3529379964050974 [Eh]
	 Opposite-Spin Energy      =      -1.1486233249569326 [Eh]
	 Correlation Energy        =      -1.5015613213620300 [Eh]
	 Total Energy              =    -326.7432944239270114 [Eh]

	 ================> DF-SCS-MP2 Energies <==================
	-----------------------------------------------------------
	 SCS Same-Spin Scale       =       0.3333333333333333 [-]
	 SCS Opposite-Spin Scale   =       1.2000000000000000 [-]
	 SCS Same-Spin Energy      =      -0.1176459988016991 [Eh]
	 SCS Opposite-Spin Energy  =      -1.3783479899483191 [Eh]
	 SCS Correlation Energy    =      -1.4959939887500182 [Eh]
	 SCS Total Energy          =    -326.7377270913149800 [Eh]
	-----------------------------------------------------------

  Dipole Moment: [D]
     X:    -7.3523      Y:    -3.2208      Z:    -0.0402     Total:     8.0269

*** Psi4 exiting successfully. Buy a developer a beer!
