                               Psi4 1.4a3.dev225

  ==> Input File <==

--------------------------------------------------------------------------
#psi4
#
memory 32 gb

molecule  {
1 1
  N       -2.4283840    -0.9794160    -0.0083510
  C       -1.1961467    -0.2589141     0.0162195
  C        1.2518020    -0.2721820    -0.0143110
  C        0.0325720    -0.9600410    -0.0018850
  C       -1.1926600     1.1553070     0.0124660
  C        1.2305980     1.1300670    -0.0135530
  C        0.0267990     1.8353860     0.0007220
  C        2.5554400    -1.0247750     0.0087590
  H        0.0173310    -2.0482160    -0.0066590
  H       -2.1350750     1.6966590     0.0194740
  H        2.1710470     1.6766600    -0.0258320
  H        0.0318520     2.9216190    -0.0004860
  H       -3.1892600    -0.4557660     0.4440390
  H       -2.7337660    -1.1857680    -0.9692710
  H       -2.3540760    -1.8789800     0.4839570
  H        2.4304730    -2.0404690    -0.3743800
  H        3.3081630    -0.5154690    -0.5984160
  H        2.9426300    -1.0948430     1.0303570
units angstrom
no_reorient  #important for SAPT in psi4, default
symmetry c1  #important for SAPT in psi4, default
}

set PROPERTIES_ORIGIN ["COM"]
properties('MP2/aug-cc-pvtz', properties = ['dipole'])
--------------------------------------------------------------------------

    Molecular point group: c1
  Charge       = 1
  Multiplicity = 1
  Basis Set: AUG-CC-PVTZ
    Blend: AUG-CC-PVTZ
  Basis Set: (AUG-CC-PVTZ AUX)
    Blend: AUG-CC-PVTZ-JKFIT

    Orbital Energies [Eh]
    ---------------------

    Doubly Occupied:

       1A    -15.899356     2A    -11.461220     3A    -11.406091
       4A    -11.404267     5A    -11.397837     6A    -11.390325
       7A    -11.382756     8A    -11.347867     9A     -1.526163
      10A     -1.305878    11A     -1.197490    12A     -1.172873
      13A     -1.080032    14A     -1.010420    15A     -0.992104
      16A     -0.964452    17A     -0.928872    18A     -0.874366
      19A     -0.832953    20A     -0.784757    21A     -0.752619
      22A     -0.722640    23A     -0.704905    24A     -0.676972
      25A     -0.652874    26A     -0.644950    27A     -0.639258
      28A     -0.497989    29A     -0.481618

  @DF-RHF Final Energy:  -325.23718691895198

   => Energetics <=

    Nuclear Repulsion Energy =            353.2117423669458276
    One-Electron Energy =               -1128.6300504753598943
    Two-Electron Energy =                 450.1811211894620897
    Total Energy =                       -325.2371869189519771
  Basis Set: (AUG-CC-PVTZ AUX)
    Blend: AUG-CC-PVTZ-RI
    Molecular point group: c1

    Geometry (in Angstrom), charge = 1, multiplicity = 1:

       Center              X                  Y                   Z               Mass
    ------------   -----------------  -----------------  -----------------  -----------------
         N           -2.419031400626    -1.003433860709    -0.008229564645    14.003074004430
         C           -1.186794100626    -0.282931960709     0.016340935355    12.000000000000
         C            1.261154599374    -0.296199860709    -0.014189564645    12.000000000000
         C            0.041924599374    -0.984058860709    -0.001763564645    12.000000000000
         C           -1.183307400626     1.131289139291     0.012587435355    12.000000000000
         C            1.239950599374     1.106049139291    -0.013431564645    12.000000000000
         C            0.036151599374     1.811368139291     0.000843435355    12.000000000000
         C            2.564792599374    -1.048792860709     0.008880435355    12.000000000000
         H            0.026683599374    -2.072233860709    -0.006537564645     1.007825032230
         H           -2.125722400626     1.672641139291     0.019595435355     1.007825032230
         H            2.180399599374     1.652642139291    -0.025710564645     1.007825032230
         H            0.041204599374     2.897601139291    -0.000364564645     1.007825032230
         H           -3.179907400626    -0.479783860709     0.444160435355     1.007825032230
         H           -2.724413400626    -1.209785860709    -0.969149564645     1.007825032230
         H           -2.344723400626    -1.902997860709     0.484078435355     1.007825032230
         H            2.439825599374    -2.064486860709    -0.374258564645     1.007825032230
         H            3.317515599374    -0.539486860709    -0.598294564645     1.007825032230
         H            2.951982599374    -1.118860860709     1.030478435355     1.007825032230

  Basis Set: AUG-CC-PVTZ
    Blend: AUG-CC-PVTZ
  Basis Set: (AUG-CC-PVTZ AUX)
    Blend: AUG-CC-PVTZ-JKFIT
	 Reference Energy          =    -325.2371869189519771 [Eh]
	 Singles Energy            =      -0.0000000000000000 [Eh]
	 Same-Spin Energy          =      -0.3535164180011365 [Eh]
	 Opposite-Spin Energy      =      -1.1494185525547376 [Eh]
	 Correlation Energy        =      -1.5029349705558741 [Eh]
	 Total Energy              =    -326.7401218895078614 [Eh]

	 ================> DF-SCS-MP2 Energies <==================
	-----------------------------------------------------------
	 SCS Same-Spin Scale       =       0.3333333333333333 [-]
	 SCS Opposite-Spin Scale   =       1.2000000000000000 [-]
	 SCS Same-Spin Energy      =      -0.1178388060003788 [Eh]
	 SCS Opposite-Spin Energy  =      -1.3793022630656850 [Eh]
	 SCS Correlation Energy    =      -1.4971410690660638 [Eh]
	 SCS Total Energy          =    -326.7343279880180376 [Eh]
	-----------------------------------------------------------

  Dipole Moment: [D]
     X:    -7.4202      Y:    -3.2738      Z:    -0.0425     Total:     8.1104

*** Psi4 exiting successfully. Buy a developer a beer!
