                               Psi4 1.3.2 release

  ==> Input File <==

--------------------------------------------------------------------------
#psi4
#
memory 32 gb

molecule  {
1 1
  N        2.4325060    -0.9845600     0.0091070
  C        1.1463630    -0.2321410    -0.0173850
  C       -1.2536230    -0.2748500     0.0109180
  C       -0.0352110    -0.9646830     0.0005950
  C        1.1983270     1.1549650    -0.0097610
  C       -1.2241940     1.1288950     0.0124220
  C       -0.0217590     1.8354230    -0.0002870
  C       -2.6493204    -1.0661165    -0.0076876
  H       -0.0261220    -2.0543070     0.0007630
  H        2.1405510     1.6994190    -0.0171620
  H       -2.1632860     1.6774730     0.0209780
  H       -0.0275340     2.9214870    -0.0002680
  H        3.1916030    -0.4398890    -0.4234570
  H        2.7260810    -1.2141090     0.9696670
  H        2.3592330    -1.8699500    -0.5112020
  H       -2.4267910    -2.0731080     0.2370320
  H       -3.2605850    -0.5864750     0.7158300
  H       -3.0261010    -0.9534780    -0.9957790
units angstrom
no_reorient  #important for SAPT in psi4, default
symmetry c1  #important for SAPT in psi4, default
}

set PROPERTIES_ORIGIN ["COM"]
properties('MP2/aug-cc-pvtz', properties = ['dipole'])
--------------------------------------------------------------------------

    Molecular point group: c1
  Charge       = 1
  Multiplicity = 1
  Basis Set: AUG-CC-PVTZ
    Blend: AUG-CC-PVTZ
  Basis Set: (AUG-CC-PVTZ AUX)
    Blend: AUG-CC-PVTZ-JKFIT

    Orbital Energies [Eh]
    ---------------------

    Doubly Occupied:

       1A    -15.892351     2A    -11.463168     3A    -11.403960
       4A    -11.402504     5A    -11.401206     6A    -11.391126
       7A    -11.381730     8A    -11.348569     9A     -1.506286
      10A     -1.309864    11A     -1.192656    12A     -1.173482
      13A     -1.082195    14A     -1.000683    15A     -0.986019
      16A     -0.953209    17A     -0.925202    18A     -0.869498
      19A     -0.825956    20A     -0.789833    21A     -0.752172
      22A     -0.720413    23A     -0.714787    24A     -0.690356
      25A     -0.657088    26A     -0.656036    27A     -0.621669
      28A     -0.500258    29A     -0.486290

  @DF-RHF Final Energy:  -325.23466195320378

   => Energetics <=

    Nuclear Repulsion Energy =            351.7200646284929348
    One-Electron Energy =               -1125.7123214514399479
    Two-Electron Energy =                 448.7575948697431727
    Total Energy =                       -325.2346619532037835
  Basis Set: (AUG-CC-PVTZ AUX)
    Blend: AUG-CC-PVTZ-RI
    Molecular point group: c1

    Geometry (in Angstrom), charge = 1, multiplicity = 1:

       Center              X                  Y                   Z               Mass
    ------------   -----------------  -----------------  -----------------  -----------------
         N            2.437385771109    -1.005613305436     0.009202551748    14.003074004430
         C            1.151242771109    -0.253194305436    -0.017289448252    12.000000000000
         C           -1.248743228891    -0.295903305436     0.011013551748    12.000000000000
         C           -0.030331228891    -0.985736305436     0.000690551748    12.000000000000
         C            1.203206771109     1.133911694564    -0.009665448252    12.000000000000
         C           -1.219314228891     1.107841694564     0.012517551748    12.000000000000
         C           -0.016879228891     1.814369694564    -0.000191448252    12.000000000000
         C           -2.644440628891    -1.087169805436    -0.007592048252    12.000000000000
         H           -0.021242228891    -2.075360305436     0.000858551748     1.007825032230
         H            2.145430771109     1.678365694564    -0.017066448252     1.007825032230
         H           -2.158406228891     1.656419694564     0.021073551748     1.007825032230
         H           -0.022654228891     2.900433694564    -0.000172448252     1.007825032230
         H            3.196482771109    -0.460942305436    -0.423361448252     1.007825032230
         H            2.730960771109    -1.235162305436     0.969762551748     1.007825032230
         H            2.364112771109    -1.891003305436    -0.511106448252     1.007825032230
         H           -2.421911228891    -2.094161305436     0.237127551748     1.007825032230
         H           -3.255705228891    -0.607528305436     0.715925551748     1.007825032230
         H           -3.021221228891    -0.974531305436    -0.995683448252     1.007825032230

  Basis Set: AUG-CC-PVTZ
    Blend: AUG-CC-PVTZ
  Basis Set: (AUG-CC-PVTZ AUX)
    Blend: AUG-CC-PVTZ-JKFIT
	 Reference Energy          =    -325.2346619532037835 [Eh]
	 Singles Energy            =      -0.0000000000000000 [Eh]
	 Same-Spin Energy          =      -0.3525033560929639 [Eh]
	 Opposite-Spin Energy      =      -1.1487203558866983 [Eh]
	 Correlation Energy        =      -1.5012237119796623 [Eh]
	 Total Energy              =    -326.7358856651834458 [Eh]

	 ================> DF-SCS-MP2 Energies <==================
	-----------------------------------------------------------
	 SCS Same-Spin Scale       =       0.3333333333333333 [-]
	 SCS Opposite-Spin Scale   =       1.2000000000000000 [-]
	 SCS Same-Spin Energy      =      -0.1175011186976546 [Eh]
	 SCS Opposite-Spin Energy  =      -1.3784644270640378 [Eh]
	 SCS Correlation Energy    =      -1.4959655457616925 [Eh]
	 SCS Total Energy          =    -326.7306274989654753 [Eh]
	-----------------------------------------------------------

  Dipole Moment: [D]
     X:     7.3471      Y:    -3.1743      Z:     0.0459     Total:     8.0036

*** Psi4 exiting successfully. Buy a developer a beer!
