                               Psi4 1.3.2 release

  ==> Input File <==

--------------------------------------------------------------------------
#psi4
#
memory 32 gb

molecule  {
1 1
  N        2.4325060    -0.9845600     0.0091070
  C        1.1538309    -0.2302187    -0.1211204
  C       -1.2536230    -0.2748500     0.0109180
  C       -0.0352110    -0.9646830     0.0005950
  C        1.1983270     1.1549650    -0.0097610
  C       -1.2241940     1.1288950     0.0124220
  C       -0.0217590     1.8354230    -0.0002870
  C       -2.5623340    -1.0168010    -0.0065280
  H       -0.0261220    -2.0543070     0.0007630
  H        2.1405510     1.6994190    -0.0171620
  H       -2.1632860     1.6774730     0.0209780
  H       -0.0275340     2.9214870    -0.0002680
  H        3.1916030    -0.4398890    -0.4234570
  H        2.7260810    -1.2141090     0.9696670
  H        2.3592330    -1.8699500    -0.5112020
  H       -2.4267910    -2.0731080     0.2370320
  H       -3.2605850    -0.5864750     0.7158300
  H       -3.0261010    -0.9534780    -0.9957790
units angstrom
no_reorient  #important for SAPT in psi4, default
symmetry c1  #important for SAPT in psi4, default
}

set PROPERTIES_ORIGIN ["COM"]
properties('MP2/aug-cc-pvtz', properties = ['dipole'])
--------------------------------------------------------------------------

    Molecular point group: c1
  Charge       = 1
  Multiplicity = 1
  Basis Set: AUG-CC-PVTZ
    Blend: AUG-CC-PVTZ
  Basis Set: (AUG-CC-PVTZ AUX)
    Blend: AUG-CC-PVTZ-JKFIT

    Orbital Energies [Eh]
    ---------------------

    Doubly Occupied:

       1A    -15.891929     2A    -11.463934     3A    -11.405958
       4A    -11.404282     5A    -11.399680     6A    -11.391747
       7A    -11.383933     8A    -11.348876     9A     -1.505806
      10A     -1.311567    11A     -1.201528    12A     -1.173244
      13A     -1.082572    14A     -1.002393    15A     -0.983972
      16A     -0.952195    17A     -0.925285    18A     -0.868614
      19A     -0.827740    20A     -0.790229    21A     -0.753418
      22A     -0.729154    23A     -0.706954    24A     -0.678548
      25A     -0.652922    26A     -0.648768    27A     -0.643681
      28A     -0.500619    29A     -0.484480

  @DF-RHF Final Energy:  -325.23732058294075

   => Energetics <=

    Nuclear Repulsion Energy =            353.0417057667497716
    One-Electron Energy =               -1128.3299938715881581
    Two-Electron Energy =                 450.0509675218975758
    Total Energy =                       -325.2373205829407539
  Basis Set: (AUG-CC-PVTZ AUX)
    Blend: AUG-CC-PVTZ-RI
    Molecular point group: c1

    Geometry (in Angstrom), charge = 1, multiplicity = 1:

       Center              X                  Y                   Z               Mass
    ------------   -----------------  -----------------  -----------------  -----------------
         N            2.426898745649    -1.011302110637     0.020591287107    14.003074004430
         C            1.148223645649    -0.256960810637    -0.109636112893    12.000000000000
         C           -1.259230254351    -0.301592110637     0.022402287107    12.000000000000
         C           -0.040818254351    -0.991425110637     0.012079287107    12.000000000000
         C            1.192719745649     1.128222889363     0.001723287107    12.000000000000
         C           -1.229801254351     1.102152889363     0.023906287107    12.000000000000
         C           -0.027366254351     1.808680889363     0.011197287107    12.000000000000
         C           -2.567941254351    -1.043543110637     0.004956287107    12.000000000000
         H           -0.031729254351    -2.081049110637     0.012247287107     1.007825032230
         H            2.134943745649     1.672676889363    -0.005677712893     1.007825032230
         H           -2.168893254351     1.650730889363     0.032462287107     1.007825032230
         H           -0.033141254351     2.894744889363     0.011216287107     1.007825032230
         H            3.185995745649    -0.466631110637    -0.411972712893     1.007825032230
         H            2.720473745649    -1.240851110637     0.981151287107     1.007825032230
         H            2.353625745649    -1.896692110637    -0.499717712893     1.007825032230
         H           -2.432398254351    -2.099850110637     0.248516287107     1.007825032230
         H           -3.266192254351    -0.613217110637     0.727314287107     1.007825032230
         H           -3.031708254351    -0.980220110637    -0.984294712893     1.007825032230

  Basis Set: AUG-CC-PVTZ
    Blend: AUG-CC-PVTZ
  Basis Set: (AUG-CC-PVTZ AUX)
    Blend: AUG-CC-PVTZ-JKFIT
	 Reference Energy          =    -325.2373205829407539 [Eh]
	 Singles Energy            =      -0.0000000000000000 [Eh]
	 Same-Spin Energy          =      -0.3532604997362668 [Eh]
	 Opposite-Spin Energy      =      -1.1496081902739772 [Eh]
	 Correlation Energy        =      -1.5028686900102439 [Eh]
	 Total Energy              =    -326.7401892729509996 [Eh]

	 ================> DF-SCS-MP2 Energies <==================
	-----------------------------------------------------------
	 SCS Same-Spin Scale       =       0.3333333333333333 [-]
	 SCS Opposite-Spin Scale   =       1.2000000000000000 [-]
	 SCS Same-Spin Energy      =      -0.1177534999120889 [Eh]
	 SCS Opposite-Spin Energy  =      -1.3795298283287727 [Eh]
	 SCS Correlation Energy    =      -1.4972833282408615 [Eh]
	 SCS Total Energy          =    -326.7346039111816367 [Eh]
	-----------------------------------------------------------

  Dipole Moment: [D]
     X:     7.2185      Y:    -3.1635      Z:     0.1370     Total:     7.8824

*** Psi4 exiting successfully. Buy a developer a beer!
