                               Psi4 1.3.2 release

  ==> Input File <==

--------------------------------------------------------------------------
#psi4
#
memory 32 gb

molecule  {
1 1
  N        2.4325060    -0.9845600     0.0091070
  C        1.1463630    -0.2321410    -0.0173850
  C       -1.2536230    -0.2748500     0.0109180
  C        0.0302288    -0.8335718     0.0032763
  C        1.1983270     1.1549650    -0.0097610
  C       -1.2241940     1.1288950     0.0124220
  C       -0.0217590     1.8354230    -0.0002870
  C       -2.5623340    -1.0168010    -0.0065280
  H       -0.0261220    -2.0543070     0.0007630
  H        2.1405510     1.6994190    -0.0171620
  H       -2.1632860     1.6774730     0.0209780
  H       -0.0275340     2.9214870    -0.0002680
  H        3.1916030    -0.4398890    -0.4234570
  H        2.7260810    -1.2141090     0.9696670
  H        2.3592330    -1.8699500    -0.5112020
  H       -2.4267910    -2.0731080     0.2370320
  H       -3.2605850    -0.5864750     0.7158300
  H       -3.0261010    -0.9534780    -0.9957790
units angstrom
no_reorient  #important for SAPT in psi4, default
symmetry c1  #important for SAPT in psi4, default
}

set PROPERTIES_ORIGIN ["COM"]
properties('MP2/aug-cc-pvtz', properties = ['dipole'])
--------------------------------------------------------------------------

    Molecular point group: c1
  Charge       = 1
  Multiplicity = 1
  Basis Set: AUG-CC-PVTZ
    Blend: AUG-CC-PVTZ
  Basis Set: (AUG-CC-PVTZ AUX)
    Blend: AUG-CC-PVTZ-JKFIT

    Orbital Energies [Eh]
    ---------------------

    Doubly Occupied:

       1A    -15.895046     2A    -11.451417     3A    -11.400927
       4A    -11.400493     5A    -11.399626     6A    -11.389554
       7A    -11.380193     8A    -11.352947     9A     -1.510039
      10A     -1.328324    11A     -1.201536    12A     -1.185793
      13A     -1.086330    14A     -0.995384    15A     -0.991897
      16A     -0.956057    17A     -0.923801    18A     -0.884980
      19A     -0.820850    20A     -0.794668    21A     -0.741701
      22A     -0.718275    23A     -0.712391    24A     -0.672844
      25A     -0.664185    26A     -0.662284    27A     -0.626436
      28A     -0.512533    29A     -0.479560

  @DF-RHF Final Energy:  -325.21341021879414

   => Energetics <=

    Nuclear Repulsion Energy =            355.4469857357379396
    One-Electron Energy =               -1133.0406492143767991
    Two-Electron Energy =                 452.3802532598447215
    Total Energy =                       -325.2134102187941380
  Basis Set: (AUG-CC-PVTZ AUX)
    Blend: AUG-CC-PVTZ-RI
    Molecular point group: c1

    Geometry (in Angstrom), charge = 1, multiplicity = 1:

       Center              X                  Y                   Z               Mass
    ------------   -----------------  -----------------  -----------------  -----------------
         N            2.420462270112    -1.025645632144     0.008776106197    14.003074004430
         C            1.134319270112    -0.273226632144    -0.017715893803    12.000000000000
         C           -1.265666729888    -0.315935632144     0.010587106197    12.000000000000
         C            0.018185070112    -0.874657432144     0.002945406197    12.000000000000
         C            1.186283270112     1.113879367856    -0.010091893803    12.000000000000
         C           -1.236237729888     1.087809367856     0.012091106197    12.000000000000
         C           -0.033802729888     1.794337367856    -0.000617893803    12.000000000000
         C           -2.574377729888    -1.057886632144    -0.006858893803    12.000000000000
         H           -0.038165729888    -2.095392632144     0.000432106197     1.007825032230
         H            2.128507270112     1.658333367856    -0.017492893803     1.007825032230
         H           -2.175329729888     1.636387367856     0.020647106197     1.007825032230
         H           -0.039577729888     2.880401367856    -0.000598893803     1.007825032230
         H            3.179559270112    -0.480974632144    -0.423787893803     1.007825032230
         H            2.714037270112    -1.255194632144     0.969336106197     1.007825032230
         H            2.347189270112    -1.911035632144    -0.511532893803     1.007825032230
         H           -2.438834729888    -2.114193632144     0.236701106197     1.007825032230
         H           -3.272628729888    -0.627560632144     0.715499106197     1.007825032230
         H           -3.038144729888    -0.994563632144    -0.996109893803     1.007825032230

  Basis Set: AUG-CC-PVTZ
    Blend: AUG-CC-PVTZ
  Basis Set: (AUG-CC-PVTZ AUX)
    Blend: AUG-CC-PVTZ-JKFIT
	 Reference Energy          =    -325.2134102187941380 [Eh]
	 Singles Energy            =      -0.0000000000000000 [Eh]
	 Same-Spin Energy          =      -0.3536797078846589 [Eh]
	 Opposite-Spin Energy      =      -1.1496736060300989 [Eh]
	 Correlation Energy        =      -1.5033533139147579 [Eh]
	 Total Energy              =    -326.7167635327089101 [Eh]

	 ================> DF-SCS-MP2 Energies <==================
	-----------------------------------------------------------
	 SCS Same-Spin Scale       =       0.3333333333333333 [-]
	 SCS Opposite-Spin Scale   =       1.2000000000000000 [-]
	 SCS Same-Spin Energy      =      -0.1178932359615529 [Eh]
	 SCS Opposite-Spin Energy  =      -1.3796083272361186 [Eh]
	 SCS Correlation Energy    =      -1.4975015631976716 [Eh]
	 SCS Total Energy          =    -326.7109117819917969 [Eh]
	-----------------------------------------------------------

  Dipole Moment: [D]
     X:     7.1801      Y:    -3.2975      Z:     0.0367     Total:     7.9011

*** Psi4 exiting successfully. Buy a developer a beer!
