                               Psi4 1.3.2 release

  ==> Input File <==

--------------------------------------------------------------------------
#psi4
#
memory 32 gb

molecule  {
1 1
  N        2.4325060    -0.9845600     0.0091070
  C        1.1463630    -0.2321410    -0.0173850
  C       -1.2536230    -0.2748500     0.0109180
  C       -0.0352110    -0.9646830     0.0005950
  C        1.1983270     1.1549650    -0.0097610
  C       -1.2241940     1.1288950     0.0124220
  C       -0.0217590     1.8354230    -0.0002870
  C       -2.5623340    -1.0168010    -0.0065280
  H       -0.0261220    -2.0543070     0.0007630
  H        2.1405510     1.6994190    -0.0171620
  H       -2.1632860     1.6774730     0.0209780
  H       -0.0275340     2.9214870    -0.0002680
  H        3.2444901    -0.4501325    -0.3301206
  H        2.7260810    -1.2141090     0.9696670
  H        2.3592330    -1.8699500    -0.5112020
  H       -2.4267910    -2.0731080     0.2370320
  H       -3.2605850    -0.5864750     0.7158300
  H       -3.0261010    -0.9534780    -0.9957790
units angstrom
no_reorient  #important for SAPT in psi4, default
symmetry c1  #important for SAPT in psi4, default
}

set PROPERTIES_ORIGIN ["COM"]
properties('MP2/aug-cc-pvtz', properties = ['dipole'])
--------------------------------------------------------------------------

    Molecular point group: c1
  Charge       = 1
  Multiplicity = 1
  Basis Set: AUG-CC-PVTZ
    Blend: AUG-CC-PVTZ
  Basis Set: (AUG-CC-PVTZ AUX)
    Blend: AUG-CC-PVTZ-JKFIT

    Orbital Energies [Eh]
    ---------------------

    Doubly Occupied:

       1A    -15.892856     2A    -11.464291     3A    -11.404093
       4A    -11.402617     5A    -11.399609     6A    -11.391386
       7A    -11.381861     8A    -11.348612     9A     -1.506827
      10A     -1.312688    11A     -1.201178    12A     -1.175137
      13A     -1.082712    14A     -1.001428    15A     -0.988492
      16A     -0.946385    17A     -0.925054    18A     -0.871912
      19A     -0.827867    20A     -0.792254    21A     -0.753147
      22A     -0.729021    23A     -0.706993    24A     -0.677894
      25A     -0.651562    26A     -0.650923    27A     -0.643512
      28A     -0.500528    29A     -0.483938

  @DF-RHF Final Energy:  -325.24032300898790

   => Energetics <=

    Nuclear Repulsion Energy =            353.2034497694168635
    One-Electron Energy =               -1128.6579931480941923
    Two-Electron Energy =                 450.2142203696893716
    Total Energy =                       -325.2403230089879003
  Basis Set: (AUG-CC-PVTZ AUX)
    Blend: AUG-CC-PVTZ-RI
    Molecular point group: c1

    Geometry (in Angstrom), charge = 1, multiplicity = 1:

       Center              X                  Y                   Z               Mass
    ------------   -----------------  -----------------  -----------------  -----------------
         N            2.427234732064    -1.010993164980     0.008203471093    14.003074004430
         C            1.141091732064    -0.258574164980    -0.018288528907    12.000000000000
         C           -1.258894267936    -0.301283164980     0.010014471093    12.000000000000
         C           -0.040482267936    -0.991116164980    -0.000308528907    12.000000000000
         C            1.193055732064     1.128531835020    -0.010664528907    12.000000000000
         C           -1.229465267936     1.102461835020     0.011518471093    12.000000000000
         C           -0.027030267936     1.808989835020    -0.001190528907    12.000000000000
         C           -2.567605267936    -1.043234164980    -0.007431528907    12.000000000000
         H           -0.031393267936    -2.080740164980    -0.000140528907     1.007825032230
         H            2.135279732064     1.672985835020    -0.018065528907     1.007825032230
         H           -2.168557267936     1.651039835020     0.020074471093     1.007825032230
         H           -0.032805267936     2.895053835020    -0.001171528907     1.007825032230
         H            3.239218832064    -0.476565664980    -0.331024128907     1.007825032230
         H            2.720809732064    -1.240542164980     0.968763471093     1.007825032230
         H            2.353961732064    -1.896383164980    -0.512105528907     1.007825032230
         H           -2.432062267936    -2.099541164980     0.236128471093     1.007825032230
         H           -3.265856267936    -0.612908164980     0.714926471093     1.007825032230
         H           -3.031372267936    -0.979911164980    -0.996682528907     1.007825032230

  Basis Set: AUG-CC-PVTZ
    Blend: AUG-CC-PVTZ
  Basis Set: (AUG-CC-PVTZ AUX)
    Blend: AUG-CC-PVTZ-JKFIT
	 Reference Energy          =    -325.2403230089879003 [Eh]
	 Singles Energy            =      -0.0000000000000000 [Eh]
	 Same-Spin Energy          =      -0.3530981135941162 [Eh]
	 Opposite-Spin Energy      =      -1.1489333092033069 [Eh]
	 Correlation Energy        =      -1.5020314227974232 [Eh]
	 Total Energy              =    -326.7423544317853157 [Eh]

	 ================> DF-SCS-MP2 Energies <==================
	-----------------------------------------------------------
	 SCS Same-Spin Scale       =       0.3333333333333333 [-]
	 SCS Opposite-Spin Scale   =       1.2000000000000000 [-]
	 SCS Same-Spin Energy      =      -0.1176993711980387 [Eh]
	 SCS Opposite-Spin Energy  =      -1.3787199710439684 [Eh]
	 SCS Correlation Energy    =      -1.4964193422420071 [Eh]
	 SCS Total Energy          =    -326.7367423512299069 [Eh]
	-----------------------------------------------------------

  Dipole Moment: [D]
     X:     7.3449      Y:    -3.2072      Z:     0.1345     Total:     8.0157

*** Psi4 exiting successfully. Buy a developer a beer!
