                               Psi4 1.3.2 release

  ==> Input File <==

--------------------------------------------------------------------------
#psi4
#
memory 32 gb

molecule  {
1 1
  N        2.4325060    -0.9845600     0.0091070
  C        1.1463630    -0.2321410    -0.0173850
  C       -1.2536230    -0.2748500     0.0109180
  C       -0.0352110    -0.9646830     0.0005950
  C        1.1983270     1.1549650    -0.0097610
  C       -1.2241940     1.1288950     0.0124220
  C       -0.0217590     1.8354230    -0.0002870
  C       -2.5623340    -1.0168010    -0.0065280
  H       -0.0261220    -2.0543070     0.0007630
  H        2.1405510     1.6994190    -0.0171620
  H       -2.1632860     1.6774730     0.0209780
  H       -0.0275340     2.9214870    -0.0002680
  H        3.3390626    -0.3340831    -0.5074854
  H        2.7260810    -1.2141090     0.9696670
  H        2.3592330    -1.8699500    -0.5112020
  H       -2.4267910    -2.0731080     0.2370320
  H       -3.2605850    -0.5864750     0.7158300
  H       -3.0261010    -0.9534780    -0.9957790
units angstrom
no_reorient  #important for SAPT in psi4, default
symmetry c1  #important for SAPT in psi4, default
}

set PROPERTIES_ORIGIN ["COM"]
properties('MP2/aug-cc-pvtz', properties = ['dipole'])
--------------------------------------------------------------------------

    Molecular point group: c1
  Charge       = 1
  Multiplicity = 1
  Basis Set: AUG-CC-PVTZ
    Blend: AUG-CC-PVTZ
  Basis Set: (AUG-CC-PVTZ AUX)
    Blend: AUG-CC-PVTZ-JKFIT

    Orbital Energies [Eh]
    ---------------------

    Doubly Occupied:

       1A    -15.900772     2A    -11.461834     3A    -11.402563
       4A    -11.401103     5A    -11.398475     6A    -11.390433
       7A    -11.380625     8A    -11.347793     9A     -1.482081
      10A     -1.309026    11A     -1.199569    12A     -1.170003
      13A     -1.081150    14A     -0.998857    15A     -0.971590
      16A     -0.940660    17A     -0.893224    18A     -0.859476
      19A     -0.823962    20A     -0.785960    21A     -0.751783
      22A     -0.727872    23A     -0.705974    24A     -0.676748
      25A     -0.650217    26A     -0.649130    27A     -0.642459
      28A     -0.499033    29A     -0.482755

  @DF-RHF Final Energy:  -325.21400048056461

   => Energetics <=

    Nuclear Repulsion Energy =            352.3702912781372447
    One-Electron Energy =               -1127.1983285345131662
    Two-Electron Energy =                 449.6140367758112575
    Total Energy =                       -325.2140004805646072
  Basis Set: (AUG-CC-PVTZ AUX)
    Blend: AUG-CC-PVTZ-RI
    Molecular point group: c1

    Geometry (in Angstrom), charge = 1, multiplicity = 1:

       Center              X                  Y                   Z               Mass
    ------------   -----------------  -----------------  -----------------  -----------------
         N            2.426352872655    -1.012075289862     0.009857343179    14.003074004430
         C            1.140209872655    -0.259656289862    -0.016634656821    12.000000000000
         C           -1.259776127345    -0.302365289862     0.011668343179    12.000000000000
         C           -0.041364127345    -0.992198289862     0.001345343179    12.000000000000
         C            1.192173872655     1.127449710138    -0.009010656821    12.000000000000
         C           -1.230347127345     1.101379710138     0.013172343179    12.000000000000
         C           -0.027912127345     1.807907710138     0.000463343179    12.000000000000
         C           -2.568487127345    -1.044316289862    -0.005777656821    12.000000000000
         H           -0.032275127345    -2.081822289862     0.001513343179     1.007825032230
         H            2.134397872655     1.671903710138    -0.016411656821     1.007825032230
         H           -2.169439127345     1.649957710138     0.021728343179     1.007825032230
         H           -0.033687127345     2.893971710138     0.000482343179     1.007825032230
         H            3.332909472655    -0.361598389862    -0.506735056821     1.007825032230
         H            2.719927872655    -1.241624289862     0.970417343179     1.007825032230
         H            2.353079872655    -1.897465289862    -0.510451656821     1.007825032230
         H           -2.432944127345    -2.100623289862     0.237782343179     1.007825032230
         H           -3.266738127345    -0.613990289862     0.716580343179     1.007825032230
         H           -3.032254127345    -0.980993289862    -0.995028656821     1.007825032230

  Basis Set: AUG-CC-PVTZ
    Blend: AUG-CC-PVTZ
  Basis Set: (AUG-CC-PVTZ AUX)
    Blend: AUG-CC-PVTZ-JKFIT
	 Reference Energy          =    -325.2140004805646072 [Eh]
	 Singles Energy            =      -0.0000000000000000 [Eh]
	 Same-Spin Energy          =      -0.3543734900857001 [Eh]
	 Opposite-Spin Energy      =      -1.1529390052572710 [Eh]
	 Correlation Energy        =      -1.5073124953429711 [Eh]
	 Total Energy              =    -326.7213129759075514 [Eh]

	 ================> DF-SCS-MP2 Energies <==================
	-----------------------------------------------------------
	 SCS Same-Spin Scale       =       0.3333333333333333 [-]
	 SCS Opposite-Spin Scale   =       1.2000000000000000 [-]
	 SCS Same-Spin Energy      =      -0.1181244966952334 [Eh]
	 SCS Opposite-Spin Energy  =      -1.3835268063087252 [Eh]
	 SCS Correlation Energy    =      -1.5016513030039584 [Eh]
	 SCS Total Energy          =    -326.7156517835685463 [Eh]
	-----------------------------------------------------------

  Dipole Moment: [D]
     X:     7.5242      Y:    -3.0698      Z:    -0.0905     Total:     8.1268

*** Psi4 exiting successfully. Buy a developer a beer!
