                               Psi4 1.3.2 release

  ==> Input File <==

--------------------------------------------------------------------------
#psi4
#
memory 32 gb

molecule  {
1 1
  N        2.4325060    -0.9845600     0.0091070
  C        1.1463630    -0.2321410    -0.0173850
  C       -1.2536230    -0.2748500     0.0109180
  C       -0.0352110    -0.9646830     0.0005950
  C        1.1983270     1.1549650    -0.0097610
  C       -1.2241940     1.1288950     0.0124220
  C       -0.0217590     1.8354230    -0.0002870
  C       -2.5623340    -1.0168010    -0.0065280
  H       -0.0261220    -2.0543070     0.0007630
  H        2.1405510     1.6994190    -0.0171620
  H       -2.1632860     1.6774730     0.0209780
  H       -0.0275340     2.9214870    -0.0002680
  H        3.1916030    -0.4398890    -0.4234570
  H        2.7260810    -1.2141090     0.9696670
  H        2.3592330    -1.8699500    -0.5112020
  H       -2.4267910    -2.0731080     0.2370320
  H       -3.2605850    -0.5864750     0.7158300
  H       -3.0261010    -0.9534780    -0.9957790
units angstrom
no_reorient  #important for SAPT in psi4, default
symmetry c1  #important for SAPT in psi4, default
}

set PROPERTIES_ORIGIN ["COM"]
properties('MP2/aug-cc-pvtz', properties = ['dipole'])
--------------------------------------------------------------------------

    Molecular point group: c1
  Charge       = 1
  Multiplicity = 1
  Basis Set: AUG-CC-PVTZ
    Blend: AUG-CC-PVTZ
  Basis Set: (AUG-CC-PVTZ AUX)
    Blend: AUG-CC-PVTZ-JKFIT

    Orbital Energies [Eh]
    ---------------------

    Doubly Occupied:

       1A    -15.892747     2A    -11.463699     3A    -11.404319
       4A    -11.402443     5A    -11.399604     6A    -11.391626
       7A    -11.382032     8A    -11.348659     9A     -1.506684
      10A     -1.312497    11A     -1.201260    12A     -1.174475
      13A     -1.082895    14A     -1.001751    15A     -0.984179
      16A     -0.953583    17A     -0.925804    18A     -0.870487
      19A     -0.827246    20A     -0.791941    21A     -0.753284
      22A     -0.729151    23A     -0.707109    24A     -0.678033
      25A     -0.651512    26A     -0.651133    27A     -0.643614
      28A     -0.500770    29A     -0.484115

  @DF-RHF Final Energy:  -325.24166403611844

   => Energetics <=

    Nuclear Repulsion Energy =            353.2811767659018187
    One-Electron Energy =               -1128.8123820763785261
    Two-Electron Energy =                 450.2895412743582710
    Total Energy =                       -325.2416640361184363
  Basis Set: (AUG-CC-PVTZ AUX)
    Blend: AUG-CC-PVTZ-RI
    Molecular point group: c1

    Geometry (in Angstrom), charge = 1, multiplicity = 1:

       Center              X                  Y                   Z               Mass
    ------------   -----------------  -----------------  -----------------  -----------------
         N            2.427727887969    -1.011088682460     0.009073804251    14.003074004430
         C            1.141584887969    -0.258669682460    -0.017418195749    12.000000000000
         C           -1.258401112031    -0.301378682460     0.010884804251    12.000000000000
         C           -0.039989112031    -0.991211682460     0.000561804251    12.000000000000
         C            1.193548887969     1.128436317540    -0.009794195749    12.000000000000
         C           -1.228972112031     1.102366317540     0.012388804251    12.000000000000
         C           -0.026537112031     1.808894317540    -0.000320195749    12.000000000000
         C           -2.567112112031    -1.043329682460    -0.006561195749    12.000000000000
         H           -0.030900112031    -2.080835682460     0.000729804251     1.007825032230
         H            2.135772887969     1.672890317540    -0.017195195749     1.007825032230
         H           -2.168064112031     1.650944317540     0.020944804251     1.007825032230
         H           -0.032312112031     2.894958317540    -0.000301195749     1.007825032230
         H            3.186824887969    -0.466417682460    -0.423490195749     1.007825032230
         H            2.721302887969    -1.240637682460     0.969633804251     1.007825032230
         H            2.354454887969    -1.896478682460    -0.511235195749     1.007825032230
         H           -2.431569112031    -2.099636682460     0.236998804251     1.007825032230
         H           -3.265363112031    -0.613003682460     0.715796804251     1.007825032230
         H           -3.030879112031    -0.980006682460    -0.995812195749     1.007825032230

  Basis Set: AUG-CC-PVTZ
    Blend: AUG-CC-PVTZ
  Basis Set: (AUG-CC-PVTZ AUX)
    Blend: AUG-CC-PVTZ-JKFIT
	 Reference Energy          =    -325.2416640361184363 [Eh]
	 Singles Energy            =      -0.0000000000000000 [Eh]
	 Same-Spin Energy          =      -0.3530703178363324 [Eh]
	 Opposite-Spin Energy      =      -1.1489421006622120 [Eh]
	 Correlation Energy        =      -1.5020124184985444 [Eh]
	 Total Energy              =    -326.7436764546170025 [Eh]

	 ================> DF-SCS-MP2 Energies <==================
	-----------------------------------------------------------
	 SCS Same-Spin Scale       =       0.3333333333333333 [-]
	 SCS Opposite-Spin Scale   =       1.2000000000000000 [-]
	 SCS Same-Spin Energy      =      -0.1176901059454441 [Eh]
	 SCS Opposite-Spin Energy  =      -1.3787305207946543 [Eh]
	 SCS Correlation Energy    =      -1.4964206267400983 [Eh]
	 SCS Total Energy          =    -326.7380846628585118 [Eh]
	-----------------------------------------------------------

  Dipole Moment: [D]
     X:     7.2844      Y:    -3.2028      Z:     0.0408     Total:     7.9575

*** Psi4 exiting successfully. Buy a developer a beer!
