                               Psi4 1.3.2 release

  ==> Input File <==

--------------------------------------------------------------------------
#psi4
#
memory 32 gb

molecule  {
1 1
  N        2.4325060    -0.9845600     0.0091070
  C        1.1463630    -0.2321410    -0.0173850
  C       -1.2536230    -0.2748500     0.0109180
  C       -0.0863041    -1.0479770    -0.0011315
  C        1.1983270     1.1549650    -0.0097610
  C       -1.2241940     1.1288950     0.0124220
  C       -0.0217590     1.8354230    -0.0002870
  C       -2.5623340    -1.0168010    -0.0065280
  H       -0.0261220    -2.0543070     0.0007630
  H        2.1405510     1.6994190    -0.0171620
  H       -2.1632860     1.6774730     0.0209780
  H       -0.0275340     2.9214870    -0.0002680
  H        3.1916030    -0.4398890    -0.4234570
  H        2.7260810    -1.2141090     0.9696670
  H        2.3592330    -1.8699500    -0.5112020
  H       -2.4267910    -2.0731080     0.2370320
  H       -3.2605850    -0.5864750     0.7158300
  H       -3.0261010    -0.9534780    -0.9957790
units angstrom
no_reorient  #important for SAPT in psi4, default
symmetry c1  #important for SAPT in psi4, default
}

set PROPERTIES_ORIGIN ["COM"]
properties('MP2/aug-cc-pvtz', properties = ['dipole'])
--------------------------------------------------------------------------

    Molecular point group: c1
  Charge       = 1
  Multiplicity = 1
  Basis Set: AUG-CC-PVTZ
    Blend: AUG-CC-PVTZ
  Basis Set: (AUG-CC-PVTZ AUX)
    Blend: AUG-CC-PVTZ-JKFIT

    Orbital Energies [Eh]
    ---------------------

    Doubly Occupied:

       1A    -15.891346     2A    -11.470683     3A    -11.407332
       4A    -11.404309     5A    -11.400957     6A    -11.393413
       7A    -11.383895     8A    -11.346122     9A     -1.504591
      10A     -1.305646    11A     -1.204222    12A     -1.166727
      13A     -1.080322    14A     -1.008358    15A     -0.979015
      16A     -0.952030    17A     -0.928757    18A     -0.864637
      19A     -0.839844    20A     -0.784691    21A     -0.762100
      22A     -0.731984    23A     -0.704959    24A     -0.682627
      25A     -0.650640    26A     -0.644788    27A     -0.637276
      28A     -0.493817    29A     -0.487794

  @DF-RHF Final Energy:  -325.22776227655197

   => Energetics <=

    Nuclear Repulsion Energy =            351.9901037957462222
    One-Electron Energy =               -1126.2099708002010630
    Two-Electron Energy =                 448.9921047279028699
    Total Energy =                       -325.2277622765519709
  Basis Set: (AUG-CC-PVTZ AUX)
    Blend: AUG-CC-PVTZ-RI
    Molecular point group: c1

    Geometry (in Angstrom), charge = 1, multiplicity = 1:

       Center              X                  Y                   Z               Mass
    ------------   -----------------  -----------------  -----------------  -----------------
         N            2.433400627490    -1.001840757287     0.009265493242    14.003074004430
         C            1.147257627490    -0.249421757287    -0.017226506758    12.000000000000
         C           -1.252728372510    -0.292130757287     0.011076493242    12.000000000000
         C           -0.085409472510    -1.065257757287    -0.000973006758    12.000000000000
         C            1.199221627490     1.137684242713    -0.009602506758    12.000000000000
         C           -1.223299372510     1.111614242713     0.012580493242    12.000000000000
         C           -0.020864372510     1.818142242713    -0.000128506758    12.000000000000
         C           -2.561439372510    -1.034081757287    -0.006369506758    12.000000000000
         H           -0.025227372510    -2.071587757287     0.000921493242     1.007825032230
         H            2.141445627490     1.682138242713    -0.017003506758     1.007825032230
         H           -2.162391372510     1.660192242713     0.021136493242     1.007825032230
         H           -0.026639372510     2.904206242713    -0.000109506758     1.007825032230
         H            3.192497627490    -0.457169757287    -0.423298506758     1.007825032230
         H            2.726975627490    -1.231389757287     0.969825493242     1.007825032230
         H            2.360127627490    -1.887230757287    -0.511043506758     1.007825032230
         H           -2.425896372510    -2.090388757287     0.237190493242     1.007825032230
         H           -3.259690372510    -0.603755757287     0.715988493242     1.007825032230
         H           -3.025206372510    -0.970758757287    -0.995620506758     1.007825032230

  Basis Set: AUG-CC-PVTZ
    Blend: AUG-CC-PVTZ
  Basis Set: (AUG-CC-PVTZ AUX)
    Blend: AUG-CC-PVTZ-JKFIT
	 Reference Energy          =    -325.2277622765519709 [Eh]
	 Singles Energy            =      -0.0000000000000000 [Eh]
	 Same-Spin Energy          =      -0.3529988541317022 [Eh]
	 Opposite-Spin Energy      =      -1.1501649340643429 [Eh]
	 Correlation Energy        =      -1.5031637881960451 [Eh]
	 Total Energy              =    -326.7309260647480187 [Eh]

	 ================> DF-SCS-MP2 Energies <==================
	-----------------------------------------------------------
	 SCS Same-Spin Scale       =       0.3333333333333333 [-]
	 SCS Opposite-Spin Scale   =       1.2000000000000000 [-]
	 SCS Same-Spin Energy      =      -0.1176662847105674 [Eh]
	 SCS Opposite-Spin Energy  =      -1.3801979208772115 [Eh]
	 SCS Correlation Energy    =      -1.4978642055877789 [Eh]
	 SCS Total Energy          =    -326.7256264821397735 [Eh]
	-----------------------------------------------------------

  Dipole Moment: [D]
     X:     7.3421      Y:    -3.1156      Z:     0.0443     Total:     7.9760

*** Psi4 exiting successfully. Buy a developer a beer!
