                               Psi4 1.3.2 release

  ==> Input File <==

--------------------------------------------------------------------------
#psi4
#
memory 32 gb

molecule  {
1 1
  N        2.4325060    -0.9845600     0.0091070
  C        1.1463630    -0.2321410    -0.0173850
  C       -1.2536230    -0.2748500     0.0109180
  C        0.0099461    -0.8780282     0.0023718
  C        1.1983270     1.1549650    -0.0097610
  C       -1.2241940     1.1288950     0.0124220
  C       -0.0217590     1.8354230    -0.0002870
  C       -2.5623340    -1.0168010    -0.0065280
  H       -0.0261220    -2.0543070     0.0007630
  H        2.1405510     1.6994190    -0.0171620
  H       -2.1632860     1.6774730     0.0209780
  H       -0.0275340     2.9214870    -0.0002680
  H        3.1916030    -0.4398890    -0.4234570
  H        2.7260810    -1.2141090     0.9696670
  H        2.3592330    -1.8699500    -0.5112020
  H       -2.4267910    -2.0731080     0.2370320
  H       -3.2605850    -0.5864750     0.7158300
  H       -3.0261010    -0.9534780    -0.9957790
units angstrom
no_reorient  #important for SAPT in psi4, default
symmetry c1  #important for SAPT in psi4, default
}

set PROPERTIES_ORIGIN ["COM"]
properties('MP2/aug-cc-pvtz', properties = ['dipole'])
--------------------------------------------------------------------------

    Molecular point group: c1
  Charge       = 1
  Multiplicity = 1
  Basis Set: AUG-CC-PVTZ
    Blend: AUG-CC-PVTZ
  Basis Set: (AUG-CC-PVTZ AUX)
    Blend: AUG-CC-PVTZ-JKFIT

    Orbital Energies [Eh]
    ---------------------

    Doubly Occupied:

       1A    -15.894238     2A    -11.455572     3A    -11.401586
       4A    -11.401185     5A    -11.399396     6A    -11.390155
       7A    -11.380637     8A    -11.351482     9A     -1.508880
      10A     -1.322234    11A     -1.200172    12A     -1.182842
      13A     -1.085285    14A     -0.996570    15A     -0.989819
      16A     -0.955197    17A     -0.924077    18A     -0.879770
      19A     -0.821257    20A     -0.795238    21A     -0.744091
      22A     -0.722711    23A     -0.710295    24A     -0.674118
      25A     -0.659550    26A     -0.659278    27A     -0.634314
      28A     -0.508532    29A     -0.480877

  @DF-RHF Final Energy:  -325.22955411255293

   => Energetics <=

    Nuclear Repulsion Energy =            354.6973807015252191
    One-Electron Energy =               -1131.5951561060662698
    Two-Electron Energy =                 451.6682212919881749
    Total Energy =                       -325.2295541125529326
  Basis Set: (AUG-CC-PVTZ AUX)
    Blend: AUG-CC-PVTZ-RI
    Molecular point group: c1

    Geometry (in Angstrom), charge = 1, multiplicity = 1:

       Center              X                  Y                   Z               Mass
    ------------   -----------------  -----------------  -----------------  -----------------
         N            2.422714207730    -1.020709748879     0.008876530577    14.003074004430
         C            1.136571207730    -0.268290748879    -0.017615469423    12.000000000000
         C           -1.263414792270    -0.310999748879     0.010687530577    12.000000000000
         C            0.000154307730    -0.914177948879     0.002141330577    12.000000000000
         C            1.188535207730     1.118815251121    -0.009991469423    12.000000000000
         C           -1.233985792270     1.092745251121     0.012191530577    12.000000000000
         C           -0.031550792270     1.799273251121    -0.000517469423    12.000000000000
         C           -2.572125792270    -1.052950748879    -0.006758469423    12.000000000000
         H           -0.035913792270    -2.090456748879     0.000532530577     1.007825032230
         H            2.130759207730     1.663269251121    -0.017392469423     1.007825032230
         H           -2.173077792270     1.641323251121     0.020747530577     1.007825032230
         H           -0.037325792270     2.885337251121    -0.000498469423     1.007825032230
         H            3.181811207730    -0.476038748879    -0.423687469423     1.007825032230
         H            2.716289207730    -1.250258748879     0.969436530577     1.007825032230
         H            2.349441207730    -1.906099748879    -0.511432469423     1.007825032230
         H           -2.436582792270    -2.109257748879     0.236801530577     1.007825032230
         H           -3.270376792270    -0.622624748879     0.715599530577     1.007825032230
         H           -3.035892792270    -0.989627748879    -0.996009469423     1.007825032230

  Basis Set: AUG-CC-PVTZ
    Blend: AUG-CC-PVTZ
  Basis Set: (AUG-CC-PVTZ AUX)
    Blend: AUG-CC-PVTZ-JKFIT
	 Reference Energy          =    -325.2295541125529326 [Eh]
	 Singles Energy            =      -0.0000000000000000 [Eh]
	 Same-Spin Energy          =      -0.3533995494249326 [Eh]
	 Opposite-Spin Energy      =      -1.1491043517202688 [Eh]
	 Correlation Energy        =      -1.5025039011452015 [Eh]
	 Total Energy              =    -326.7320580136981221 [Eh]

	 ================> DF-SCS-MP2 Energies <==================
	-----------------------------------------------------------
	 SCS Same-Spin Scale       =       0.3333333333333333 [-]
	 SCS Opposite-Spin Scale   =       1.2000000000000000 [-]
	 SCS Same-Spin Energy      =      -0.1177998498083109 [Eh]
	 SCS Opposite-Spin Energy  =      -1.3789252220643224 [Eh]
	 SCS Correlation Energy    =      -1.4967250718726333 [Eh]
	 SCS Total Energy          =    -326.7262791844255503 [Eh]
	-----------------------------------------------------------

  Dipole Moment: [D]
     X:     7.2163      Y:    -3.2731      Z:     0.0379     Total:     7.9240

*** Psi4 exiting successfully. Buy a developer a beer!
