                               Psi4 1.4a3.dev225

  ==> Input File <==

--------------------------------------------------------------------------
#psi4
#
memory 32 gb

molecule  {
1 1
  N       -2.4283840    -0.9794160    -0.0083510
  C       -1.1529900    -0.2336800     0.0170800
  C        1.2518020    -0.2721820    -0.0143110
  C        0.0325720    -0.9600410    -0.0018850
  C       -1.1926600     1.1553070     0.0124660
  C        1.2305980     1.1300670    -0.0135530
  C        0.0267990     1.8353860     0.0007220
  C        2.5121429    -0.9997795     0.0079928
  H        0.0173310    -2.0482160    -0.0066590
  H       -2.1350750     1.6966590     0.0194740
  H        2.1710470     1.6766600    -0.0258320
  H        0.0318520     2.9216190    -0.0004860
  H       -3.1892600    -0.4557660     0.4440390
  H       -2.7337660    -1.1857680    -0.9692710
  H       -2.3540760    -1.8789800     0.4839570
  H        2.4304730    -2.0404690    -0.3743800
  H        3.3081630    -0.5154690    -0.5984160
  H        2.9426300    -1.0948430     1.0303570
units angstrom
no_reorient  #important for SAPT in psi4, default
symmetry c1  #important for SAPT in psi4, default
}

set PROPERTIES_ORIGIN ["COM"]
properties('MP2/aug-cc-pvtz', properties = ['dipole'])
--------------------------------------------------------------------------

    Molecular point group: c1
  Charge       = 1
  Multiplicity = 1
  Basis Set: AUG-CC-PVTZ
    Blend: AUG-CC-PVTZ
  Basis Set: (AUG-CC-PVTZ AUX)
    Blend: AUG-CC-PVTZ-JKFIT

    Orbital Energies [Eh]
    ---------------------

    Doubly Occupied:

       1A    -15.894176     2A    -11.462669     3A    -11.403617
       4A    -11.401952     5A    -11.397252     6A    -11.391522
       7A    -11.382038     8A    -11.349676     9A     -1.511288
      10A     -1.313874    11A     -1.206149    12A     -1.175505
      13A     -1.083365    14A     -1.004208    15A     -0.984792
      16A     -0.955910    17A     -0.926756    18A     -0.872314
      19A     -0.829708    20A     -0.792210    21A     -0.754371
      22A     -0.733821    23A     -0.704356    24A     -0.675127
      25A     -0.657327    26A     -0.646662    27A     -0.638808
      28A     -0.500918    29A     -0.481742

  @DF-RHF Final Energy:  -325.23850389644406

   => Energetics <=

    Nuclear Repulsion Energy =            354.3814214729519563
    One-Electron Energy =               -1130.9756224310904145
    Two-Electron Energy =                 451.3556970616944000
    Total Energy =                       -325.2385038964440582
  Basis Set: (AUG-CC-PVTZ AUX)
    Blend: AUG-CC-PVTZ-RI
    Molecular point group: c1

    Geometry (in Angstrom), charge = 1, multiplicity = 1:

       Center              X                  Y                   Z               Mass
    ------------   -----------------  -----------------  -----------------  -----------------
         N           -2.419015812364    -1.009010727977    -0.008240034539    14.003074004430
         C           -1.143621812364    -0.263274727977     0.017190965461    12.000000000000
         C            1.261170187636    -0.301776727977    -0.014200034539    12.000000000000
         C            0.041940187636    -0.989635727977    -0.001774034539    12.000000000000
         C           -1.183291812364     1.125712272023     0.012576965461    12.000000000000
         C            1.239966187636     1.100472272023    -0.013442034539    12.000000000000
         C            0.036167187636     1.805791272023     0.000832965461    12.000000000000
         C            2.521511087636    -1.029374227977     0.008103765461    12.000000000000
         H            0.026699187636    -2.077810727977    -0.006548034539     1.007825032230
         H           -2.125706812364     1.667064272023     0.019584965461     1.007825032230
         H            2.180415187636     1.647065272023    -0.025721034539     1.007825032230
         H            0.041220187636     2.892024272023    -0.000375034539     1.007825032230
         H           -3.179891812364    -0.485360727977     0.444149965461     1.007825032230
         H           -2.724397812364    -1.215362727977    -0.969160034539     1.007825032230
         H           -2.344707812364    -1.908574727977     0.484067965461     1.007825032230
         H            2.439841187636    -2.070063727977    -0.374269034539     1.007825032230
         H            3.317531187636    -0.545063727977    -0.598305034539     1.007825032230
         H            2.951998187636    -1.124437727977     1.030467965461     1.007825032230

  Basis Set: AUG-CC-PVTZ
    Blend: AUG-CC-PVTZ
  Basis Set: (AUG-CC-PVTZ AUX)
    Blend: AUG-CC-PVTZ-JKFIT
	 Reference Energy          =    -325.2385038964440582 [Eh]
	 Singles Energy            =      -0.0000000000000000 [Eh]
	 Same-Spin Energy          =      -0.3536805767584409 [Eh]
	 Opposite-Spin Energy      =      -1.1493551069127235 [Eh]
	 Correlation Energy        =      -1.5030356836711645 [Eh]
	 Total Energy              =    -326.7415395801152158 [Eh]

	 ================> DF-SCS-MP2 Energies <==================
	-----------------------------------------------------------
	 SCS Same-Spin Scale       =       0.3333333333333333 [-]
	 SCS Opposite-Spin Scale   =       1.2000000000000000 [-]
	 SCS Same-Spin Energy      =      -0.1178935255861470 [Eh]
	 SCS Opposite-Spin Energy  =      -1.3792261282952680 [Eh]
	 SCS Correlation Energy    =      -1.4971196538814151 [Eh]
	 SCS Total Energy          =    -326.7356235503254993 [Eh]
	-----------------------------------------------------------

  Dipole Moment: [D]
     X:    -7.2925      Y:    -3.2510      Z:    -0.0337     Total:     7.9844

*** Psi4 exiting successfully. Buy a developer a beer!
