                               Psi4 1.3.2 release

  ==> Input File <==

--------------------------------------------------------------------------
#psi4
#
memory 32 gb

molecule  {
1 1
  N        2.4325060    -0.9845600     0.0091070
  C        1.1463630    -0.2321410    -0.0173850
  C       -1.2536230    -0.2748500     0.0109180
  C       -0.0118760    -0.9217497     0.0014776
  C        1.1983270     1.1549650    -0.0097610
  C       -1.2241940     1.1288950     0.0124220
  C       -0.0217590     1.8354230    -0.0002870
  C       -2.5623340    -1.0168010    -0.0065280
  H       -0.0261220    -2.0543070     0.0007630
  H        2.1405510     1.6994190    -0.0171620
  H       -2.1632860     1.6774730     0.0209780
  H       -0.0275340     2.9214870    -0.0002680
  H        3.1916030    -0.4398890    -0.4234570
  H        2.7260810    -1.2141090     0.9696670
  H        2.3592330    -1.8699500    -0.5112020
  H       -2.4267910    -2.0731080     0.2370320
  H       -3.2605850    -0.5864750     0.7158300
  H       -3.0261010    -0.9534780    -0.9957790
units angstrom
no_reorient  #important for SAPT in psi4, default
symmetry c1  #important for SAPT in psi4, default
}

set PROPERTIES_ORIGIN ["COM"]
properties('MP2/aug-cc-pvtz', properties = ['dipole'])
--------------------------------------------------------------------------

    Molecular point group: c1
  Charge       = 1
  Multiplicity = 1
  Basis Set: AUG-CC-PVTZ
    Blend: AUG-CC-PVTZ
  Basis Set: (AUG-CC-PVTZ AUX)
    Blend: AUG-CC-PVTZ-JKFIT

    Orbital Energies [Eh]
    ---------------------

    Doubly Occupied:

       1A    -15.893475     2A    -11.459714     3A    -11.402883
       4A    -11.401728     5A    -11.399369     6A    -11.390849
       7A    -11.381260     8A    -11.350047     9A     -1.507764
      10A     -1.316972    11A     -1.200311    12A     -1.178798
      13A     -1.084136    14A     -0.998936    15A     -0.986993
      16A     -0.954375    17A     -0.924767    18A     -0.874837
      19A     -0.823281    20A     -0.794402    21A     -0.748062
      22A     -0.726508    23A     -0.708552    24A     -0.675915
      25A     -0.655541    26A     -0.655175    27A     -0.640045
      28A     -0.504591    29A     -0.482408

  @DF-RHF Final Energy:  -325.23893850550110

   => Energetics <=

    Nuclear Repulsion Energy =            353.9745124114868986
    One-Electron Energy =               -1130.1835101248991577
    Two-Electron Energy =                 450.9700592079111630
    Total Energy =                       -325.2389385055010962
  Basis Set: (AUG-CC-PVTZ AUX)
    Blend: AUG-CC-PVTZ-RI
    Molecular point group: c1

    Geometry (in Angstrom), charge = 1, multiplicity = 1:

       Center              X                  Y                   Z               Mass
    ------------   -----------------  -----------------  -----------------  -----------------
         N            2.425137061092    -1.015855459729     0.008975811373    14.003074004430
         C            1.138994061092    -0.263436459729    -0.017516188627    12.000000000000
         C           -1.260991938908    -0.306145459729     0.010786811373    12.000000000000
         C           -0.019244938908    -0.953045159729     0.001346411373    12.000000000000
         C            1.190958061092     1.123669540271    -0.009892188627    12.000000000000
         C           -1.231562938908     1.097599540271     0.012290811373    12.000000000000
         C           -0.029127938908     1.804127540271    -0.000418188627    12.000000000000
         C           -2.569702938908    -1.048096459729    -0.006659188627    12.000000000000
         H           -0.033490938908    -2.085602459729     0.000631811373     1.007825032230
         H            2.133182061092     1.668123540271    -0.017293188627     1.007825032230
         H           -2.170654938908     1.646177540271     0.020846811373     1.007825032230
         H           -0.034902938908     2.890191540271    -0.000399188627     1.007825032230
         H            3.184234061092    -0.471184459729    -0.423588188627     1.007825032230
         H            2.718712061092    -1.245404459729     0.969535811373     1.007825032230
         H            2.351864061092    -1.901245459729    -0.511333188627     1.007825032230
         H           -2.434159938908    -2.104403459729     0.236900811373     1.007825032230
         H           -3.267953938908    -0.617770459729     0.715698811373     1.007825032230
         H           -3.033469938908    -0.984773459729    -0.995910188627     1.007825032230

  Basis Set: AUG-CC-PVTZ
    Blend: AUG-CC-PVTZ
  Basis Set: (AUG-CC-PVTZ AUX)
    Blend: AUG-CC-PVTZ-JKFIT
	 Reference Energy          =    -325.2389385055010962 [Eh]
	 Singles Energy            =      -0.0000000000000000 [Eh]
	 Same-Spin Energy          =      -0.3531998335135978 [Eh]
	 Opposite-Spin Energy      =      -1.1488535623847942 [Eh]
	 Correlation Energy        =      -1.5020533958983919 [Eh]
	 Total Energy              =    -326.7409919013994681 [Eh]

	 ================> DF-SCS-MP2 Energies <==================
	-----------------------------------------------------------
	 SCS Same-Spin Scale       =       0.3333333333333333 [-]
	 SCS Opposite-Spin Scale   =       1.2000000000000000 [-]
	 SCS Same-Spin Energy      =      -0.1177332778378659 [Eh]
	 SCS Opposite-Spin Energy  =      -1.3786242748617530 [Eh]
	 SCS Correlation Energy    =      -1.4963575526996189 [Eh]
	 SCS Total Energy          =    -326.7352960582007313 [Eh]
	-----------------------------------------------------------

  Dipole Moment: [D]
     X:     7.2512      Y:    -3.2409      Z:     0.0393     Total:     7.9426

*** Psi4 exiting successfully. Buy a developer a beer!
