                               Psi4 1.3.2 release

  ==> Input File <==

--------------------------------------------------------------------------
#psi4
#
memory 32 gb

molecule  {
1 1
  N        2.4325060    -0.9845600     0.0091070
  C        1.1449777    -0.2344781     0.0345627
  C       -1.2536230    -0.2748500     0.0109180
  C       -0.0352110    -0.9646830     0.0005950
  C        1.1983270     1.1549650    -0.0097610
  C       -1.2241940     1.1288950     0.0124220
  C       -0.0217590     1.8354230    -0.0002870
  C       -2.5623340    -1.0168010    -0.0065280
  H       -0.0261220    -2.0543070     0.0007630
  H        2.1405510     1.6994190    -0.0171620
  H       -2.1632860     1.6774730     0.0209780
  H       -0.0275340     2.9214870    -0.0002680
  H        3.1916030    -0.4398890    -0.4234570
  H        2.7260810    -1.2141090     0.9696670
  H        2.3592330    -1.8699500    -0.5112020
  H       -2.4267910    -2.0731080     0.2370320
  H       -3.2605850    -0.5864750     0.7158300
  H       -3.0261010    -0.9534780    -0.9957790
units angstrom
no_reorient  #important for SAPT in psi4, default
symmetry c1  #important for SAPT in psi4, default
}

set PROPERTIES_ORIGIN ["COM"]
properties('MP2/aug-cc-pvtz', properties = ['dipole'])
--------------------------------------------------------------------------

    Molecular point group: c1
  Charge       = 1
  Multiplicity = 1
  Basis Set: AUG-CC-PVTZ
    Blend: AUG-CC-PVTZ
  Basis Set: (AUG-CC-PVTZ AUX)
    Blend: AUG-CC-PVTZ-JKFIT

    Orbital Energies [Eh]
    ---------------------

    Doubly Occupied:

       1A    -15.892720     2A    -11.463879     3A    -11.404460
       4A    -11.402374     5A    -11.399535     6A    -11.391544
       7A    -11.381865     8A    -11.348613     9A     -1.506756
      10A     -1.312416    11A     -1.200857    12A     -1.174759
      13A     -1.082717    14A     -1.001603    15A     -0.984304
      16A     -0.953703    17A     -0.925711    18A     -0.870487
      19A     -0.827177    20A     -0.791857    21A     -0.753313
      22A     -0.728963    23A     -0.707058    24A     -0.677865
      25A     -0.652024    26A     -0.650563    27A     -0.643505
      28A     -0.500921    29A     -0.483686

  @DF-RHF Final Energy:  -325.24100509727867

   => Energetics <=

    Nuclear Repulsion Energy =            353.2739576901674923
    One-Electron Energy =               -1128.7994567533248755
    Two-Electron Energy =                 450.2844939658787666
    Total Energy =                       -325.2410050972786735
  Basis Set: (AUG-CC-PVTZ AUX)
    Blend: AUG-CC-PVTZ-RI
    Molecular point group: c1

    Geometry (in Angstrom), charge = 1, multiplicity = 1:

       Center              X                  Y                   Z               Mass
    ------------   -----------------  -----------------  -----------------  -----------------
         N            2.427881694374    -1.010829200073     0.003306180623    14.003074004430
         C            1.140353394374    -0.260747300073     0.028761880623    12.000000000000
         C           -1.258247305626    -0.301119200073     0.005117180623    12.000000000000
         C           -0.039835305626    -0.990952200073    -0.005205819377    12.000000000000
         C            1.193702694374     1.128695799927    -0.015561819377    12.000000000000
         C           -1.228818305626     1.102625799927     0.006621180623    12.000000000000
         C           -0.026383305626     1.809153799927    -0.006087819377    12.000000000000
         C           -2.566958305626    -1.043070200073    -0.012328819377    12.000000000000
         H           -0.030746305626    -2.080576200073    -0.005037819377     1.007825032230
         H            2.135926694374     1.673149799927    -0.022962819377     1.007825032230
         H           -2.167910305626     1.651203799927     0.015177180623     1.007825032230
         H           -0.032158305626     2.895217799927    -0.006068819377     1.007825032230
         H            3.186978694374    -0.466158200073    -0.429257819377     1.007825032230
         H            2.721456694374    -1.240378200073     0.963866180623     1.007825032230
         H            2.354608694374    -1.896219200073    -0.517002819377     1.007825032230
         H           -2.431415305626    -2.099377200073     0.231231180623     1.007825032230
         H           -3.265209305626    -0.612744200073     0.710029180623     1.007825032230
         H           -3.030725305626    -0.979747200073    -1.001579819377     1.007825032230

  Basis Set: AUG-CC-PVTZ
    Blend: AUG-CC-PVTZ
  Basis Set: (AUG-CC-PVTZ AUX)
    Blend: AUG-CC-PVTZ-JKFIT
	 Reference Energy          =    -325.2410050972786735 [Eh]
	 Singles Energy            =      -0.0000000000000000 [Eh]
	 Same-Spin Energy          =      -0.3530944710479906 [Eh]
	 Opposite-Spin Energy      =      -1.1490334074706334 [Eh]
	 Correlation Energy        =      -1.5021278785186241 [Eh]
	 Total Energy              =    -326.7431329757973231 [Eh]

	 ================> DF-SCS-MP2 Energies <==================
	-----------------------------------------------------------
	 SCS Same-Spin Scale       =       0.3333333333333333 [-]
	 SCS Opposite-Spin Scale   =       1.2000000000000000 [-]
	 SCS Same-Spin Energy      =      -0.1176981570159969 [Eh]
	 SCS Opposite-Spin Energy  =      -1.3788400889647601 [Eh]
	 SCS Correlation Energy    =      -1.4965382459807570 [Eh]
	 SCS Total Energy          =    -326.7375433432594036 [Eh]
	-----------------------------------------------------------

  Dipole Moment: [D]
     X:     7.2918      Y:    -3.2087      Z:    -0.0063     Total:     7.9665

*** Psi4 exiting successfully. Buy a developer a beer!
