                               Psi4 1.3.2 release

  ==> Input File <==

--------------------------------------------------------------------------
#psi4
#
memory 32 gb

molecule  {
1 1
  N        2.4325060    -0.9845600     0.0091070
  C        1.1463630    -0.2321410    -0.0173850
  C       -1.2800256    -0.2303480     0.0198748
  C       -0.0352110    -0.9646830     0.0005950
  C        1.1983270     1.1549650    -0.0097610
  C       -1.2241940     1.1288950     0.0124220
  C       -0.0217590     1.8354230    -0.0002870
  C       -2.5623340    -1.0168010    -0.0065280
  H       -0.0261220    -2.0543070     0.0007630
  H        2.1405510     1.6994190    -0.0171620
  H       -2.1632860     1.6774730     0.0209780
  H       -0.0275340     2.9214870    -0.0002680
  H        3.1916030    -0.4398890    -0.4234570
  H        2.7260810    -1.2141090     0.9696670
  H        2.3592330    -1.8699500    -0.5112020
  H       -2.4267910    -2.0731080     0.2370320
  H       -3.2605850    -0.5864750     0.7158300
  H       -3.0261010    -0.9534780    -0.9957790
units angstrom
no_reorient  #important for SAPT in psi4, default
symmetry c1  #important for SAPT in psi4, default
}

set PROPERTIES_ORIGIN ["COM"]
properties('MP2/aug-cc-pvtz', properties = ['dipole'])
--------------------------------------------------------------------------

    Molecular point group: c1
  Charge       = 1
  Multiplicity = 1
  Basis Set: AUG-CC-PVTZ
    Blend: AUG-CC-PVTZ
  Basis Set: (AUG-CC-PVTZ AUX)
    Blend: AUG-CC-PVTZ-JKFIT

    Orbital Energies [Eh]
    ---------------------

    Doubly Occupied:

       1A    -15.892684     2A    -11.464160     3A    -11.407367
       4A    -11.402495     5A    -11.399697     6A    -11.393494
       7A    -11.375956     8A    -11.348703     9A     -1.506763
      10A     -1.312224    11A     -1.201359    12A     -1.174912
      13A     -1.083105    14A     -1.005298    15A     -0.979862
      16A     -0.953635    17A     -0.928019    18A     -0.869161
      19A     -0.826526    20A     -0.791646    21A     -0.754863
      22A     -0.728898    23A     -0.707127    24A     -0.677639
      25A     -0.654015    26A     -0.650885    27A     -0.639634
      28A     -0.504339    29A     -0.481382

  @DF-RHF Final Energy:  -325.23830839627306

   => Energetics <=

    Nuclear Repulsion Energy =            353.2210630560163054
    One-Electron Energy =               -1128.6870479653357506
    Two-Electron Energy =                 450.2276765130463900
    Total Energy =                       -325.2383083962730552
  Basis Set: (AUG-CC-PVTZ AUX)
    Blend: AUG-CC-PVTZ-RI
    Molecular point group: c1

    Geometry (in Angstrom), charge = 1, multiplicity = 1:

       Center              X                  Y                   Z               Mass
    ------------   -----------------  -----------------  -----------------  -----------------
         N            2.430659302827    -1.016029628579     0.008079353076    14.003074004430
         C            1.144516302827    -0.263610628579    -0.018412646924    12.000000000000
         C           -1.281872297173    -0.261817628579     0.018847153076    12.000000000000
         C           -0.037057697173    -0.996152628579    -0.000432646924    12.000000000000
         C            1.196480302827     1.123495371421    -0.010788646924    12.000000000000
         C           -1.226040697173     1.097425371421     0.011394353076    12.000000000000
         C           -0.023605697173     1.803953371421    -0.001314646924    12.000000000000
         C           -2.564180697173    -1.048270628579    -0.007555646924    12.000000000000
         H           -0.027968697173    -2.085776628579    -0.000264646924     1.007825032230
         H            2.138704302827     1.667949371421    -0.018189646924     1.007825032230
         H           -2.165132697173     1.646003371421     0.019950353076     1.007825032230
         H           -0.029380697173     2.890017371421    -0.001295646924     1.007825032230
         H            3.189756302827    -0.471358628579    -0.424484646924     1.007825032230
         H            2.724234302827    -1.245578628579     0.968639353076     1.007825032230
         H            2.357386302827    -1.901419628579    -0.512229646924     1.007825032230
         H           -2.428637697173    -2.104577628579     0.236004353076     1.007825032230
         H           -3.262431697173    -0.617944628579     0.714802353076     1.007825032230
         H           -3.027947697173    -0.984947628579    -0.996806646924     1.007825032230

  Basis Set: AUG-CC-PVTZ
    Blend: AUG-CC-PVTZ
  Basis Set: (AUG-CC-PVTZ AUX)
    Blend: AUG-CC-PVTZ-JKFIT
	 Reference Energy          =    -325.2383083962730552 [Eh]
	 Singles Energy            =      -0.0000000000000000 [Eh]
	 Same-Spin Energy          =      -0.3531033457511791 [Eh]
	 Opposite-Spin Energy      =      -1.1491230925309506 [Eh]
	 Correlation Energy        =      -1.5022264382821295 [Eh]
	 Total Energy              =    -326.7405348345552056 [Eh]

	 ================> DF-SCS-MP2 Energies <==================
	-----------------------------------------------------------
	 SCS Same-Spin Scale       =       0.3333333333333333 [-]
	 SCS Opposite-Spin Scale   =       1.2000000000000000 [-]
	 SCS Same-Spin Energy      =      -0.1177011152503930 [Eh]
	 SCS Opposite-Spin Energy  =      -1.3789477110371406 [Eh]
	 SCS Correlation Energy    =      -1.4966488262875337 [Eh]
	 SCS Total Energy          =    -326.7349572225605812 [Eh]
	-----------------------------------------------------------

  Dipole Moment: [D]
     X:     7.3004      Y:    -3.2445      Z:     0.0348     Total:     7.9890

*** Psi4 exiting successfully. Buy a developer a beer!
