                               Psi4 1.3.2 release

  ==> Input File <==

--------------------------------------------------------------------------
#psi4
#
memory 32 gb

molecule  {
1 1
  N        2.4454358    -0.9619947     0.0095126
  C        1.1463630    -0.2321410    -0.0173850
  C       -1.2536230    -0.2748500     0.0109180
  C       -0.0352110    -0.9646830     0.0005950
  C        1.1983270     1.1549650    -0.0097610
  C       -1.2241940     1.1288950     0.0124220
  C       -0.0217590     1.8354230    -0.0002870
  C       -2.5623340    -1.0168010    -0.0065280
  H       -0.0261220    -2.0543070     0.0007630
  H        2.1405510     1.6994190    -0.0171620
  H       -2.1632860     1.6774730     0.0209780
  H       -0.0275340     2.9214870    -0.0002680
  H        3.1916030    -0.4398890    -0.4234570
  H        2.7260810    -1.2141090     0.9696670
  H        2.3592330    -1.8699500    -0.5112020
  H       -2.4267910    -2.0731080     0.2370320
  H       -3.2605850    -0.5864750     0.7158300
  H       -3.0261010    -0.9534780    -0.9957790
units angstrom
no_reorient  #important for SAPT in psi4, default
symmetry c1  #important for SAPT in psi4, default
}

set PROPERTIES_ORIGIN ["COM"]
properties('MP2/aug-cc-pvtz', properties = ['dipole'])
--------------------------------------------------------------------------

    Molecular point group: c1
  Charge       = 1
  Multiplicity = 1
  Basis Set: AUG-CC-PVTZ
    Blend: AUG-CC-PVTZ
  Basis Set: (AUG-CC-PVTZ AUX)
    Blend: AUG-CC-PVTZ-JKFIT

    Orbital Energies [Eh]
    ---------------------

    Doubly Occupied:

       1A    -15.892753     2A    -11.463748     3A    -11.403745
       4A    -11.402979     5A    -11.399859     6A    -11.391399
       7A    -11.382005     8A    -11.348793     9A     -1.506772
      10A     -1.312528    11A     -1.201202    12A     -1.174614
      13A     -1.082928    14A     -1.000980    15A     -0.986912
      16A     -0.953223    17A     -0.923281    18A     -0.871271
      19A     -0.827525    20A     -0.791942    21A     -0.752982
      22A     -0.729086    23A     -0.707199    24A     -0.677805
      25A     -0.651771    26A     -0.651207    27A     -0.643565
      28A     -0.500757    29A     -0.484099

  @DF-RHF Final Energy:  -325.24073945750104

   => Energetics <=

    Nuclear Repulsion Energy =            353.2676294940067123
    One-Electron Energy =               -1128.7828749372231414
    Two-Electron Energy =                 450.2745059857153365
    Total Energy =                       -325.2407394575010358
  Basis Set: (AUG-CC-PVTZ AUX)
    Blend: AUG-CC-PVTZ-RI
    Molecular point group: c1

    Geometry (in Angstrom), charge = 1, multiplicity = 1:

       Center              X                  Y                   Z               Mass
    ------------   -----------------  -----------------  -----------------  -----------------
         N            2.438982496187    -0.991446954759     0.009426854499    14.003074004430
         C            1.139909696187    -0.261593254759    -0.017470745501    12.000000000000
         C           -1.260076303813    -0.304302254759     0.010832254499    12.000000000000
         C           -0.041664303813    -0.994135254759     0.000509254499    12.000000000000
         C            1.191873696187     1.125512745241    -0.009846745501    12.000000000000
         C           -1.230647303813     1.099442745241     0.012336254499    12.000000000000
         C           -0.028212303813     1.805970745241    -0.000372745501    12.000000000000
         C           -2.568787303813    -1.046253254759    -0.006613745501    12.000000000000
         H           -0.032575303813    -2.083759254759     0.000677254499     1.007825032230
         H            2.134097696187     1.669966745241    -0.017247745501     1.007825032230
         H           -2.169739303813     1.648020745241     0.020892254499     1.007825032230
         H           -0.033987303813     2.892034745241    -0.000353745501     1.007825032230
         H            3.185149696187    -0.469341254759    -0.423542745501     1.007825032230
         H            2.719627696187    -1.243561254759     0.969581254499     1.007825032230
         H            2.352779696187    -1.899402254759    -0.511287745501     1.007825032230
         H           -2.433244303813    -2.102560254759     0.236946254499     1.007825032230
         H           -3.267038303813    -0.615927254759     0.715744254499     1.007825032230
         H           -3.032554303813    -0.982930254759    -0.995864745501     1.007825032230

  Basis Set: AUG-CC-PVTZ
    Blend: AUG-CC-PVTZ
  Basis Set: (AUG-CC-PVTZ AUX)
    Blend: AUG-CC-PVTZ-JKFIT
	 Reference Energy          =    -325.2407394575010358 [Eh]
	 Singles Energy            =      -0.0000000000000000 [Eh]
	 Same-Spin Energy          =      -0.3530894771392197 [Eh]
	 Opposite-Spin Energy      =      -1.1489848944441441 [Eh]
	 Correlation Energy        =      -1.5020743715833638 [Eh]
	 Total Energy              =    -326.7428138290844117 [Eh]

	 ================> DF-SCS-MP2 Energies <==================
	-----------------------------------------------------------
	 SCS Same-Spin Scale       =       0.3333333333333333 [-]
	 SCS Opposite-Spin Scale   =       1.2000000000000000 [-]
	 SCS Same-Spin Energy      =      -0.1176964923797399 [Eh]
	 SCS Opposite-Spin Energy  =      -1.3787818733329729 [Eh]
	 SCS Correlation Energy    =      -1.4964783657127128 [Eh]
	 SCS Total Energy          =    -326.7372178232137685 [Eh]
	-----------------------------------------------------------

  Dipole Moment: [D]
     X:     7.2680      Y:    -3.2292      Z:     0.0409     Total:     7.9532

*** Psi4 exiting successfully. Buy a developer a beer!
