                               Psi4 1.3.2 release

  ==> Input File <==

--------------------------------------------------------------------------
#psi4
#
memory 32 gb

molecule  {
1 1
  N        2.4325060    -0.9845600     0.0091070
  C        1.1463630    -0.2321410    -0.0173850
  C       -1.2536230    -0.2748500     0.0109180
  C       -0.0352110    -0.9646830     0.0005950
  C        1.1983270     1.1549650    -0.0097610
  C       -1.2241940     1.1288950     0.0124220
  C       -0.0217590     1.8354230    -0.0002870
  C       -2.5623340    -1.0168010    -0.0065280
  H       -0.0261220    -2.0543070     0.0007630
  H        2.1405510     1.6994190    -0.0171620
  H       -2.1632860     1.6774730     0.0209780
  H       -0.0275340     2.9214870    -0.0002680
  H        3.1819629    -0.4387598    -0.4385792
  H        2.7260810    -1.2141090     0.9696670
  H        2.3592330    -1.8699500    -0.5112020
  H       -2.4267910    -2.0731080     0.2370320
  H       -3.2605850    -0.5864750     0.7158300
  H       -3.0261010    -0.9534780    -0.9957790
units angstrom
no_reorient  #important for SAPT in psi4, default
symmetry c1  #important for SAPT in psi4, default
}

set PROPERTIES_ORIGIN ["COM"]
properties('MP2/aug-cc-pvtz', properties = ['dipole'])
--------------------------------------------------------------------------

    Molecular point group: c1
  Charge       = 1
  Multiplicity = 1
  Basis Set: AUG-CC-PVTZ
    Blend: AUG-CC-PVTZ
  Basis Set: (AUG-CC-PVTZ AUX)
    Blend: AUG-CC-PVTZ-JKFIT

    Orbital Energies [Eh]
    ---------------------

    Doubly Occupied:

       1A    -15.892704     2A    -11.463608     3A    -11.404354
       4A    -11.402413     5A    -11.399604     6A    -11.391666
       7A    -11.382061     8A    -11.348669     9A     -1.506697
      10A     -1.312469    11A     -1.201277    12A     -1.174370
      13A     -1.082927    14A     -1.001832    15A     -0.983541
      16A     -0.955040    17A     -0.925527    18A     -0.870220
      19A     -0.827128    20A     -0.791866    21A     -0.753306
      22A     -0.729171    23A     -0.707129    24A     -0.678057
      25A     -0.651531    26A     -0.651138    27A     -0.643631
      28A     -0.500812    29A     -0.484146

  @DF-RHF Final Energy:  -325.24163627834446

   => Energetics <=

    Nuclear Repulsion Energy =            353.2953113865769410
    One-Electron Energy =               -1128.8401042135126318
    Two-Electron Energy =                 450.3031565485912324
    Total Energy =                       -325.2416362783444583
  Basis Set: (AUG-CC-PVTZ AUX)
    Blend: AUG-CC-PVTZ-RI
    Molecular point group: c1

    Geometry (in Angstrom), charge = 1, multiplicity = 1:

       Center              X                  Y                   Z               Mass
    ------------   -----------------  -----------------  -----------------  -----------------
         N            2.427817778930    -1.011099211902     0.009214814105    14.003074004430
         C            1.141674778930    -0.258680211902    -0.017277185895    12.000000000000
         C           -1.258311221070    -0.301389211902     0.011025814105    12.000000000000
         C           -0.039899221070    -0.991222211902     0.000702814105    12.000000000000
         C            1.193638778930     1.128425788098    -0.009653185895    12.000000000000
         C           -1.228882221070     1.102355788098     0.012529814105    12.000000000000
         C           -0.026447221070     1.808883788098    -0.000179185895    12.000000000000
         C           -2.567022221070    -1.043340211902    -0.006420185895    12.000000000000
         H           -0.030810221070    -2.080846211902     0.000870814105     1.007825032230
         H            2.135862778930     1.672879788098    -0.017054185895     1.007825032230
         H           -2.167974221070     1.650933788098     0.021085814105     1.007825032230
         H           -0.032222221070     2.894947788098    -0.000160185895     1.007825032230
         H            3.177274678930    -0.465299011902    -0.438471385895     1.007825032230
         H            2.721392778930    -1.240648211902     0.969774814105     1.007825032230
         H            2.354544778930    -1.896489211902    -0.511094185895     1.007825032230
         H           -2.431479221070    -2.099647211902     0.237139814105     1.007825032230
         H           -3.265273221070    -0.613014211902     0.715937814105     1.007825032230
         H           -3.030789221070    -0.980017211902    -0.995671185895     1.007825032230

  Basis Set: AUG-CC-PVTZ
    Blend: AUG-CC-PVTZ
  Basis Set: (AUG-CC-PVTZ AUX)
    Blend: AUG-CC-PVTZ-JKFIT
	 Reference Energy          =    -325.2416362783444583 [Eh]
	 Singles Energy            =      -0.0000000000000000 [Eh]
	 Same-Spin Energy          =      -0.3530762745324073 [Eh]
	 Opposite-Spin Energy      =      -1.1489593570581307 [Eh]
	 Correlation Energy        =      -1.5020356315905379 [Eh]
	 Total Energy              =    -326.7436719099350171 [Eh]

	 ================> DF-SCS-MP2 Energies <==================
	-----------------------------------------------------------
	 SCS Same-Spin Scale       =       0.3333333333333333 [-]
	 SCS Opposite-Spin Scale   =       1.2000000000000000 [-]
	 SCS Same-Spin Energy      =      -0.1176920915108024 [Eh]
	 SCS Opposite-Spin Energy  =      -1.3787512284697567 [Eh]
	 SCS Correlation Energy    =      -1.4964433199805591 [Eh]
	 SCS Total Energy          =    -326.7380795983250437 [Eh]
	-----------------------------------------------------------

  Dipole Moment: [D]
     X:     7.2734      Y:    -3.2026      Z:     0.0261     Total:     7.9473

*** Psi4 exiting successfully. Buy a developer a beer!
