                               Psi4 1.3.2 release

  ==> Input File <==

--------------------------------------------------------------------------
#psi4
#
memory 32 gb

molecule  {
1 1
  N        2.4325060    -0.9845600     0.0091070
  C        1.1463630    -0.2321410    -0.0173850
  C       -1.2536230    -0.2748500     0.0109180
  C       -0.0352110    -0.9646830     0.0005950
  C        1.1983270     1.1549650    -0.0097610
  C       -1.2241940     1.1288950     0.0124220
  C       -0.0217590     1.8354230    -0.0002870
  C       -2.5623340    -1.0168010    -0.0065280
  H       -0.0261220    -2.0543070     0.0007630
  H        2.1405510     1.6994190    -0.0171620
  H       -2.1632860     1.6774730     0.0209780
  H       -0.0275340     2.9214870    -0.0002680
  H        3.0441434    -0.5456949    -0.3394286
  H        2.7260810    -1.2141090     0.9696670
  H        2.3592330    -1.8699500    -0.5112020
  H       -2.4267910    -2.0731080     0.2370320
  H       -3.2605850    -0.5864750     0.7158300
  H       -3.0261010    -0.9534780    -0.9957790
units angstrom
no_reorient  #important for SAPT in psi4, default
symmetry c1  #important for SAPT in psi4, default
}

set PROPERTIES_ORIGIN ["COM"]
properties('MP2/aug-cc-pvtz', properties = ['dipole'])
--------------------------------------------------------------------------

    Molecular point group: c1
  Charge       = 1
  Multiplicity = 1
  Basis Set: AUG-CC-PVTZ
    Blend: AUG-CC-PVTZ
  Basis Set: (AUG-CC-PVTZ AUX)
    Blend: AUG-CC-PVTZ-JKFIT

    Orbital Energies [Eh]
    ---------------------

    Doubly Occupied:

       1A    -15.877939     2A    -11.465527     3A    -11.405962
       4A    -11.403808     5A    -11.400620     6A    -11.392698
       7A    -11.383376     8A    -11.349453     9A     -1.549434
      10A     -1.316927    11A     -1.203158    12A     -1.181177
      13A     -1.085256    14A     -1.025085    15A     -1.004281
      16A     -0.968154    17A     -0.940800    18A     -0.875346
      19A     -0.829528    20A     -0.795403    21A     -0.754684
      22A     -0.730213    23A     -0.708130    24A     -0.679202
      25A     -0.652993    26A     -0.652529    27A     -0.644662
      28A     -0.502374    29A     -0.485310

  @DF-RHF Final Energy:  -325.20175646691172

   => Energetics <=

    Nuclear Repulsion Energy =            354.4909058237821000
    One-Electron Energy =               -1130.8572623547377134
    Two-Electron Energy =                 451.1646000640438956
    Total Energy =                       -325.2017564669117178
  Basis Set: (AUG-CC-PVTZ AUX)
    Blend: AUG-CC-PVTZ-RI
    Molecular point group: c1

    Geometry (in Angstrom), charge = 1, multiplicity = 1:

       Center              X                  Y                   Z               Mass
    ------------   -----------------  -----------------  -----------------  -----------------
         N            2.429102903283    -1.010102075058     0.008290265324    14.003074004430
         C            1.142959903283    -0.257683075058    -0.018201734676    12.000000000000
         C           -1.257026096717    -0.300392075058     0.010101265324    12.000000000000
         C           -0.038614096717    -0.990225075058    -0.000221734676    12.000000000000
         C            1.194923903283     1.129422924942    -0.010577734676    12.000000000000
         C           -1.227597096717     1.103352924942     0.011605265324    12.000000000000
         C           -0.025162096717     1.809880924942    -0.001103734676    12.000000000000
         C           -2.565737096717    -1.042343075058    -0.007344734676    12.000000000000
         H           -0.029525096717    -2.079849075058    -0.000053734676     1.007825032230
         H            2.137147903283     1.673876924942    -0.017978734676     1.007825032230
         H           -2.166689096717     1.651930924942     0.020161265324     1.007825032230
         H           -0.030937096717     2.895944924942    -0.001084734676     1.007825032230
         H            3.040740303283    -0.571236975058    -0.340245334676     1.007825032230
         H            2.722677903283    -1.239651075058     0.968850265324     1.007825032230
         H            2.355829903283    -1.895492075058    -0.512018734676     1.007825032230
         H           -2.430194096717    -2.098650075058     0.236215265324     1.007825032230
         H           -3.263988096717    -0.612017075058     0.715013265324     1.007825032230
         H           -3.029504096717    -0.979020075058    -0.996595734676     1.007825032230

  Basis Set: AUG-CC-PVTZ
    Blend: AUG-CC-PVTZ
  Basis Set: (AUG-CC-PVTZ AUX)
    Blend: AUG-CC-PVTZ-JKFIT
	 Reference Energy          =    -325.2017564669117178 [Eh]
	 Singles Energy            =      -0.0000000000000000 [Eh]
	 Same-Spin Energy          =      -0.3520686854664684 [Eh]
	 Opposite-Spin Energy      =      -1.1461384121351521 [Eh]
	 Correlation Energy        =      -1.4982070976016204 [Eh]
	 Total Energy              =    -326.6999635645133253 [Eh]

	 ================> DF-SCS-MP2 Energies <==================
	-----------------------------------------------------------
	 SCS Same-Spin Scale       =       0.3333333333333333 [-]
	 SCS Opposite-Spin Scale   =       1.2000000000000000 [-]
	 SCS Same-Spin Energy      =      -0.1173562284888228 [Eh]
	 SCS Opposite-Spin Energy  =      -1.3753660945621824 [Eh]
	 SCS Correlation Energy    =      -1.4927223230510052 [Eh]
	 SCS Total Energy          =    -326.6944787899627158 [Eh]
	-----------------------------------------------------------

  Dipole Moment: [D]
     X:     7.0604      Y:    -3.3103      Z:     0.1563     Total:     7.7995

*** Psi4 exiting successfully. Buy a developer a beer!
