                               Psi4 1.4a3.dev225

  ==> Input File <==

--------------------------------------------------------------------------
#psi4
#
memory 32 gb

molecule  {
0 1
  N       -0.4697210     1.1445100    -0.2216410
  N        1.7892250     1.2839290     0.3484630
  C       -1.7857754     0.2024432    -0.0492603
  C        0.7850350     0.5381570    -0.1399480
  C       -0.5952140     2.4946130     0.3294290
  C        0.9870780    -0.7701080    -0.6316150
  C        3.3308620    -0.5454650    -0.0717700
  C       -1.7342750    -0.5947120     0.9884560
  C       -2.6794440     0.4585720    -0.9790390
  C        2.2640650    -1.3032160    -0.5830550
  C        3.0220600     0.7400440     0.3662130
  C       -2.8869950    -1.3690860     1.1220740
  C       -3.8377830    -0.3053550    -0.8293160
  C       -3.9434210    -1.2230030     0.2186750
  C        4.7300730    -1.0916580    -0.0030050
  H        0.1601300    -1.3363870    -1.0489480
  H       -0.4605330     2.5122530     1.4190480
  H       -1.5934070     2.8602250     0.0818210
  H        0.1591150     3.1409490    -0.1188450
  H       -0.9140430    -0.6937920     1.6961740
  H       -2.5719260     1.1603340    -1.8029750
  H        2.4420680    -2.3104690    -0.9583480
  H        3.8063450     1.3842980     0.7658560
  H       -2.9675220    -2.0774950     1.9434440
  H       -4.6536710    -0.1926670    -1.5394220
  H        5.0860610    -1.3967900    -0.9923270
  H        5.4219950    -0.3393960     0.3861000
  H        4.7833880    -1.9677830     0.6515600
  H       -4.8424050    -1.8242580     0.3291710
units angstrom
no_reorient  #important for SAPT in psi4, default
symmetry c1  #important for SAPT in psi4, default
}

set PROPERTIES_ORIGIN ["COM"]
properties('MP2/aug-cc-pvtz', properties = ['dipole'])
--------------------------------------------------------------------------

    Molecular point group: c1
  Charge       = 0
  Multiplicity = 1
  Basis Set: AUG-CC-PVTZ
    Blend: AUG-CC-PVTZ
  Basis Set: (AUG-CC-PVTZ AUX)
    Blend: AUG-CC-PVTZ-JKFIT

    Orbital Energies [Eh]
    ---------------------

    Doubly Occupied:

       1A    -15.560912     2A    -15.541078     3A    -11.300169
       4A    -11.274468     5A    -11.260404     6A    -11.249458
       7A    -11.249300     8A    -11.245556     9A    -11.242671
      10A    -11.237327    11A    -11.237153    12A    -11.236272
      13A    -11.224075    14A    -11.222974    15A    -11.221284
      16A     -1.268527    17A     -1.205213    18A     -1.157896
      19A     -1.083704    20A     -1.042283    21A     -1.031130
      22A     -1.018791    23A     -0.941055    24A     -0.891831
      25A     -0.852517    26A     -0.840651    27A     -0.825334
      28A     -0.784655    29A     -0.723135    30A     -0.679498
      31A     -0.665923    32A     -0.654970    33A     -0.637624
      34A     -0.621232    35A     -0.615527    36A     -0.601068
      37A     -0.583197    38A     -0.573957    39A     -0.571589
      40A     -0.555350    41A     -0.539409    42A     -0.528869
      43A     -0.527713    44A     -0.522651    45A     -0.515375
      46A     -0.505691    47A     -0.467398    48A     -0.408166
      49A     -0.403050    50A     -0.369070    51A     -0.356760
      52A     -0.350918    53A     -0.281804

  @DF-RHF Final Energy:  -609.49336446186283

   => Energetics <=

    Nuclear Repulsion Energy =            919.1486694358217164
    One-Electron Energy =               -2650.2707987937965299
    Two-Electron Energy =                1121.6287648961117611
    Total Energy =                       -609.4933644618629387
  Basis Set: (AUG-CC-PVTZ AUX)
    Blend: AUG-CC-PVTZ-RI
    Molecular point group: c1

    Geometry (in Angstrom), charge = 0, multiplicity = 1:

       Center              X                  Y                   Z               Mass
    ------------   -----------------  -----------------  -----------------  -----------------
         N           -0.440637310376     1.146070256243    -0.218857917141    14.003074004430
         N            1.818308689624     1.285489256243     0.351246082859    14.003074004430
         C           -1.756691710376     0.204003456243    -0.046477217141    12.000000000000
         C            0.814118689624     0.539717256243    -0.137164917141    12.000000000000
         C           -0.566130310376     2.496173256243     0.332212082859    12.000000000000
         C            1.016161689624    -0.768547743757    -0.628831917141    12.000000000000
         C            3.359945689624    -0.543904743757    -0.068986917141    12.000000000000
         C           -1.705191310376    -0.593151743757     0.991239082859    12.000000000000
         C           -2.650360310376     0.460132256243    -0.976255917141    12.000000000000
         C            2.293148689624    -1.301655743757    -0.580271917141    12.000000000000
         C            3.051143689624     0.741604256243     0.368996082859    12.000000000000
         C           -2.857911310376    -1.367525743757     1.124857082859    12.000000000000
         C           -3.808699310376    -0.303794743757    -0.826532917141    12.000000000000
         C           -3.914337310376    -1.221442743757     0.221458082859    12.000000000000
         C            4.759156689624    -1.090097743757    -0.000221917141    12.000000000000
         H            0.189213689624    -1.334826743757    -1.046164917141     1.007825032230
         H           -0.431449310376     2.513813256243     1.421831082859     1.007825032230
         H           -1.564323310376     2.861785256243     0.084604082859     1.007825032230
         H            0.188198689624     3.142509256243    -0.116061917141     1.007825032230
         H           -0.884959310376    -0.692231743757     1.698957082859     1.007825032230
         H           -2.542842310376     1.161894256243    -1.800191917141     1.007825032230
         H            2.471151689624    -2.308908743757    -0.955564917141     1.007825032230
         H            3.835428689624     1.385858256243     0.768639082859     1.007825032230
         H           -2.938438310376    -2.075934743757     1.946227082859     1.007825032230
         H           -4.624587310376    -0.191106743757    -1.536638917141     1.007825032230
         H            5.115144689624    -1.395229743757    -0.989543917141     1.007825032230
         H            5.451078689624    -0.337835743757     0.388883082859     1.007825032230
         H            4.812471689624    -1.966222743757     0.654343082859     1.007825032230
         H           -4.813321310376    -1.822697743757     0.331954082859     1.007825032230

  Basis Set: AUG-CC-PVTZ
    Blend: AUG-CC-PVTZ
  Basis Set: (AUG-CC-PVTZ AUX)
    Blend: AUG-CC-PVTZ-JKFIT
	 Reference Energy          =    -609.4933644618628250 [Eh]
	 Singles Energy            =      -0.0000000000000000 [Eh]
	 Same-Spin Energy          =      -0.6815155047795153 [Eh]
	 Opposite-Spin Energy      =      -2.1319608166114374 [Eh]
	 Correlation Energy        =      -2.8134763213909526 [Eh]
	 Total Energy              =    -612.3068407832537332 [Eh]

	 ================> DF-SCS-MP2 Energies <==================
	-----------------------------------------------------------
	 SCS Same-Spin Scale       =       0.3333333333333333 [-]
	 SCS Opposite-Spin Scale   =       1.2000000000000000 [-]
	 SCS Same-Spin Energy      =      -0.2271718349265051 [Eh]
	 SCS Opposite-Spin Energy  =      -2.5583529799337250 [Eh]
	 SCS Correlation Energy    =      -2.7855248148602301 [Eh]
	 SCS Total Energy          =    -612.2788892767230209 [Eh]
	-----------------------------------------------------------

  Dipole Moment: [D]
     X:    -1.4801      Y:    -1.7920      Z:    -0.1311     Total:     2.3279

*** Psi4 exiting successfully. Buy a developer a beer!
