                               Psi4 1.4a3.dev225

  ==> Input File <==

--------------------------------------------------------------------------
#psi4
#
memory 32 gb

molecule  {
0 1
  N       -0.4697210     1.1445100    -0.2216410
  N        1.7892250     1.2839290     0.3484630
  C       -1.6240620     0.3182020    -0.0704420
  C        0.7850350     0.5381570    -0.1399480
  C       -0.5952140     2.4946130     0.3294290
  C        0.9870780    -0.7701080    -0.6316150
  C        3.3308620    -0.5454650    -0.0717700
  C       -1.7327033    -0.5816930     0.9733552
  C       -2.6794440     0.4585720    -0.9790390
  C        2.2640650    -1.3032160    -0.5830550
  C        3.0220600     0.7400440     0.3662130
  C       -2.8869950    -1.3690860     1.1220740
  C       -3.8377830    -0.3053550    -0.8293160
  C       -3.9434210    -1.2230030     0.2186750
  C        4.7300730    -1.0916580    -0.0030050
  H        0.1601300    -1.3363870    -1.0489480
  H       -0.4605330     2.5122530     1.4190480
  H       -1.5934070     2.8602250     0.0818210
  H        0.1591150     3.1409490    -0.1188450
  H       -0.9140430    -0.6937920     1.6961740
  H       -2.5719260     1.1603340    -1.8029750
  H        2.4420680    -2.3104690    -0.9583480
  H        3.8063450     1.3842980     0.7658560
  H       -2.9675220    -2.0774950     1.9434440
  H       -4.6536710    -0.1926670    -1.5394220
  H        5.0860610    -1.3967900    -0.9923270
  H        5.4219950    -0.3393960     0.3861000
  H        4.7833880    -1.9677830     0.6515600
  H       -4.8424050    -1.8242580     0.3291710
units angstrom
no_reorient  #important for SAPT in psi4, default
symmetry c1  #important for SAPT in psi4, default
}

set PROPERTIES_ORIGIN ["COM"]
properties('MP2/aug-cc-pvtz', properties = ['dipole'])
--------------------------------------------------------------------------

    Molecular point group: c1
  Charge       = 0
  Multiplicity = 1
  Basis Set: AUG-CC-PVTZ
    Blend: AUG-CC-PVTZ
  Basis Set: (AUG-CC-PVTZ AUX)
    Blend: AUG-CC-PVTZ-JKFIT

    Orbital Energies [Eh]
    ---------------------

    Doubly Occupied:

       1A    -15.572484     2A    -15.548835     3A    -11.308487
       4A    -11.273187     5A    -11.265440     6A    -11.250141
       7A    -11.245102     8A    -11.243053     9A    -11.241766
      10A    -11.238287    11A    -11.237467    12A    -11.237123
      13A    -11.230228    14A    -11.228787    15A    -11.225077
      16A     -1.290252    17A     -1.217723    18A     -1.142806
      19A     -1.089806    20A     -1.037869    21A     -1.017803
      22A     -1.010473    23A     -0.949270    24A     -0.907322
      25A     -0.846883    26A     -0.838828    27A     -0.830397
      28A     -0.785625    29A     -0.724766    30A     -0.684780
      31A     -0.674164    32A     -0.648708    33A     -0.637786
      34A     -0.622530    35A     -0.610716    36A     -0.593843
      37A     -0.587842    38A     -0.582765    39A     -0.576512
      40A     -0.561479    41A     -0.543140    42A     -0.534059
      43A     -0.523222    44A     -0.514199    45A     -0.508666
      46A     -0.500712    47A     -0.497600    48A     -0.418217
      49A     -0.410249    50A     -0.373497    51A     -0.344406
      52A     -0.337969    53A     -0.286826

  @DF-RHF Final Energy:  -609.53342871043640

   => Energetics <=

    Nuclear Repulsion Energy =            919.9271742022003764
    One-Electron Energy =               -2651.7028517172475404
    Two-Electron Energy =                1122.2422488046108811
    Total Energy =                       -609.5334287104362829
  Basis Set: (AUG-CC-PVTZ AUX)
    Blend: AUG-CC-PVTZ-RI
    Molecular point group: c1

    Geometry (in Angstrom), charge = 0, multiplicity = 1:

       Center              X                  Y                   Z               Mass
    ------------   -----------------  -----------------  -----------------  -----------------
         N           -0.450527597795     1.138270099002    -0.216660261915    14.003074004430
         N            1.808418402205     1.277689099002     0.353443738085    14.003074004430
         C           -1.604868597795     0.311962099002    -0.065461261915    12.000000000000
         C            0.804228402205     0.531917099002    -0.134967261915    12.000000000000
         C           -0.576020597795     2.488373099002     0.334409738085    12.000000000000
         C            1.006271402205    -0.776347900998    -0.626634261915    12.000000000000
         C            3.350055402205    -0.551704900998    -0.066789261915    12.000000000000
         C           -1.713509897795    -0.587932900998     0.978335938085    12.000000000000
         C           -2.660250597795     0.452332099002    -0.974058261915    12.000000000000
         C            2.283258402205    -1.309455900998    -0.578074261915    12.000000000000
         C            3.041253402205     0.733804099002     0.371193738085    12.000000000000
         C           -2.867801597795    -1.375325900998     1.127054738085    12.000000000000
         C           -3.818589597795    -0.311594900998    -0.824335261915    12.000000000000
         C           -3.924227597795    -1.229242900998     0.223655738085    12.000000000000
         C            4.749266402205    -1.097897900998     0.001975738085    12.000000000000
         H            0.179323402205    -1.342626900998    -1.043967261915     1.007825032230
         H           -0.441339597795     2.506013099002     1.424028738085     1.007825032230
         H           -1.574213597795     2.853985099002     0.086801738085     1.007825032230
         H            0.178308402205     3.134709099002    -0.113864261915     1.007825032230
         H           -0.894849597795    -0.700031900998     1.701154738085     1.007825032230
         H           -2.552732597795     1.154094099002    -1.797994261915     1.007825032230
         H            2.461261402205    -2.316708900998    -0.953367261915     1.007825032230
         H            3.825538402205     1.378058099002     0.770836738085     1.007825032230
         H           -2.948328597795    -2.083734900998     1.948424738085     1.007825032230
         H           -4.634477597795    -0.198906900998    -1.534441261915     1.007825032230
         H            5.105254402205    -1.403029900998    -0.987346261915     1.007825032230
         H            5.441188402205    -0.345635900998     0.391080738085     1.007825032230
         H            4.802581402205    -1.974022900998     0.656540738085     1.007825032230
         H           -4.823211597795    -1.830497900998     0.334151738085     1.007825032230

  Basis Set: AUG-CC-PVTZ
    Blend: AUG-CC-PVTZ
  Basis Set: (AUG-CC-PVTZ AUX)
    Blend: AUG-CC-PVTZ-JKFIT
	 Reference Energy          =    -609.5334287104363966 [Eh]
	 Singles Energy            =      -0.0000000000000000 [Eh]
	 Same-Spin Energy          =      -0.6811185707407770 [Eh]
	 Opposite-Spin Energy      =      -2.1306942777937934 [Eh]
	 Correlation Energy        =      -2.8118128485345704 [Eh]
	 Total Energy              =    -612.3452415589709972 [Eh]

	 ================> DF-SCS-MP2 Energies <==================
	-----------------------------------------------------------
	 SCS Same-Spin Scale       =       0.3333333333333333 [-]
	 SCS Opposite-Spin Scale   =       1.2000000000000000 [-]
	 SCS Same-Spin Energy      =      -0.2270395235802590 [Eh]
	 SCS Opposite-Spin Energy  =      -2.5568331333525518 [Eh]
	 SCS Correlation Energy    =      -2.7838726569328109 [Eh]
	 SCS Total Energy          =    -612.3173013673691685 [Eh]
	-----------------------------------------------------------

  Dipole Moment: [D]
     X:    -0.5141      Y:    -1.4732      Z:    -0.1615     Total:     1.5687

*** Psi4 exiting successfully. Buy a developer a beer!
