                               Psi4 1.4a3.dev225

  ==> Input File <==

--------------------------------------------------------------------------
#psi4
#
memory 32 gb

molecule  {
0 1
  N       -0.4697210     1.1445100    -0.2216410
  N        1.7892250     1.2839290     0.3484630
  C       -1.6240620     0.3182020    -0.0704420
  C        0.7850350     0.5381570    -0.1399480
  C       -0.5952140     2.4946130     0.3294290
  C        0.9870780    -0.7701080    -0.6316150
  C        3.3308620    -0.5454650    -0.0717700
  C       -1.7342750    -0.5947120     0.9884560
  C       -2.6794440     0.4585720    -0.9790390
  C        2.2640650    -1.3032160    -0.5830550
  C        3.0220600     0.7400440     0.3662130
  C       -2.8869950    -1.3690860     1.1220740
  C       -3.8377830    -0.3053550    -0.8293160
  C       -3.9434210    -1.2230030     0.2186750
  C        4.7300730    -1.0916580    -0.0030050
  H        0.1601300    -1.3363870    -1.0489480
  H       -0.4605330     2.5122530     1.4190480
  H       -1.5934070     2.8602250     0.0818210
  H        0.1591150     3.1409490    -0.1188450
  H       -0.9140430    -0.6937920     1.6961740
  H       -2.5818117     1.0958108    -1.7272186
  H        2.4420680    -2.3104690    -0.9583480
  H        3.8063450     1.3842980     0.7658560
  H       -2.9675220    -2.0774950     1.9434440
  H       -4.6536710    -0.1926670    -1.5394220
  H        5.0860610    -1.3967900    -0.9923270
  H        5.4219950    -0.3393960     0.3861000
  H        4.7833880    -1.9677830     0.6515600
  H       -4.8424050    -1.8242580     0.3291710
units angstrom
no_reorient  #important for SAPT in psi4, default
symmetry c1  #important for SAPT in psi4, default
}

set PROPERTIES_ORIGIN ["COM"]
properties('MP2/aug-cc-pvtz', properties = ['dipole'])
--------------------------------------------------------------------------

    Molecular point group: c1
  Charge       = 0
  Multiplicity = 1
  Basis Set: AUG-CC-PVTZ
    Blend: AUG-CC-PVTZ
  Basis Set: (AUG-CC-PVTZ AUX)
    Blend: AUG-CC-PVTZ-JKFIT

    Orbital Energies [Eh]
    ---------------------

    Doubly Occupied:

       1A    -15.572932     2A    -15.549069     3A    -11.308662
       4A    -11.274567     5A    -11.265616     6A    -11.250298
       7A    -11.245395     8A    -11.241736     9A    -11.241101
      10A    -11.237493    11A    -11.237063    12A    -11.230433
      13A    -11.228953    14A    -11.225206    15A    -11.225085
      16A     -1.290274    17A     -1.217560    18A     -1.142377
      19A     -1.089962    20A     -1.038339    21A     -1.021448
      22A     -1.009297    23A     -0.949470    24A     -0.908043
      25A     -0.847093    26A     -0.840295    27A     -0.834341
      28A     -0.785968    29A     -0.725911    30A     -0.692657
      31A     -0.674643    32A     -0.648730    33A     -0.640818
      34A     -0.623575    35A     -0.610656    36A     -0.596797
      37A     -0.590322    38A     -0.584083    39A     -0.576843
      40A     -0.561698    41A     -0.543302    42A     -0.534594
      43A     -0.523432    44A     -0.515538    45A     -0.509533
      46A     -0.501395    47A     -0.498462    48A     -0.418039
      49A     -0.410378    50A     -0.373671    51A     -0.342403
      52A     -0.338672    53A     -0.286487

  @DF-RHF Final Energy:  -609.52795064548980

   => Energetics <=

    Nuclear Repulsion Energy =            920.1600350377872246
    One-Electron Energy =               -2652.1145419532922460
    Two-Electron Energy =                1122.4265562700152259
    Total Energy =                       -609.5279506454899092
  Basis Set: (AUG-CC-PVTZ AUX)
    Blend: AUG-CC-PVTZ-RI
    Molecular point group: c1

    Geometry (in Angstrom), charge = 0, multiplicity = 1:

       Center              X                  Y                   Z               Mass
    ------------   -----------------  -----------------  -----------------  -----------------
         N           -0.450382109799     1.139386901445    -0.217960304256    14.003074004430
         N            1.808563890201     1.278805901445     0.352143695744    14.003074004430
         C           -1.604723109799     0.313078901445    -0.066761304256    12.000000000000
         C            0.804373890201     0.533033901445    -0.136267304256    12.000000000000
         C           -0.575875109799     2.489489901445     0.333109695744    12.000000000000
         C            1.006416890201    -0.775231098555    -0.627934304256    12.000000000000
         C            3.350200890201    -0.550588098555    -0.068089304256    12.000000000000
         C           -1.714936109799    -0.599835098555     0.992136695744    12.000000000000
         C           -2.660105109799     0.453448901445    -0.975358304256    12.000000000000
         C            2.283403890201    -1.308339098555    -0.579374304256    12.000000000000
         C            3.041398890201     0.734920901445     0.369893695744    12.000000000000
         C           -2.867656109799    -1.374209098555     1.125754695744    12.000000000000
         C           -3.818444109799    -0.310478098555    -0.825635304256    12.000000000000
         C           -3.924082109799    -1.228126098555     0.222355695744    12.000000000000
         C            4.749411890201    -1.096781098555     0.000675695744    12.000000000000
         H            0.179468890201    -1.341510098555    -1.045267304256     1.007825032230
         H           -0.441194109799     2.507129901445     1.422728695744     1.007825032230
         H           -1.574068109799     2.855101901445     0.085501695744     1.007825032230
         H            0.178453890201     3.135825901445    -0.115164304256     1.007825032230
         H           -0.894704109799    -0.698915098555     1.699854695744     1.007825032230
         H           -2.562472809799     1.090687701445    -1.723537904256     1.007825032230
         H            2.461406890201    -2.315592098555    -0.954667304256     1.007825032230
         H            3.825683890201     1.379174901445     0.769536695744     1.007825032230
         H           -2.948183109799    -2.082618098555     1.947124695744     1.007825032230
         H           -4.634332109799    -0.197790098555    -1.535741304256     1.007825032230
         H            5.105399890201    -1.401913098555    -0.988646304256     1.007825032230
         H            5.441333890201    -0.344519098555     0.389780695744     1.007825032230
         H            4.802726890201    -1.972906098555     0.655240695744     1.007825032230
         H           -4.823066109799    -1.829381098555     0.332851695744     1.007825032230

  Basis Set: AUG-CC-PVTZ
    Blend: AUG-CC-PVTZ
  Basis Set: (AUG-CC-PVTZ AUX)
    Blend: AUG-CC-PVTZ-JKFIT
	 Reference Energy          =    -609.5279506454897955 [Eh]
	 Singles Energy            =      -0.0000000000000000 [Eh]
	 Same-Spin Energy          =      -0.6809328178153971 [Eh]
	 Opposite-Spin Energy      =      -2.1302034875943199 [Eh]
	 Correlation Energy        =      -2.8111363054097169 [Eh]
	 Total Energy              =    -612.3390869508995138 [Eh]

	 ================> DF-SCS-MP2 Energies <==================
	-----------------------------------------------------------
	 SCS Same-Spin Scale       =       0.3333333333333333 [-]
	 SCS Opposite-Spin Scale   =       1.2000000000000000 [-]
	 SCS Same-Spin Energy      =      -0.2269776059384657 [Eh]
	 SCS Opposite-Spin Energy  =      -2.5562441851131839 [Eh]
	 SCS Correlation Energy    =      -2.7832217910516497 [Eh]
	 SCS Total Energy          =    -612.3111724365414830 [Eh]
	-----------------------------------------------------------

  Dipole Moment: [D]
     X:    -0.4868      Y:    -1.4527      Z:    -0.1757     Total:     1.5421

*** Psi4 exiting successfully. Buy a developer a beer!
