                               Psi4 1.4a3.dev225

  ==> Input File <==

--------------------------------------------------------------------------
#psi4
#
memory 32 gb

molecule  {
0 1
  N       -0.4697210     1.1445100    -0.2216410
  N        1.7892250     1.2839290     0.3484630
  C       -1.6240620     0.3182020    -0.0704420
  C        0.7850350     0.5381570    -0.1399480
  C       -0.5952140     2.4946130     0.3294290
  C        0.9870780    -0.7701080    -0.6316150
  C        3.3308620    -0.5454650    -0.0717700
  C       -1.7438378    -0.5842784     0.9686432
  C       -2.6794440     0.4585720    -0.9790390
  C        2.2640650    -1.3032160    -0.5830550
  C        3.0220600     0.7400440     0.3662130
  C       -2.8869950    -1.3690860     1.1220740
  C       -3.8377830    -0.3053550    -0.8293160
  C       -3.9434210    -1.2230030     0.2186750
  C        4.7300730    -1.0916580    -0.0030050
  H        0.1601300    -1.3363870    -1.0489480
  H       -0.4605330     2.5122530     1.4190480
  H       -1.5934070     2.8602250     0.0818210
  H        0.1591150     3.1409490    -0.1188450
  H       -0.9140430    -0.6937920     1.6961740
  H       -2.5719260     1.1603340    -1.8029750
  H        2.4420680    -2.3104690    -0.9583480
  H        3.8063450     1.3842980     0.7658560
  H       -2.9675220    -2.0774950     1.9434440
  H       -4.6536710    -0.1926670    -1.5394220
  H        5.0860610    -1.3967900    -0.9923270
  H        5.4219950    -0.3393960     0.3861000
  H        4.7833880    -1.9677830     0.6515600
  H       -4.8424050    -1.8242580     0.3291710
units angstrom
no_reorient  #important for SAPT in psi4, default
symmetry c1  #important for SAPT in psi4, default
}

set PROPERTIES_ORIGIN ["COM"]
properties('MP2/aug-cc-pvtz', properties = ['dipole'])
--------------------------------------------------------------------------

    Molecular point group: c1
  Charge       = 0
  Multiplicity = 1
  Basis Set: AUG-CC-PVTZ
    Blend: AUG-CC-PVTZ
  Basis Set: (AUG-CC-PVTZ AUX)
    Blend: AUG-CC-PVTZ-JKFIT

    Orbital Energies [Eh]
    ---------------------

    Doubly Occupied:

       1A    -15.572852     2A    -15.548905     3A    -11.308562
       4A    -11.272925     5A    -11.265482     6A    -11.250183
       7A    -11.245207     8A    -11.241927     9A    -11.241431
      10A    -11.238217    11A    -11.237188    12A    -11.237009
      13A    -11.230290    14A    -11.228856    15A    -11.225109
      16A     -1.290315    17A     -1.217808    18A     -1.143865
      19A     -1.089863    20A     -1.037970    21A     -1.018381
      22A     -1.010602    23A     -0.949346    24A     -0.907474
      25A     -0.846918    26A     -0.838167    27A     -0.830643
      28A     -0.785988    29A     -0.724860    30A     -0.684760
      31A     -0.674142    32A     -0.648650    33A     -0.637476
      34A     -0.622309    35A     -0.610597    36A     -0.593570
      37A     -0.588273    38A     -0.582510    39A     -0.576588
      40A     -0.561424    41A     -0.543180    42A     -0.534100
      43A     -0.523232    44A     -0.514777    45A     -0.508778
      46A     -0.500781    47A     -0.496509    48A     -0.418446
      49A     -0.410328    50A     -0.373534    51A     -0.344446
      52A     -0.338598    53A     -0.286937

  @DF-RHF Final Energy:  -609.53328903185491

   => Energetics <=

    Nuclear Repulsion Energy =            919.9967403256151783
    One-Electron Energy =               -2651.8394782552609286
    Two-Electron Energy =                1122.3094488977908441
    Total Energy =                       -609.5332890318550199
  Basis Set: (AUG-CC-PVTZ AUX)
    Blend: AUG-CC-PVTZ-RI
    Molecular point group: c1

    Geometry (in Angstrom), charge = 0, multiplicity = 1:

       Center              X                  Y                   Z               Mass
    ------------   -----------------  -----------------  -----------------  -----------------
         N           -0.449853173703     1.138426698404    -0.216374852932    14.003074004430
         N            1.809092826297     1.277845698404     0.353729147068    14.003074004430
         C           -1.604194173703     0.312118698404    -0.065175852932    12.000000000000
         C            0.804902826297     0.532073698404    -0.134681852932    12.000000000000
         C           -0.575346173703     2.488529698404     0.334695147068    12.000000000000
         C            1.006945826297    -0.776191301596    -0.626348852932    12.000000000000
         C            3.350729826297    -0.551548301596    -0.066503852932    12.000000000000
         C           -1.723969973703    -0.590361701596     0.973909347068    12.000000000000
         C           -2.659576173703     0.452488698404    -0.973772852932    12.000000000000
         C            2.283932826297    -1.309299301596    -0.577788852932    12.000000000000
         C            3.041927826297     0.733960698404     0.371479147068    12.000000000000
         C           -2.867127173703    -1.375169301596     1.127340147068    12.000000000000
         C           -3.817915173703    -0.311438301596    -0.824049852932    12.000000000000
         C           -3.923553173703    -1.229086301596     0.223941147068    12.000000000000
         C            4.749940826297    -1.097741301596     0.002261147068    12.000000000000
         H            0.179997826297    -1.342470301596    -1.043681852932     1.007825032230
         H           -0.440665173703     2.506169698404     1.424314147068     1.007825032230
         H           -1.573539173703     2.854141698404     0.087087147068     1.007825032230
         H            0.178982826297     3.134865698404    -0.113578852932     1.007825032230
         H           -0.894175173703    -0.699875301596     1.701440147068     1.007825032230
         H           -2.552058173703     1.154250698404    -1.797708852932     1.007825032230
         H            2.461935826297    -2.316552301596    -0.953081852932     1.007825032230
         H            3.826212826297     1.378214698404     0.771122147068     1.007825032230
         H           -2.947654173703    -2.083578301596     1.948710147068     1.007825032230
         H           -4.633803173703    -0.198750301596    -1.534155852932     1.007825032230
         H            5.105928826297    -1.402873301596    -0.987060852932     1.007825032230
         H            5.441862826297    -0.345479301596     0.391366147068     1.007825032230
         H            4.803255826297    -1.973866301596     0.656826147068     1.007825032230
         H           -4.822537173703    -1.830341301596     0.334437147068     1.007825032230

  Basis Set: AUG-CC-PVTZ
    Blend: AUG-CC-PVTZ
  Basis Set: (AUG-CC-PVTZ AUX)
    Blend: AUG-CC-PVTZ-JKFIT
	 Reference Energy          =    -609.5332890318549062 [Eh]
	 Singles Energy            =      -0.0000000000000000 [Eh]
	 Same-Spin Energy          =      -0.6811288918929039 [Eh]
	 Opposite-Spin Energy      =      -2.1306405812995792 [Eh]
	 Correlation Energy        =      -2.8117694731924834 [Eh]
	 Total Energy              =    -612.3450585050474047 [Eh]

	 ================> DF-SCS-MP2 Energies <==================
	-----------------------------------------------------------
	 SCS Same-Spin Scale       =       0.3333333333333333 [-]
	 SCS Opposite-Spin Scale   =       1.2000000000000000 [-]
	 SCS Same-Spin Energy      =      -0.2270429639643013 [Eh]
	 SCS Opposite-Spin Energy  =      -2.5567686975594950 [Eh]
	 SCS Correlation Energy    =      -2.7838116615237962 [Eh]
	 SCS Total Energy          =    -612.3171006933787339 [Eh]
	-----------------------------------------------------------

  Dipole Moment: [D]
     X:    -0.5059      Y:    -1.4718      Z:    -0.1613     Total:     1.5647

*** Psi4 exiting successfully. Buy a developer a beer!
