                               Psi4 1.4a3.dev225

  ==> Input File <==

--------------------------------------------------------------------------
#psi4
#
memory 32 gb

molecule  {
0 1
  N       -0.4697210     1.1445100    -0.2216410
  N        1.7892250     1.2839290     0.3484630
  C       -1.6240620     0.3182020    -0.0704420
  C        0.7850350     0.5381570    -0.1399480
  C       -0.5952140     2.4946130     0.3294290
  C        0.9870780    -0.7701080    -0.6316150
  C        3.3308620    -0.5454650    -0.0717700
  C       -1.7342750    -0.5947120     0.9884560
  C       -2.6794440     0.4585720    -0.9790390
  C        2.2640650    -1.3032160    -0.5830550
  C        3.0220600     0.7400440     0.3662130
  C       -2.8869950    -1.3690860     1.1220740
  C       -3.8377830    -0.3053550    -0.8293160
  C       -3.9434210    -1.2230030     0.2186750
  C        4.7300730    -1.0916580    -0.0030050
  H        0.1220454    -1.3624667    -1.0681680
  H       -0.4605330     2.5122530     1.4190480
  H       -1.5934070     2.8602250     0.0818210
  H        0.1591150     3.1409490    -0.1188450
  H       -0.9140430    -0.6937920     1.6961740
  H       -2.5719260     1.1603340    -1.8029750
  H        2.4420680    -2.3104690    -0.9583480
  H        3.8063450     1.3842980     0.7658560
  H       -2.9675220    -2.0774950     1.9434440
  H       -4.6536710    -0.1926670    -1.5394220
  H        5.0860610    -1.3967900    -0.9923270
  H        5.4219950    -0.3393960     0.3861000
  H        4.7833880    -1.9677830     0.6515600
  H       -4.8424050    -1.8242580     0.3291710
units angstrom
no_reorient  #important for SAPT in psi4, default
symmetry c1  #important for SAPT in psi4, default
}

set PROPERTIES_ORIGIN ["COM"]
properties('MP2/aug-cc-pvtz', properties = ['dipole'])
--------------------------------------------------------------------------

    Molecular point group: c1
  Charge       = 0
  Multiplicity = 1
  Basis Set: AUG-CC-PVTZ
    Blend: AUG-CC-PVTZ
  Basis Set: (AUG-CC-PVTZ AUX)
    Blend: AUG-CC-PVTZ-JKFIT

    Orbital Energies [Eh]
    ---------------------

    Doubly Occupied:

       1A    -15.572836     2A    -15.549412     3A    -11.309094
       4A    -11.275267     5A    -11.265760     6A    -11.250658
       7A    -11.245204     8A    -11.241943     9A    -11.241731
      10A    -11.238001    11A    -11.237567    12A    -11.236720
      13A    -11.234379    14A    -11.230706    15A    -11.225366
      16A     -1.290268    17A     -1.217599    18A     -1.142200
      19A     -1.089837    20A     -1.036921    21A     -1.018558
      22A     -1.008689    23A     -0.949541    24A     -0.907573
      25A     -0.844929    26A     -0.838860    27A     -0.829136
      28A     -0.785221    29A     -0.724225    30A     -0.685238
      31A     -0.674498    32A     -0.648209    33A     -0.636347
      34A     -0.616077    35A     -0.608951    36A     -0.593729
      37A     -0.588111    38A     -0.583827    39A     -0.576807
      40A     -0.561540    41A     -0.543176    42A     -0.534294
      43A     -0.523574    44A     -0.513748    45A     -0.507614
      46A     -0.499956    47A     -0.497948    48A     -0.418143
      49A     -0.410228    50A     -0.373894    51A     -0.342655
      52A     -0.338880    53A     -0.286625

  @DF-RHF Final Energy:  -609.53108728857853

   => Energetics <=

    Nuclear Repulsion Energy =            919.3788681270686993
    One-Electron Energy =               -2650.6153772090087841
    Two-Electron Energy =                1121.7054217933614382
    Total Energy =                       -609.5310872885786466
  Basis Set: (AUG-CC-PVTZ AUX)
    Blend: AUG-CC-PVTZ-RI
    Molecular point group: c1

    Geometry (in Angstrom), charge = 0, multiplicity = 1:

       Center              X                  Y                   Z               Mass
    ------------   -----------------  -----------------  -----------------  -----------------
         N           -0.450238660504     1.139191337328    -0.217477154287    14.003074004430
         N            1.808707339496     1.278610337328     0.352626845713    14.003074004430
         C           -1.604579660504     0.312883337328    -0.066278154287    12.000000000000
         C            0.804517339496     0.532838337328    -0.135784154287    12.000000000000
         C           -0.575731660504     2.489294337328     0.333592845713    12.000000000000
         C            1.006560339496    -0.775426662672    -0.627451154287    12.000000000000
         C            3.350344339496    -0.550783662672    -0.067606154287    12.000000000000
         C           -1.714792660504    -0.600030662672     0.992619845713    12.000000000000
         C           -2.659961660504     0.453253337328    -0.974875154287    12.000000000000
         C            2.283547339496    -1.308534662672    -0.578891154287    12.000000000000
         C            3.041542339496     0.734725337328     0.370376845713    12.000000000000
         C           -2.867512660504    -1.374404662672     1.126237845713    12.000000000000
         C           -3.818300660504    -0.310673662672    -0.825152154287    12.000000000000
         C           -3.923938660504    -1.228321662672     0.222838845713    12.000000000000
         C            4.749555339496    -1.096976662672     0.001158845713    12.000000000000
         H            0.141527739496    -1.367785362672    -1.064004154287     1.007825032230
         H           -0.441050660504     2.506934337328     1.423211845713     1.007825032230
         H           -1.573924660504     2.854906337328     0.085984845713     1.007825032230
         H            0.178597339496     3.135630337328    -0.114681154287     1.007825032230
         H           -0.894560660504    -0.699110662672     1.700337845713     1.007825032230
         H           -2.552443660504     1.155015337328    -1.798811154287     1.007825032230
         H            2.461550339496    -2.315787662672    -0.954184154287     1.007825032230
         H            3.825827339496     1.378979337328     0.770019845713     1.007825032230
         H           -2.948039660504    -2.082813662672     1.947607845713     1.007825032230
         H           -4.634188660504    -0.197985662672    -1.535258154287     1.007825032230
         H            5.105543339496    -1.402108662672    -0.988163154287     1.007825032230
         H            5.441477339496    -0.344714662672     0.390263845713     1.007825032230
         H            4.802870339496    -1.973101662672     0.655723845713     1.007825032230
         H           -4.822922660504    -1.829576662672     0.333334845713     1.007825032230

  Basis Set: AUG-CC-PVTZ
    Blend: AUG-CC-PVTZ
  Basis Set: (AUG-CC-PVTZ AUX)
    Blend: AUG-CC-PVTZ-JKFIT
	 Reference Energy          =    -609.5310872885785329 [Eh]
	 Singles Energy            =      -0.0000000000000000 [Eh]
	 Same-Spin Energy          =      -0.6813397768824725 [Eh]
	 Opposite-Spin Energy      =      -2.1312909160230697 [Eh]
	 Correlation Energy        =      -2.8126306929055422 [Eh]
	 Total Energy              =    -612.3437179814840192 [Eh]

	 ================> DF-SCS-MP2 Energies <==================
	-----------------------------------------------------------
	 SCS Same-Spin Scale       =       0.3333333333333333 [-]
	 SCS Opposite-Spin Scale   =       1.2000000000000000 [-]
	 SCS Same-Spin Energy      =      -0.2271132589608242 [Eh]
	 SCS Opposite-Spin Energy  =      -2.5575490992276837 [Eh]
	 SCS Correlation Energy    =      -2.7846623581885077 [Eh]
	 SCS Total Energy          =    -612.3157496467670171 [Eh]
	-----------------------------------------------------------

  Dipole Moment: [D]
     X:    -0.4807      Y:    -1.4580      Z:    -0.1621     Total:     1.5437

*** Psi4 exiting successfully. Buy a developer a beer!
