                               Psi4 1.4a3.dev225

  ==> Input File <==

--------------------------------------------------------------------------
#psi4
#
memory 32 gb

molecule  {
0 1
  N       -0.4697210     1.1445100    -0.2216410
  N        1.7892250     1.2839290     0.3484630
  C       -1.6240620     0.3182020    -0.0704420
  C        0.7850350     0.5381570    -0.1399480
  C       -0.5952140     2.4946130     0.3294290
  C        0.9870780    -0.7701080    -0.6316150
  C        3.3308620    -0.5454650    -0.0717700
  C       -1.7342750    -0.5947120     0.9884560
  C       -2.6794440     0.4585720    -0.9790390
  C        2.2640650    -1.3032160    -0.5830550
  C        3.0220600     0.7400440     0.3662130
  C       -2.8869950    -1.3690860     1.1220740
  C       -3.8377830    -0.3053550    -0.8293160
  C       -3.9434210    -1.2230030     0.2186750
  C        4.7300730    -1.0916580    -0.0030050
  H        0.1601300    -1.3363870    -1.0489480
  H       -0.4605330     2.5122530     1.4190480
  H       -1.5934070     2.8602250     0.0818210
  H        0.1591150     3.1409490    -0.1188450
  H       -0.9140430    -0.6937920     1.6961740
  H       -2.5719260     1.1603340    -1.8029750
  H        2.4420680    -2.3104690    -0.9583480
  H        3.8063450     1.3842980     0.7658560
  H       -2.9675220    -2.0774950     1.9434440
  H       -4.6536710    -0.1926670    -1.5394220
  H        5.0830674    -1.3790264    -0.9986984
  H        5.4219950    -0.3393960     0.3861000
  H        4.7833880    -1.9677830     0.6515600
  H       -4.8424050    -1.8242580     0.3291710
units angstrom
no_reorient  #important for SAPT in psi4, default
symmetry c1  #important for SAPT in psi4, default
}

set PROPERTIES_ORIGIN ["COM"]
properties('MP2/aug-cc-pvtz', properties = ['dipole'])
--------------------------------------------------------------------------

    Molecular point group: c1
  Charge       = 0
  Multiplicity = 1
  Basis Set: AUG-CC-PVTZ
    Blend: AUG-CC-PVTZ
  Basis Set: (AUG-CC-PVTZ AUX)
    Blend: AUG-CC-PVTZ-JKFIT

    Orbital Energies [Eh]
    ---------------------

    Doubly Occupied:

       1A    -15.572798     2A    -15.548970     3A    -11.308566
       4A    -11.275357     5A    -11.265498     6A    -11.250220
       7A    -11.245169     8A    -11.242032     9A    -11.241809
      10A    -11.238093    11A    -11.237701    12A    -11.236832
      13A    -11.230270    14A    -11.228886    15A    -11.225189
      16A     -1.290147    17A     -1.217383    18A     -1.142256
      19A     -1.089944    20A     -1.037984    21A     -1.018675
      22A     -1.008807    23A     -0.949378    24A     -0.907442
      25A     -0.846975    26A     -0.839160    27A     -0.829185
      28A     -0.785517    29A     -0.724544    30A     -0.685422
      31A     -0.674295    32A     -0.648241    33A     -0.638136
      34A     -0.622669    35A     -0.609587    36A     -0.593850
      37A     -0.588081    38A     -0.584023    39A     -0.577952
      40A     -0.561533    41A     -0.541887    42A     -0.534169
      43A     -0.523636    44A     -0.514596    45A     -0.507830
      46A     -0.500030    47A     -0.498754    48A     -0.418101
      49A     -0.410233    50A     -0.373630    51A     -0.342838
      52A     -0.338961    53A     -0.286514

  @DF-RHF Final Energy:  -609.53368441805264

   => Energetics <=

    Nuclear Repulsion Energy =            919.6215378885673317
    One-Electron Energy =               -2651.0909320742525779
    Two-Electron Energy =                1121.9357097676327157
    Total Energy =                       -609.5336844180526441
  Basis Set: (AUG-CC-PVTZ AUX)
    Blend: AUG-CC-PVTZ-RI
    Molecular point group: c1

    Geometry (in Angstrom), charge = 0, multiplicity = 1:

       Center              X                  Y                   Z               Mass
    ------------   -----------------  -----------------  -----------------  -----------------
         N           -0.450417170276     1.138968304143    -0.217542515795    14.003074004430
         N            1.808528829724     1.278387304143     0.352561484205    14.003074004430
         C           -1.604758170276     0.312660304143    -0.066343515795    12.000000000000
         C            0.804338829724     0.532615304143    -0.135849515795    12.000000000000
         C           -0.575910170276     2.489071304143     0.333527484205    12.000000000000
         C            1.006381829724    -0.775649695857    -0.627516515795    12.000000000000
         C            3.350165829724    -0.551006695857    -0.067671515795    12.000000000000
         C           -1.714971170276    -0.600253695857     0.992554484205    12.000000000000
         C           -2.660140170276     0.453030304143    -0.974940515795    12.000000000000
         C            2.283368829724    -1.308757695857    -0.578956515795    12.000000000000
         C            3.041363829724     0.734502304143     0.370311484205    12.000000000000
         C           -2.867691170276    -1.374627695857     1.126172484205    12.000000000000
         C           -3.818479170276    -0.310896695857    -0.825217515795    12.000000000000
         C           -3.924117170276    -1.228544695857     0.222773484205    12.000000000000
         C            4.749376829724    -1.097199695857     0.001093484205    12.000000000000
         H            0.179433829724    -1.341928695857    -1.044849515795     1.007825032230
         H           -0.441229170276     2.506711304143     1.423146484205     1.007825032230
         H           -1.574103170276     2.854683304143     0.085919484205     1.007825032230
         H            0.178418829724     3.135407304143    -0.114746515795     1.007825032230
         H           -0.894739170276    -0.699333695857     1.700272484205     1.007825032230
         H           -2.552622170276     1.154792304143    -1.798876515795     1.007825032230
         H            2.461371829724    -2.316010695857    -0.954249515795     1.007825032230
         H            3.825648829724     1.378756304143     0.769954484205     1.007825032230
         H           -2.948218170276    -2.083036695857     1.947542484205     1.007825032230
         H           -4.634367170276    -0.198208695857    -1.535323515795     1.007825032230
         H            5.102371229724    -1.384568095857    -0.994599915795     1.007825032230
         H            5.441298829724    -0.344937695857     0.390198484205     1.007825032230
         H            4.802691829724    -1.973324695857     0.655658484205     1.007825032230
         H           -4.823101170276    -1.829799695857     0.333269484205     1.007825032230

  Basis Set: AUG-CC-PVTZ
    Blend: AUG-CC-PVTZ
  Basis Set: (AUG-CC-PVTZ AUX)
    Blend: AUG-CC-PVTZ-JKFIT
	 Reference Energy          =    -609.5336844180526441 [Eh]
	 Singles Energy            =      -0.0000000000000000 [Eh]
	 Same-Spin Energy          =      -0.6811417968763599 [Eh]
	 Opposite-Spin Energy      =      -2.1307647556362213 [Eh]
	 Correlation Energy        =      -2.8119065525125810 [Eh]
	 Total Energy              =    -612.3455909705652402 [Eh]

	 ================> DF-SCS-MP2 Energies <==================
	-----------------------------------------------------------
	 SCS Same-Spin Scale       =       0.3333333333333333 [-]
	 SCS Opposite-Spin Scale   =       1.2000000000000000 [-]
	 SCS Same-Spin Energy      =      -0.2270472656254533 [Eh]
	 SCS Opposite-Spin Energy  =      -2.5569177067634654 [Eh]
	 SCS Correlation Energy    =      -2.7839649723889188 [Eh]
	 SCS Total Energy          =    -612.3176493904416020 [Eh]
	-----------------------------------------------------------

  Dipole Moment: [D]
     X:    -0.4903      Y:    -1.4576      Z:    -0.1672     Total:     1.5470

*** Psi4 exiting successfully. Buy a developer a beer!
