                               Psi4 1.4a3.dev225

  ==> Input File <==

--------------------------------------------------------------------------
#psi4
#
memory 32 gb

molecule  {
0 1
  N       -0.4697210     1.1445100    -0.2216410
  N        1.7892250     1.2839290     0.3484630
  C       -1.6240620     0.3182020    -0.0704420
  C        0.7850350     0.5381570    -0.1399480
  C       -0.5952140     2.4946130     0.3294290
  C        0.9870780    -0.7701080    -0.6316150
  C        3.3308620    -0.5454650    -0.0717700
  C       -1.7342750    -0.5947120     0.9884560
  C       -2.6794440     0.4585720    -0.9790390
  C        2.2640650    -1.3032160    -0.5830550
  C        3.0220600     0.7400440     0.3662130
  C       -2.8869950    -1.3690860     1.1220740
  C       -3.8377830    -0.3053550    -0.8293160
  C       -3.9434210    -1.2230030     0.2186750
  C        4.7300730    -1.0916580    -0.0030050
  H        0.1601300    -1.3363870    -1.0489480
  H       -0.4605330     2.5122530     1.4190480
  H       -1.5934070     2.8602250     0.0818210
  H        0.1591150     3.1409490    -0.1188450
  H       -0.9140430    -0.6937920     1.6961740
  H       -2.5719260     1.1603340    -1.8029750
  H        2.4420680    -2.3104690    -0.9583480
  H        3.8063450     1.3842980     0.7658560
  H       -2.9675220    -2.0774950     1.9434440
  H       -4.6536710    -0.1926670    -1.5394220
  H        5.1510934    -1.4525320    -1.1730578
  H        5.4219950    -0.3393960     0.3861000
  H        4.7833880    -1.9677830     0.6515600
  H       -4.8424050    -1.8242580     0.3291710
units angstrom
no_reorient  #important for SAPT in psi4, default
symmetry c1  #important for SAPT in psi4, default
}

set PROPERTIES_ORIGIN ["COM"]
properties('MP2/aug-cc-pvtz', properties = ['dipole'])
--------------------------------------------------------------------------

    Molecular point group: c1
  Charge       = 0
  Multiplicity = 1
  Basis Set: AUG-CC-PVTZ
    Blend: AUG-CC-PVTZ
  Basis Set: (AUG-CC-PVTZ AUX)
    Blend: AUG-CC-PVTZ-JKFIT

    Orbital Energies [Eh]
    ---------------------

    Doubly Occupied:

       1A    -15.573855     2A    -15.550031     3A    -11.310002
       4A    -11.275982     5A    -11.267456     6A    -11.251265
       7A    -11.247923     8A    -11.245878     9A    -11.242542
      10A    -11.242306    11A    -11.238613    12A    -11.238297
      13A    -11.237394    14A    -11.232262    15A    -11.229779
      16A     -1.291213    17A     -1.218484    18A     -1.142850
      19A     -1.089872    20A     -1.037893    21A     -1.019181
      22A     -1.008977    23A     -0.944606    24A     -0.904297
      25A     -0.847818    26A     -0.838478    27A     -0.828869
      28A     -0.785606    29A     -0.725292    30A     -0.685926
      31A     -0.675241    32A     -0.648856    33A     -0.638218
      34A     -0.623715    35A     -0.609993    36A     -0.594473
      37A     -0.589032    38A     -0.584486    39A     -0.566564
      40A     -0.561791    41A     -0.535985    42A     -0.531723
      43A     -0.517074    44A     -0.509349    45A     -0.508384
      46A     -0.500331    47A     -0.499089    48A     -0.418235
      49A     -0.410498    50A     -0.374201    51A     -0.343238
      52A     -0.339449    53A     -0.287071

  @DF-RHF Final Energy:  -609.51409868886810

   => Energetics <=

    Nuclear Repulsion Energy =            918.8037801795925361
    One-Electron Energy =               -2649.3958656739705475
    Two-Electron Energy =                1121.0779868055096813
    Total Energy =                       -609.5140986888682164
  Basis Set: (AUG-CC-PVTZ AUX)
    Blend: AUG-CC-PVTZ-RI
    Molecular point group: c1

    Geometry (in Angstrom), charge = 0, multiplicity = 1:

       Center              X                  Y                   Z               Mass
    ------------   -----------------  -----------------  -----------------  -----------------
         N           -0.450763222134     1.139342231017    -0.216655540309    14.003074004430
         N            1.808182777866     1.278761231017     0.353448459691    14.003074004430
         C           -1.605104222134     0.313034231017    -0.065456540309    12.000000000000
         C            0.803992777866     0.532989231017    -0.134962540309    12.000000000000
         C           -0.576256222134     2.489445231017     0.334414459691    12.000000000000
         C            1.006035777866    -0.775275768983    -0.626629540309    12.000000000000
         C            3.349819777866    -0.550632768983    -0.066784540309    12.000000000000
         C           -1.715317222134    -0.599879768983     0.993441459691    12.000000000000
         C           -2.660486222134     0.453404231017    -0.974053540309    12.000000000000
         C            2.283022777866    -1.308383768983    -0.578069540309    12.000000000000
         C            3.041017777866     0.734876231017     0.371198459691    12.000000000000
         C           -2.868037222134    -1.374253768983     1.127059459691    12.000000000000
         C           -3.818825222134    -0.310522768983    -0.824330540309    12.000000000000
         C           -3.924463222134    -1.228170768983     0.223660459691    12.000000000000
         C            4.749030777866    -1.096825768983     0.001980459691    12.000000000000
         H            0.179087777866    -1.341554768983    -1.043962540309     1.007825032230
         H           -0.441575222134     2.507085231017     1.424033459691     1.007825032230
         H           -1.574449222134     2.855057231017     0.086806459691     1.007825032230
         H            0.178072777866     3.135781231017    -0.113859540309     1.007825032230
         H           -0.895085222134    -0.698959768983     1.701159459691     1.007825032230
         H           -2.552968222134     1.155166231017    -1.797989540309     1.007825032230
         H            2.461025777866    -2.315636768983    -0.953362540309     1.007825032230
         H            3.825302777866     1.379130231017     0.770841459691     1.007825032230
         H           -2.948564222134    -2.082662768983     1.948429459691     1.007825032230
         H           -4.634713222134    -0.197834768983    -1.534436540309     1.007825032230
         H            5.170051177866    -1.457699768983    -1.168072340309     1.007825032230
         H            5.440952777866    -0.344563768983     0.391085459691     1.007825032230
         H            4.802345777866    -1.972950768983     0.656545459691     1.007825032230
         H           -4.823447222134    -1.829425768983     0.334156459691     1.007825032230

  Basis Set: AUG-CC-PVTZ
    Blend: AUG-CC-PVTZ
  Basis Set: (AUG-CC-PVTZ AUX)
    Blend: AUG-CC-PVTZ-JKFIT
	 Reference Energy          =    -609.5140986888681027 [Eh]
	 Singles Energy            =      -0.0000000000000000 [Eh]
	 Same-Spin Energy          =      -0.6810392091172449 [Eh]
	 Opposite-Spin Energy      =      -2.1321413606203294 [Eh]
	 Correlation Energy        =      -2.8131805697375745 [Eh]
	 Total Energy              =    -612.3272792586056994 [Eh]

	 ================> DF-SCS-MP2 Energies <==================
	-----------------------------------------------------------
	 SCS Same-Spin Scale       =       0.3333333333333333 [-]
	 SCS Opposite-Spin Scale   =       1.2000000000000000 [-]
	 SCS Same-Spin Energy      =      -0.2270130697057483 [Eh]
	 SCS Opposite-Spin Energy  =      -2.5585696327443954 [Eh]
	 SCS Correlation Energy    =      -2.7855827024501436 [Eh]
	 SCS Total Energy          =    -612.2996813913182450 [Eh]
	-----------------------------------------------------------

  Dipole Moment: [D]
     X:    -0.6443      Y:    -1.3949      Z:    -0.0732     Total:     1.5383

*** Psi4 exiting successfully. Buy a developer a beer!
