                               Psi4 1.4a3.dev225

  ==> Input File <==

--------------------------------------------------------------------------
#psi4
#
memory 32 gb

molecule  {
0 1
  N       -0.4697210     1.1445100    -0.2216410
  N        1.7892250     1.2839290     0.3484630
  C       -1.6240620     0.3182020    -0.0704420
  C        0.7850350     0.5381570    -0.1399480
  C       -0.5952140     2.4946130     0.3294290
  C        0.9870780    -0.7701080    -0.6316150
  C        3.3308620    -0.5454650    -0.0717700
  C       -1.7264163    -0.5296171     0.9129518
  C       -2.6794440     0.4585720    -0.9790390
  C        2.2640650    -1.3032160    -0.5830550
  C        3.0220600     0.7400440     0.3662130
  C       -2.8869950    -1.3690860     1.1220740
  C       -3.8377830    -0.3053550    -0.8293160
  C       -3.9434210    -1.2230030     0.2186750
  C        4.7300730    -1.0916580    -0.0030050
  H        0.1601300    -1.3363870    -1.0489480
  H       -0.4605330     2.5122530     1.4190480
  H       -1.5934070     2.8602250     0.0818210
  H        0.1591150     3.1409490    -0.1188450
  H       -0.9140430    -0.6937920     1.6961740
  H       -2.5719260     1.1603340    -1.8029750
  H        2.4420680    -2.3104690    -0.9583480
  H        3.8063450     1.3842980     0.7658560
  H       -2.9675220    -2.0774950     1.9434440
  H       -4.6536710    -0.1926670    -1.5394220
  H        5.0860610    -1.3967900    -0.9923270
  H        5.4219950    -0.3393960     0.3861000
  H        4.7833880    -1.9677830     0.6515600
  H       -4.8424050    -1.8242580     0.3291710
units angstrom
no_reorient  #important for SAPT in psi4, default
symmetry c1  #important for SAPT in psi4, default
}

set PROPERTIES_ORIGIN ["COM"]
properties('MP2/aug-cc-pvtz', properties = ['dipole'])
--------------------------------------------------------------------------

    Molecular point group: c1
  Charge       = 0
  Multiplicity = 1
  Basis Set: AUG-CC-PVTZ
    Blend: AUG-CC-PVTZ
  Basis Set: (AUG-CC-PVTZ AUX)
    Blend: AUG-CC-PVTZ-JKFIT

    Orbital Energies [Eh]
    ---------------------

    Doubly Occupied:

       1A    -15.571067     2A    -15.548129     3A    -11.307961
       4A    -11.264878     5A    -11.263194     6A    -11.249647
       7A    -11.247304     8A    -11.244764     9A    -11.241575
      10A    -11.239086    11A    -11.238221    12A    -11.235691
      13A    -11.229578    14A    -11.228304    15A    -11.224662
      16A     -1.290750    17A     -1.219361    18A     -1.145499
      19A     -1.089299    20A     -1.037892    21A     -1.022599
      22A     -1.009662    23A     -0.948806    24A     -0.906662
      25A     -0.846422    26A     -0.841601    27A     -0.831181
      28A     -0.785055    29A     -0.725379    30A     -0.683226
      31A     -0.673352    32A     -0.650217    33A     -0.636306
      34A     -0.622193    35A     -0.614852    36A     -0.594311
      37A     -0.587631    38A     -0.578040    39A     -0.574822
      40A     -0.560912    41A     -0.542667    42A     -0.533488
      43A     -0.522725    44A     -0.516647    45A     -0.509599
      46A     -0.504682    47A     -0.486579    48A     -0.418437
      49A     -0.409780    50A     -0.372910    51A     -0.353959
      52A     -0.332446    53A     -0.287882

  @DF-RHF Final Energy:  -609.52114331859957

   => Energetics <=

    Nuclear Repulsion Energy =            921.2735559610498512
    One-Electron Energy =               -2654.3856183531934221
    Two-Electron Energy =                1123.5909190735440006
    Total Energy =                       -609.5211433185995702
  Basis Set: (AUG-CC-PVTZ AUX)
    Blend: AUG-CC-PVTZ-RI
    Molecular point group: c1

    Geometry (in Angstrom), charge = 0, multiplicity = 1:

       Center              X                  Y                   Z               Mass
    ------------   -----------------  -----------------  -----------------  -----------------
         N           -0.450908405578     1.135115827004    -0.213001587688    14.003074004430
         N            1.808037594422     1.274534827004     0.357102412312    14.003074004430
         C           -1.605249405578     0.308807827004    -0.061802587688    12.000000000000
         C            0.803847594422     0.528762827004    -0.131308587688    12.000000000000
         C           -0.576401405578     2.485218827004     0.338068412312    12.000000000000
         C            1.005890594422    -0.779502172996    -0.622975587688    12.000000000000
         C            3.349674594422    -0.554859172996    -0.063130587688    12.000000000000
         C           -1.707603705578    -0.539011272996     0.921591212312    12.000000000000
         C           -2.660631405578     0.449177827004    -0.970399587688    12.000000000000
         C            2.282877594422    -1.312610172996    -0.574415587688    12.000000000000
         C            3.040872594422     0.730649827004     0.374852412312    12.000000000000
         C           -2.868182405578    -1.378480172996     1.130713412312    12.000000000000
         C           -3.818970405578    -0.314749172996    -0.820676587688    12.000000000000
         C           -3.924608405578    -1.232397172996     0.227314412312    12.000000000000
         C            4.748885594422    -1.101052172996     0.005634412312    12.000000000000
         H            0.178942594422    -1.345781172996    -1.040308587688     1.007825032230
         H           -0.441720405578     2.502858827004     1.427687412312     1.007825032230
         H           -1.574594405578     2.850830827004     0.090460412312     1.007825032230
         H            0.177927594422     3.131554827004    -0.110205587688     1.007825032230
         H           -0.895230405578    -0.703186172996     1.704813412312     1.007825032230
         H           -2.553113405578     1.150939827004    -1.794335587688     1.007825032230
         H            2.460880594422    -2.319863172996    -0.949708587688     1.007825032230
         H            3.825157594422     1.374903827004     0.774495412312     1.007825032230
         H           -2.948709405578    -2.086889172996     1.952083412312     1.007825032230
         H           -4.634858405578    -0.202061172996    -1.530782587688     1.007825032230
         H            5.104873594422    -1.406184172996    -0.983687587688     1.007825032230
         H            5.440807594422    -0.348790172996     0.394739412312     1.007825032230
         H            4.802200594422    -1.977177172996     0.660199412312     1.007825032230
         H           -4.823592405578    -1.833652172996     0.337810412312     1.007825032230

  Basis Set: AUG-CC-PVTZ
    Blend: AUG-CC-PVTZ
  Basis Set: (AUG-CC-PVTZ AUX)
    Blend: AUG-CC-PVTZ-JKFIT
	 Reference Energy          =    -609.5211433185995702 [Eh]
	 Singles Energy            =      -0.0000000000000000 [Eh]
	 Same-Spin Energy          =      -0.6809052925698102 [Eh]
	 Opposite-Spin Energy      =      -2.1308976576060532 [Eh]
	 Correlation Energy        =      -2.8118029501758635 [Eh]
	 Total Energy              =    -612.3329462687754585 [Eh]

	 ================> DF-SCS-MP2 Energies <==================
	-----------------------------------------------------------
	 SCS Same-Spin Scale       =       0.3333333333333333 [-]
	 SCS Opposite-Spin Scale   =       1.2000000000000000 [-]
	 SCS Same-Spin Energy      =      -0.2269684308566034 [Eh]
	 SCS Opposite-Spin Energy  =      -2.5570771891272637 [Eh]
	 SCS Correlation Energy    =      -2.7840456199838672 [Eh]
	 SCS Total Energy          =    -612.3051889385834556 [Eh]
	-----------------------------------------------------------

  Dipole Moment: [D]
     X:    -0.6046      Y:    -1.5152      Z:    -0.1426     Total:     1.6376

*** Psi4 exiting successfully. Buy a developer a beer!
