                               Psi4 1.4a3.dev225

  ==> Input File <==

--------------------------------------------------------------------------
#psi4
#
memory 32 gb

molecule  {
0 1
  N       -0.4697210     1.1445100    -0.2216410
  N        1.7892250     1.2839290     0.3484630
  C       -1.6240620     0.3182020    -0.0704420
  C        0.7850350     0.5381570    -0.1399480
  C       -0.5952140     2.4946130     0.3294290
  C        0.9870780    -0.7701080    -0.6316150
  C        3.3308620    -0.5454650    -0.0717700
  C       -1.7342750    -0.5947120     0.9884560
  C       -2.7207499     0.4996959    -1.0570896
  C        2.2640650    -1.3032160    -0.5830550
  C        3.0220600     0.7400440     0.3662130
  C       -2.8869950    -1.3690860     1.1220740
  C       -3.8377830    -0.3053550    -0.8293160
  C       -3.9434210    -1.2230030     0.2186750
  C        4.7300730    -1.0916580    -0.0030050
  H        0.1601300    -1.3363870    -1.0489480
  H       -0.4605330     2.5122530     1.4190480
  H       -1.5934070     2.8602250     0.0818210
  H        0.1591150     3.1409490    -0.1188450
  H       -0.9140430    -0.6937920     1.6961740
  H       -2.5719260     1.1603340    -1.8029750
  H        2.4420680    -2.3104690    -0.9583480
  H        3.8063450     1.3842980     0.7658560
  H       -2.9675220    -2.0774950     1.9434440
  H       -4.6536710    -0.1926670    -1.5394220
  H        5.0860610    -1.3967900    -0.9923270
  H        5.4219950    -0.3393960     0.3861000
  H        4.7833880    -1.9677830     0.6515600
  H       -4.8424050    -1.8242580     0.3291710
units angstrom
no_reorient  #important for SAPT in psi4, default
symmetry c1  #important for SAPT in psi4, default
}

set PROPERTIES_ORIGIN ["COM"]
properties('MP2/aug-cc-pvtz', properties = ['dipole'])
--------------------------------------------------------------------------

    Molecular point group: c1
  Charge       = 0
  Multiplicity = 1
  Basis Set: AUG-CC-PVTZ
    Blend: AUG-CC-PVTZ
  Basis Set: (AUG-CC-PVTZ AUX)
    Blend: AUG-CC-PVTZ-JKFIT

    Orbital Energies [Eh]
    ---------------------

    Doubly Occupied:

       1A    -15.573085     2A    -15.549022     3A    -11.308534
       4A    -11.284662     5A    -11.265495     6A    -11.250144
       7A    -11.245549     8A    -11.244022     9A    -11.243175
      10A    -11.239496    11A    -11.237918    12A    -11.237252
      13A    -11.230390    14A    -11.228808    15A    -11.225181
      16A     -1.289723    17A     -1.215995    18A     -1.136924
      19A     -1.089859    20A     -1.037362    21A     -1.021248
      22A     -1.002192    23A     -0.949429    24A     -0.907859
      25A     -0.846913    26A     -0.835849    27A     -0.835279
      28A     -0.782718    29A     -0.721690    30A     -0.694637
      31A     -0.674549    32A     -0.651205    33A     -0.637424
      34A     -0.620573    35A     -0.609646    36A     -0.597633
      37A     -0.590652    38A     -0.581578    39A     -0.576735
      40A     -0.560925    41A     -0.543344    42A     -0.535064
      43A     -0.523790    44A     -0.520839    45A     -0.509728
      46A     -0.496136    47A     -0.489800    48A     -0.416699
      49A     -0.410011    50A     -0.373573    51A     -0.346037
      52A     -0.332161    53A     -0.284943

  @DF-RHF Final Energy:  -609.52000935668093

   => Energetics <=

    Nuclear Repulsion Energy =            917.7350163418997226
    One-Electron Energy =               -2647.2831447609710267
    Two-Electron Energy =                1120.0281190623904877
    Total Energy =                       -609.5200093566809301
  Basis Set: (AUG-CC-PVTZ AUX)
    Blend: AUG-CC-PVTZ-RI
    Molecular point group: c1

    Geometry (in Angstrom), charge = 0, multiplicity = 1:

       Center              X                  Y                   Z               Mass
    ------------   -----------------  -----------------  -----------------  -----------------
         N           -0.447930472963     1.136567766463    -0.212847350541    14.003074004430
         N            1.811015527037     1.275986766463     0.357256649459    14.003074004430
         C           -1.602271472963     0.310259766463    -0.061648350541    12.000000000000
         C            0.806825527037     0.530214766463    -0.131154350541    12.000000000000
         C           -0.573423472963     2.486670766463     0.338222649459    12.000000000000
         C            1.008868527037    -0.778050233537    -0.622821350541    12.000000000000
         C            3.352652527037    -0.553407233537    -0.062976350541    12.000000000000
         C           -1.712484472963    -0.602654233537     0.997249649459    12.000000000000
         C           -2.698959372963     0.491753666463    -1.048295950541    12.000000000000
         C            2.285855527037    -1.311158233537    -0.574261350541    12.000000000000
         C            3.043850527037     0.732101766463     0.375006649459    12.000000000000
         C           -2.865204472963    -1.377028233537     1.130867649459    12.000000000000
         C           -3.815992472963    -0.313297233537    -0.820522350541    12.000000000000
         C           -3.921630472963    -1.230945233537     0.227468649459    12.000000000000
         C            4.751863527037    -1.099600233537     0.005788649459    12.000000000000
         H            0.181920527037    -1.344329233537    -1.040154350541     1.007825032230
         H           -0.438742472963     2.504310766463     1.427841649459     1.007825032230
         H           -1.571616472963     2.852282766463     0.090614649459     1.007825032230
         H            0.180905527037     3.133006766463    -0.110051350541     1.007825032230
         H           -0.892252472963    -0.701734233537     1.704967649459     1.007825032230
         H           -2.550135472963     1.152391766463    -1.794181350541     1.007825032230
         H            2.463858527037    -2.318411233537    -0.949554350541     1.007825032230
         H            3.828135527037     1.376355766463     0.774649649459     1.007825032230
         H           -2.945731472963    -2.085437233537     1.952237649459     1.007825032230
         H           -4.631880472963    -0.200609233537    -1.530628350541     1.007825032230
         H            5.107851527037    -1.404732233537    -0.983533350541     1.007825032230
         H            5.443785527037    -0.347338233537     0.394893649459     1.007825032230
         H            4.805178527037    -1.975725233537     0.660353649459     1.007825032230
         H           -4.820614472963    -1.832200233537     0.337964649459     1.007825032230

  Basis Set: AUG-CC-PVTZ
    Blend: AUG-CC-PVTZ
  Basis Set: (AUG-CC-PVTZ AUX)
    Blend: AUG-CC-PVTZ-JKFIT
	 Reference Energy          =    -609.5200093566809301 [Eh]
	 Singles Energy            =      -0.0000000000000000 [Eh]
	 Same-Spin Energy          =      -0.6812995027300901 [Eh]
	 Opposite-Spin Energy      =      -2.1319609446104759 [Eh]
	 Correlation Energy        =      -2.8132604473405660 [Eh]
	 Total Energy              =    -612.3332698040214837 [Eh]

	 ================> DF-SCS-MP2 Energies <==================
	-----------------------------------------------------------
	 SCS Same-Spin Scale       =       0.3333333333333333 [-]
	 SCS Opposite-Spin Scale   =       1.2000000000000000 [-]
	 SCS Same-Spin Energy      =      -0.2270998342433634 [Eh]
	 SCS Opposite-Spin Energy  =      -2.5583531335325711 [Eh]
	 SCS Correlation Energy    =      -2.7854529677759343 [Eh]
	 SCS Total Energy          =    -612.3054623244568120 [Eh]
	-----------------------------------------------------------

  Dipole Moment: [D]
     X:    -0.4498      Y:    -1.4431      Z:    -0.1631     Total:     1.5203

*** Psi4 exiting successfully. Buy a developer a beer!
