                               Psi4 1.4a3.dev225

  ==> Input File <==

--------------------------------------------------------------------------
#psi4
#
memory 32 gb

molecule  {
0 1
  N       -0.4697210     1.1445100    -0.2216410
  N        1.7892250     1.2839290     0.3484630
  C       -1.6240620     0.3182020    -0.0704420
  C        0.7850350     0.5381570    -0.1399480
  C       -0.5952140     2.4946130     0.3294290
  C        0.9870780    -0.7701080    -0.6316150
  C        3.3308620    -0.5454650    -0.0717700
  C       -1.7342750    -0.5947120     0.9884560
  C       -2.6794440     0.4585720    -0.9790390
  C        2.2640650    -1.3032160    -0.5830550
  C        3.0220600     0.7400440     0.3662130
  C       -2.8869950    -1.3690860     1.1220740
  C       -3.8377830    -0.3053550    -0.8293160
  C       -3.9434210    -1.2230030     0.2186750
  C        4.7300730    -1.0916580    -0.0030050
  H        0.0839607    -1.3885464    -1.0873881
  H       -0.4605330     2.5122530     1.4190480
  H       -1.5934070     2.8602250     0.0818210
  H        0.1591150     3.1409490    -0.1188450
  H       -0.9140430    -0.6937920     1.6961740
  H       -2.5719260     1.1603340    -1.8029750
  H        2.4420680    -2.3104690    -0.9583480
  H        3.8063450     1.3842980     0.7658560
  H       -2.9675220    -2.0774950     1.9434440
  H       -4.6536710    -0.1926670    -1.5394220
  H        5.0860610    -1.3967900    -0.9923270
  H        5.4219950    -0.3393960     0.3861000
  H        4.7833880    -1.9677830     0.6515600
  H       -4.8424050    -1.8242580     0.3291710
units angstrom
no_reorient  #important for SAPT in psi4, default
symmetry c1  #important for SAPT in psi4, default
}

set PROPERTIES_ORIGIN ["COM"]
properties('MP2/aug-cc-pvtz', properties = ['dipole'])
--------------------------------------------------------------------------

    Molecular point group: c1
  Charge       = 0
  Multiplicity = 1
  Basis Set: AUG-CC-PVTZ
    Blend: AUG-CC-PVTZ
  Basis Set: (AUG-CC-PVTZ AUX)
    Blend: AUG-CC-PVTZ-JKFIT

    Orbital Energies [Eh]
    ---------------------

    Doubly Occupied:

       1A    -15.572855     2A    -15.549849     3A    -11.309632
       4A    -11.275152     5A    -11.265982     6A    -11.251111
       7A    -11.245226     8A    -11.241829     9A    -11.241629
      10A    -11.239594    11A    -11.237885    12A    -11.237407
      13A    -11.236580    14A    -11.231055    15A    -11.225574
      16A     -1.290383    17A     -1.217801    18A     -1.142120
      19A     -1.089846    20A     -1.036097    21A     -1.018422
      22A     -1.008564    23A     -0.949718    24A     -0.907655
      25A     -0.843506    26A     -0.838357    27A     -0.829024
      28A     -0.784924    29A     -0.723949    30A     -0.685068
      31A     -0.674684    32A     -0.648153    33A     -0.635471
      34A     -0.611946    35A     -0.605408    36A     -0.593531
      37A     -0.588122    38A     -0.583833    39A     -0.576947
      40A     -0.561422    41A     -0.543065    42A     -0.534366
      43A     -0.523809    44A     -0.512874    45A     -0.507297
      46A     -0.499876    47A     -0.496787    48A     -0.418227
      49A     -0.410087    50A     -0.374190    51A     -0.342445
      52A     -0.338775    53A     -0.286757

  @DF-RHF Final Energy:  -609.52597019423251

   => Energetics <=

    Nuclear Repulsion Energy =            919.1641715302307603
    One-Electron Energy =               -2650.1905397843534047
    Two-Electron Energy =                1121.5003980598901308
    Total Energy =                       -609.5259701942325137
  Basis Set: (AUG-CC-PVTZ AUX)
    Blend: AUG-CC-PVTZ-RI
    Molecular point group: c1

    Geometry (in Angstrom), charge = 0, multiplicity = 1:

       Center              X                  Y                   Z               Mass
    ------------   -----------------  -----------------  -----------------  -----------------
         N           -0.450044921621     1.139324006141    -0.217379380623    14.003074004430
         N            1.808901078379     1.278743006141     0.352724619377    14.003074004430
         C           -1.604385921621     0.313016006141    -0.066180380623    12.000000000000
         C            0.804711078379     0.532971006141    -0.135686380623    12.000000000000
         C           -0.575537921621     2.489427006141     0.333690619377    12.000000000000
         C            1.006754078379    -0.775293993859    -0.627353380623    12.000000000000
         C            3.350538078379    -0.550650993859    -0.067508380623    12.000000000000
         C           -1.714598921621    -0.599897993859     0.992717619377    12.000000000000
         C           -2.659767921621     0.453386006141    -0.974777380623    12.000000000000
         C            2.283741078379    -1.308401993859    -0.578793380623    12.000000000000
         C            3.041736078379     0.734858006141     0.370474619377    12.000000000000
         C           -2.867318921621    -1.374271993859     1.126335619377    12.000000000000
         C           -3.818106921621    -0.310540993859    -0.825054380623    12.000000000000
         C           -3.923744921621    -1.228188993859     0.222936619377    12.000000000000
         C            4.749749078379    -1.096843993859     0.001256619377    12.000000000000
         H            0.103636778379    -1.393732393859    -1.083126480623     1.007825032230
         H           -0.440856921621     2.507067006141     1.423309619377     1.007825032230
         H           -1.573730921621     2.855039006141     0.086082619377     1.007825032230
         H            0.178791078379     3.135763006141    -0.114583380623     1.007825032230
         H           -0.894366921621    -0.698977993859     1.700435619377     1.007825032230
         H           -2.552249921621     1.155148006141    -1.798713380623     1.007825032230
         H            2.461744078379    -2.315654993859    -0.954086380623     1.007825032230
         H            3.826021078379     1.379112006141     0.770117619377     1.007825032230
         H           -2.947845921621    -2.082680993859     1.947705619377     1.007825032230
         H           -4.633994921621    -0.197852993859    -1.535160380623     1.007825032230
         H            5.105737078379    -1.401975993859    -0.988065380623     1.007825032230
         H            5.441671078379    -0.344581993859     0.390361619377     1.007825032230
         H            4.803064078379    -1.972968993859     0.655821619377     1.007825032230
         H           -4.822728921621    -1.829443993859     0.333432619377     1.007825032230

  Basis Set: AUG-CC-PVTZ
    Blend: AUG-CC-PVTZ
  Basis Set: (AUG-CC-PVTZ AUX)
    Blend: AUG-CC-PVTZ-JKFIT
	 Reference Energy          =    -609.5259701942325137 [Eh]
	 Singles Energy            =      -0.0000000000000000 [Eh]
	 Same-Spin Energy          =      -0.6815620731805583 [Eh]
	 Opposite-Spin Energy      =      -2.1319304025210646 [Eh]
	 Correlation Energy        =      -2.8134924757016231 [Eh]
	 Total Energy              =    -612.3394626699341643 [Eh]

	 ================> DF-SCS-MP2 Energies <==================
	-----------------------------------------------------------
	 SCS Same-Spin Scale       =       0.3333333333333333 [-]
	 SCS Opposite-Spin Scale   =       1.2000000000000000 [-]
	 SCS Same-Spin Energy      =      -0.2271873577268528 [Eh]
	 SCS Opposite-Spin Energy  =      -2.5583164830252776 [Eh]
	 SCS Correlation Energy    =      -2.7855038407521304 [Eh]
	 SCS Total Energy          =    -612.3114740349845988 [Eh]
	-----------------------------------------------------------

  Dipole Moment: [D]
     X:    -0.4655      Y:    -1.4509      Z:    -0.1563     Total:     1.5318

*** Psi4 exiting successfully. Buy a developer a beer!
