                               Psi4 1.4a3.dev225

  ==> Input File <==

--------------------------------------------------------------------------
#psi4
#
memory 32 gb

molecule  {
0 1
  N       -0.4697210     1.1445100    -0.2216410
  N        1.7892250     1.2839290     0.3484630
  C       -1.6240620     0.3182020    -0.0704420
  C        0.7850350     0.5381570    -0.1399480
  C       -0.5952140     2.4946130     0.3294290
  C        0.9870780    -0.7701080    -0.6316150
  C        3.3308620    -0.5454650    -0.0717700
  C       -1.7342750    -0.5947120     0.9884560
  C       -2.6794440     0.4585720    -0.9790390
  C        2.2640650    -1.3032160    -0.5830550
  C        3.0220600     0.7400440     0.3662130
  C       -2.9400384    -1.4369640     1.1678589
  C       -3.8377830    -0.3053550    -0.8293160
  C       -3.9434210    -1.2230030     0.2186750
  C        4.7300730    -1.0916580    -0.0030050
  H        0.1601300    -1.3363870    -1.0489480
  H       -0.4605330     2.5122530     1.4190480
  H       -1.5934070     2.8602250     0.0818210
  H        0.1591150     3.1409490    -0.1188450
  H       -0.9140430    -0.6937920     1.6961740
  H       -2.5719260     1.1603340    -1.8029750
  H        2.4420680    -2.3104690    -0.9583480
  H        3.8063450     1.3842980     0.7658560
  H       -2.9675220    -2.0774950     1.9434440
  H       -4.6536710    -0.1926670    -1.5394220
  H        5.0860610    -1.3967900    -0.9923270
  H        5.4219950    -0.3393960     0.3861000
  H        4.7833880    -1.9677830     0.6515600
  H       -4.8424050    -1.8242580     0.3291710
units angstrom
no_reorient  #important for SAPT in psi4, default
symmetry c1  #important for SAPT in psi4, default
}

set PROPERTIES_ORIGIN ["COM"]
properties('MP2/aug-cc-pvtz', properties = ['dipole'])
--------------------------------------------------------------------------

    Molecular point group: c1
  Charge       = 0
  Multiplicity = 1
  Basis Set: AUG-CC-PVTZ
    Blend: AUG-CC-PVTZ
  Basis Set: (AUG-CC-PVTZ AUX)
    Blend: AUG-CC-PVTZ-JKFIT

    Orbital Energies [Eh]
    ---------------------

    Doubly Occupied:

       1A    -15.572978     2A    -15.548721     3A    -11.308391
       4A    -11.275049     5A    -11.265238     6A    -11.249889
       7A    -11.246739     8A    -11.245092     9A    -11.244688
      10A    -11.242551    11A    -11.240289    12A    -11.239429
      13A    -11.230085    14A    -11.228527    15A    -11.224975
      16A     -1.289901    17A     -1.216789    18A     -1.135882
      19A     -1.089582    20A     -1.037807    21A     -1.014346
      22A     -1.007815    23A     -0.949166    24A     -0.906066
      25A     -0.846910    26A     -0.842991    27A     -0.831306
      28A     -0.785916    29A     -0.726420    30A     -0.682265
      31A     -0.673834    32A     -0.651423    33A     -0.641406
      34A     -0.625946    35A     -0.612155    36A     -0.598009
      37A     -0.588367    38A     -0.579999    39A     -0.575781
      40A     -0.559812    41A     -0.542722    42A     -0.533153
      43A     -0.523550    44A     -0.516811    45A     -0.509948
      46A     -0.497954    47A     -0.490334    48A     -0.418169
      49A     -0.410156    50A     -0.373217    51A     -0.343430
      52A     -0.333377    53A     -0.286496

  @DF-RHF Final Energy:  -609.52044210072916

   => Energetics <=

    Nuclear Repulsion Energy =            917.6937200845837879
    One-Electron Energy =               -2647.2046147066835147
    Two-Electron Energy =                1119.9904525213707984
    Total Energy =                       -609.5204421007290421
  Basis Set: (AUG-CC-PVTZ AUX)
    Blend: AUG-CC-PVTZ-RI
    Molecular point group: c1

    Geometry (in Angstrom), charge = 0, multiplicity = 1:

       Center              X                  Y                   Z               Mass
    ------------   -----------------  -----------------  -----------------  -----------------
         N           -0.447219524759     1.143170084251    -0.220348149375    14.003074004430
         N            1.811726475241     1.282589084251     0.349755850625    14.003074004430
         C           -1.601560524759     0.316862084251    -0.069149149375    12.000000000000
         C            0.807536475241     0.536817084251    -0.138655149375    12.000000000000
         C           -0.572712524759     2.493273084251     0.330721850625    12.000000000000
         C            1.009579475241    -0.771447915749    -0.630322149375    12.000000000000
         C            3.353363475241    -0.546804915749    -0.070477149375    12.000000000000
         C           -1.711773524759    -0.596051915749     0.989748850625    12.000000000000
         C           -2.656942524759     0.457232084251    -0.977746149375    12.000000000000
         C            2.286566475241    -1.304555915749    -0.581762149375    12.000000000000
         C            3.044561475241     0.738704084251     0.367505850625    12.000000000000
         C           -2.917536924759    -1.438303915749     1.169151750625    12.000000000000
         C           -3.815281524759    -0.306694915749    -0.828023149375    12.000000000000
         C           -3.920919524759    -1.224342915749     0.219967850625    12.000000000000
         C            4.752574475241    -1.092997915749    -0.001712149375    12.000000000000
         H            0.182631475241    -1.337726915749    -1.047655149375     1.007825032230
         H           -0.438031524759     2.510913084251     1.420340850625     1.007825032230
         H           -1.570905524759     2.858885084251     0.083113850625     1.007825032230
         H            0.181616475241     3.139609084251    -0.117552149375     1.007825032230
         H           -0.891541524759    -0.695131915749     1.697466850625     1.007825032230
         H           -2.549424524759     1.158994084251    -1.801682149375     1.007825032230
         H            2.464569475241    -2.311808915749    -0.957055149375     1.007825032230
         H            3.828846475241     1.382958084251     0.767148850625     1.007825032230
         H           -2.945020524759    -2.078834915749     1.944736850625     1.007825032230
         H           -4.631169524759    -0.194006915749    -1.538129149375     1.007825032230
         H            5.108562475241    -1.398129915749    -0.991034149375     1.007825032230
         H            5.444496475241    -0.340735915749     0.387392850625     1.007825032230
         H            4.805889475241    -1.969122915749     0.652852850625     1.007825032230
         H           -4.819903524759    -1.825597915749     0.330463850625     1.007825032230

  Basis Set: AUG-CC-PVTZ
    Blend: AUG-CC-PVTZ
  Basis Set: (AUG-CC-PVTZ AUX)
    Blend: AUG-CC-PVTZ-JKFIT
	 Reference Energy          =    -609.5204421007291558 [Eh]
	 Singles Energy            =      -0.0000000000000000 [Eh]
	 Same-Spin Energy          =      -0.6811731681736550 [Eh]
	 Opposite-Spin Energy      =      -2.1319027461888060 [Eh]
	 Correlation Energy        =      -2.8130759143624608 [Eh]
	 Total Energy              =    -612.3335180150916131 [Eh]

	 ================> DF-SCS-MP2 Energies <==================
	-----------------------------------------------------------
	 SCS Same-Spin Scale       =       0.3333333333333333 [-]
	 SCS Opposite-Spin Scale   =       1.2000000000000000 [-]
	 SCS Same-Spin Energy      =      -0.2270577227245517 [Eh]
	 SCS Opposite-Spin Energy  =      -2.5582832954265671 [Eh]
	 SCS Correlation Energy    =      -2.7853410181511187 [Eh]
	 SCS Total Energy          =    -612.3057831188802993 [Eh]
	-----------------------------------------------------------

  Dipole Moment: [D]
     X:    -0.4989      Y:    -1.4792      Z:    -0.1482     Total:     1.5681

*** Psi4 exiting successfully. Buy a developer a beer!
