                               Psi4 1.4a3.dev225

  ==> Input File <==

--------------------------------------------------------------------------
#psi4
#
memory 32 gb

molecule  {
0 1
  N       -0.4697210     1.1445100    -0.2216410
  N        1.7892250     1.2839290     0.3484630
  C       -1.5432053     0.3760814    -0.0810329
  C        0.7850350     0.5381570    -0.1399480
  C       -0.5952140     2.4946130     0.3294290
  C        0.9870780    -0.7701080    -0.6316150
  C        3.3308620    -0.5454650    -0.0717700
  C       -1.7342750    -0.5947120     0.9884560
  C       -2.6794440     0.4585720    -0.9790390
  C        2.2640650    -1.3032160    -0.5830550
  C        3.0220600     0.7400440     0.3662130
  C       -2.8869950    -1.3690860     1.1220740
  C       -3.8377830    -0.3053550    -0.8293160
  C       -3.9434210    -1.2230030     0.2186750
  C        4.7300730    -1.0916580    -0.0030050
  H        0.1601300    -1.3363870    -1.0489480
  H       -0.4605330     2.5122530     1.4190480
  H       -1.5934070     2.8602250     0.0818210
  H        0.1591150     3.1409490    -0.1188450
  H       -0.9140430    -0.6937920     1.6961740
  H       -2.5719260     1.1603340    -1.8029750
  H        2.4420680    -2.3104690    -0.9583480
  H        3.8063450     1.3842980     0.7658560
  H       -2.9675220    -2.0774950     1.9434440
  H       -4.6536710    -0.1926670    -1.5394220
  H        5.0860610    -1.3967900    -0.9923270
  H        5.4219950    -0.3393960     0.3861000
  H        4.7833880    -1.9677830     0.6515600
  H       -4.8424050    -1.8242580     0.3291710
units angstrom
no_reorient  #important for SAPT in psi4, default
symmetry c1  #important for SAPT in psi4, default
}

set PROPERTIES_ORIGIN ["COM"]
properties('MP2/aug-cc-pvtz', properties = ['dipole'])
--------------------------------------------------------------------------

    Molecular point group: c1
  Charge       = 0
  Multiplicity = 1
  Basis Set: AUG-CC-PVTZ
    Blend: AUG-CC-PVTZ
  Basis Set: (AUG-CC-PVTZ AUX)
    Blend: AUG-CC-PVTZ-JKFIT

    Orbital Energies [Eh]
    ---------------------

    Doubly Occupied:

       1A    -15.576061     2A    -15.553453     3A    -11.312869
       4A    -11.279280     5A    -11.268391     6A    -11.252839
       7A    -11.250430     8A    -11.239006     9A    -11.238576
      10A    -11.237770    11A    -11.236705    12A    -11.234744
      13A    -11.234025    14A    -11.232341    15A    -11.227386
      16A     -1.310389    17A     -1.229854    18A     -1.131624
      19A     -1.093414    20A     -1.042289    21A     -1.010144
      22A     -1.002038    23A     -0.954475    24A     -0.916890
      25A     -0.850558    26A     -0.844374    27A     -0.822738
      28A     -0.784267    29A     -0.730509    30A     -0.685697
      31A     -0.678624    32A     -0.654013    33A     -0.641396
      34A     -0.624171    35A     -0.609982    36A     -0.594759
      37A     -0.586491    38A     -0.580643    39A     -0.578739
      40A     -0.566324    41A     -0.545685    42A     -0.538180
      43A     -0.527358    44A     -0.518239    45A     -0.510017
      46A     -0.495184    47A     -0.487142    48A     -0.419026
      49A     -0.412666    50A     -0.376208    51A     -0.337828
      52A     -0.332418    53A     -0.284604

  @DF-RHF Final Energy:  -609.51799815320169

   => Energetics <=

    Nuclear Repulsion Energy =            920.1180766343238702
    One-Electron Energy =               -2651.9064761180056848
    Two-Electron Energy =                1122.2704013304801265
    Total Energy =                       -609.5179981532016882
  Basis Set: (AUG-CC-PVTZ AUX)
    Blend: AUG-CC-PVTZ-RI
    Molecular point group: c1

    Geometry (in Angstrom), charge = 0, multiplicity = 1:

       Center              X                  Y                   Z               Mass
    ------------   -----------------  -----------------  -----------------  -----------------
         N           -0.455329943128     1.135552874652    -0.216933429566    14.003074004430
         N            1.803616056872     1.274971874652     0.353170570434    14.003074004430
         C           -1.528814243128     0.367124274652    -0.076325329566    12.000000000000
         C            0.799426056872     0.529199874652    -0.135240429566    12.000000000000
         C           -0.580822943128     2.485655874652     0.334136570434    12.000000000000
         C            1.001469056872    -0.779065125348    -0.626907429566    12.000000000000
         C            3.345253056872    -0.554422125348    -0.067062429566    12.000000000000
         C           -1.719883943128    -0.603669125348     0.993163570434    12.000000000000
         C           -2.665052943128     0.449614874652    -0.974331429566    12.000000000000
         C            2.278456056872    -1.312173125348    -0.578347429566    12.000000000000
         C            3.036451056872     0.731086874652     0.370920570434    12.000000000000
         C           -2.872603943128    -1.378043125348     1.126781570434    12.000000000000
         C           -3.823391943128    -0.314312125348    -0.824608429566    12.000000000000
         C           -3.929029943128    -1.231960125348     0.223382570434    12.000000000000
         C            4.744464056872    -1.100615125348     0.001702570434    12.000000000000
         H            0.174521056872    -1.345344125348    -1.044240429566     1.007825032230
         H           -0.446141943128     2.503295874652     1.423755570434     1.007825032230
         H           -1.579015943128     2.851267874652     0.086528570434     1.007825032230
         H            0.173506056872     3.131991874652    -0.114137429566     1.007825032230
         H           -0.899651943128    -0.702749125348     1.700881570434     1.007825032230
         H           -2.557534943128     1.151376874652    -1.798267429566     1.007825032230
         H            2.456459056872    -2.319426125348    -0.953640429566     1.007825032230
         H            3.820736056872     1.375340874652     0.770563570434     1.007825032230
         H           -2.953130943128    -2.086452125348     1.948151570434     1.007825032230
         H           -4.639279943128    -0.201624125348    -1.534714429566     1.007825032230
         H            5.100452056872    -1.405747125348    -0.987619429566     1.007825032230
         H            5.436386056872    -0.348353125348     0.390807570434     1.007825032230
         H            4.797779056872    -1.976740125348     0.656267570434     1.007825032230
         H           -4.828013943128    -1.833215125348     0.333878570434     1.007825032230

  Basis Set: AUG-CC-PVTZ
    Blend: AUG-CC-PVTZ
  Basis Set: (AUG-CC-PVTZ AUX)
    Blend: AUG-CC-PVTZ-JKFIT
	 Reference Energy          =    -609.5179981532016882 [Eh]
	 Singles Energy            =      -0.0000000000000000 [Eh]
	 Same-Spin Energy          =      -0.6828133248766224 [Eh]
	 Opposite-Spin Energy      =      -2.1330243859242675 [Eh]
	 Correlation Energy        =      -2.8158377108008898 [Eh]
	 Total Energy              =    -612.3338358640025945 [Eh]

	 ================> DF-SCS-MP2 Energies <==================
	-----------------------------------------------------------
	 SCS Same-Spin Scale       =       0.3333333333333333 [-]
	 SCS Opposite-Spin Scale   =       1.2000000000000000 [-]
	 SCS Same-Spin Energy      =      -0.2276044416255408 [Eh]
	 SCS Opposite-Spin Energy  =      -2.5596292631091209 [Eh]
	 SCS Correlation Energy    =      -2.7872337047346618 [Eh]
	 SCS Total Energy          =    -612.3052318579364055 [Eh]
	-----------------------------------------------------------

  Dipole Moment: [D]
     X:     0.1002      Y:    -1.2613      Z:    -0.1883     Total:     1.2792

*** Psi4 exiting successfully. Buy a developer a beer!
