                               Psi4 1.4a3.dev225

  ==> Input File <==

--------------------------------------------------------------------------
#psi4
#
memory 32 gb

molecule  {
0 1
  N       -0.4697210     1.1445100    -0.2216410
  N        1.7892250     1.2839290     0.3484630
  C       -1.6240620     0.3182020    -0.0704420
  C        0.7850350     0.5381570    -0.1399480
  C       -0.5952140     2.4946130     0.3294290
  C        0.9870780    -0.7701080    -0.6316150
  C        3.3308620    -0.5454650    -0.0717700
  C       -1.7342750    -0.5947120     0.9884560
  C       -2.6794440     0.4585720    -0.9790390
  C        2.2640650    -1.3032160    -0.5830550
  C        3.0220600     0.7400440     0.3662130
  C       -2.8869950    -1.3690860     1.1220740
  C       -3.8543827    -0.3163025    -0.8271704
  C       -3.9434210    -1.2230030     0.2186750
  C        4.7300730    -1.0916580    -0.0030050
  H        0.1601300    -1.3363870    -1.0489480
  H       -0.4605330     2.5122530     1.4190480
  H       -1.5934070     2.8602250     0.0818210
  H        0.1591150     3.1409490    -0.1188450
  H       -0.9140430    -0.6937920     1.6961740
  H       -2.5719260     1.1603340    -1.8029750
  H        2.4420680    -2.3104690    -0.9583480
  H        3.8063450     1.3842980     0.7658560
  H       -2.9675220    -2.0774950     1.9434440
  H       -4.6536710    -0.1926670    -1.5394220
  H        5.0860610    -1.3967900    -0.9923270
  H        5.4219950    -0.3393960     0.3861000
  H        4.7833880    -1.9677830     0.6515600
  H       -4.8424050    -1.8242580     0.3291710
units angstrom
no_reorient  #important for SAPT in psi4, default
symmetry c1  #important for SAPT in psi4, default
}

set PROPERTIES_ORIGIN ["COM"]
properties('MP2/aug-cc-pvtz', properties = ['dipole'])
--------------------------------------------------------------------------

    Molecular point group: c1
  Charge       = 0
  Multiplicity = 1
  Basis Set: AUG-CC-PVTZ
    Blend: AUG-CC-PVTZ
  Basis Set: (AUG-CC-PVTZ AUX)
    Blend: AUG-CC-PVTZ-JKFIT

    Orbital Energies [Eh]
    ---------------------

    Doubly Occupied:

       1A    -15.572767     2A    -15.549011     3A    -11.308596
       4A    -11.275233     5A    -11.265598     6A    -11.250283
       7A    -11.245077     8A    -11.242186     9A    -11.242047
      10A    -11.238798    11A    -11.238122    12A    -11.237273
      13A    -11.230400    14A    -11.228910    15A    -11.225186
      16A     -1.290133    17A     -1.217305    18A     -1.141539
      19A     -1.089959    20A     -1.037984    21A     -1.017178
      22A     -1.009433    23A     -0.949366    24A     -0.907371
      25A     -0.847017    26A     -0.839451    27A     -0.829630
      28A     -0.785349    29A     -0.724839    30A     -0.685174
      31A     -0.674322    32A     -0.648262    33A     -0.638423
      34A     -0.622962    35A     -0.610833    36A     -0.594426
      37A     -0.587302    38A     -0.583466    39A     -0.576620
      40A     -0.561552    41A     -0.543223    42A     -0.533863
      43A     -0.523344    44A     -0.513264    45A     -0.508156
      46A     -0.501867    47A     -0.497818    48A     -0.418180
      49A     -0.410342    50A     -0.373622    51A     -0.343435
      52A     -0.337384    53A     -0.286803

  @DF-RHF Final Energy:  -609.53318273904995

   => Energetics <=

    Nuclear Repulsion Energy =            919.3305742769343851
    One-Electron Energy =               -2650.5061469774486795
    Two-Electron Energy =                1121.6423899614644597
    Total Energy =                       -609.5331827390498347
  Basis Set: (AUG-CC-PVTZ AUX)
    Blend: AUG-CC-PVTZ-RI
    Molecular point group: c1

    Geometry (in Angstrom), charge = 0, multiplicity = 1:

       Center              X                  Y                   Z               Mass
    ------------   -----------------  -----------------  -----------------  -----------------
         N           -0.449426943976     1.139721765893    -0.217704887867    14.003074004430
         N            1.809519056024     1.279140765893     0.352399112133    14.003074004430
         C           -1.603767943976     0.313413765893    -0.066505887867    12.000000000000
         C            0.805329056024     0.533368765893    -0.136011887867    12.000000000000
         C           -0.574919943976     2.489824765893     0.333365112133    12.000000000000
         C            1.007372056024    -0.774896234107    -0.627678887867    12.000000000000
         C            3.351156056024    -0.550253234107    -0.067833887867    12.000000000000
         C           -1.713980943976    -0.599500234107     0.992392112133    12.000000000000
         C           -2.659149943976     0.453783765893    -0.975102887867    12.000000000000
         C            2.284359056024    -1.308004234107    -0.579118887867    12.000000000000
         C            3.042354056024     0.735255765893     0.370149112133    12.000000000000
         C           -2.866700943976    -1.373874234107     1.126010112133    12.000000000000
         C           -3.834088643976    -0.321090734107    -0.823234287867    12.000000000000
         C           -3.923126943976    -1.227791234107     0.222611112133    12.000000000000
         C            4.750367056024    -1.096446234107     0.000931112133    12.000000000000
         H            0.180424056024    -1.341175234107    -1.045011887867     1.007825032230
         H           -0.440238943976     2.507464765893     1.422984112133     1.007825032230
         H           -1.573112943976     2.855436765893     0.085757112133     1.007825032230
         H            0.179409056024     3.136160765893    -0.114908887867     1.007825032230
         H           -0.893748943976    -0.698580234107     1.700110112133     1.007825032230
         H           -2.551631943976     1.155545765893    -1.799038887867     1.007825032230
         H            2.462362056024    -2.315257234107    -0.954411887867     1.007825032230
         H            3.826639056024     1.379509765893     0.769792112133     1.007825032230
         H           -2.947227943976    -2.082283234107     1.947380112133     1.007825032230
         H           -4.633376943976    -0.197455234107    -1.535485887867     1.007825032230
         H            5.106355056024    -1.401578234107    -0.988390887867     1.007825032230
         H            5.442289056024    -0.344184234107     0.390036112133     1.007825032230
         H            4.803682056024    -1.972571234107     0.655496112133     1.007825032230
         H           -4.822110943976    -1.829046234107     0.333107112133     1.007825032230

  Basis Set: AUG-CC-PVTZ
    Blend: AUG-CC-PVTZ
  Basis Set: (AUG-CC-PVTZ AUX)
    Blend: AUG-CC-PVTZ-JKFIT
	 Reference Energy          =    -609.5331827390499484 [Eh]
	 Singles Energy            =      -0.0000000000000000 [Eh]
	 Same-Spin Energy          =      -0.6811054031716961 [Eh]
	 Opposite-Spin Energy      =      -2.1308065300691252 [Eh]
	 Correlation Energy        =      -2.8119119332408213 [Eh]
	 Total Energy              =    -612.3450946722907702 [Eh]

	 ================> DF-SCS-MP2 Energies <==================
	-----------------------------------------------------------
	 SCS Same-Spin Scale       =       0.3333333333333333 [-]
	 SCS Opposite-Spin Scale   =       1.2000000000000000 [-]
	 SCS Same-Spin Energy      =      -0.2270351343905654 [Eh]
	 SCS Opposite-Spin Energy  =      -2.5569678360829502 [Eh]
	 SCS Correlation Energy    =      -2.7840029704735154 [Eh]
	 SCS Total Energy          =    -612.3171857095234145 [Eh]
	-----------------------------------------------------------

  Dipole Moment: [D]
     X:    -0.4948      Y:    -1.4619      Z:    -0.1704     Total:     1.5527

*** Psi4 exiting successfully. Buy a developer a beer!
