                               Psi4 1.4a3.dev225

  ==> Input File <==

--------------------------------------------------------------------------
#psi4
#
memory 32 gb

molecule  {
0 1
  N       -0.4697210     1.1445100    -0.2216410
  N        1.7892250     1.2839290     0.3484630
  C       -1.6240620     0.3182020    -0.0704420
  C        0.8224266     0.5659262    -0.1217617
  C       -0.5952140     2.4946130     0.3294290
  C        0.9870780    -0.7701080    -0.6316150
  C        3.3308620    -0.5454650    -0.0717700
  C       -1.7342750    -0.5947120     0.9884560
  C       -2.6794440     0.4585720    -0.9790390
  C        2.2640650    -1.3032160    -0.5830550
  C        3.0220600     0.7400440     0.3662130
  C       -2.8869950    -1.3690860     1.1220740
  C       -3.8377830    -0.3053550    -0.8293160
  C       -3.9434210    -1.2230030     0.2186750
  C        4.7300730    -1.0916580    -0.0030050
  H        0.1601300    -1.3363870    -1.0489480
  H       -0.4605330     2.5122530     1.4190480
  H       -1.5934070     2.8602250     0.0818210
  H        0.1591150     3.1409490    -0.1188450
  H       -0.9140430    -0.6937920     1.6961740
  H       -2.5719260     1.1603340    -1.8029750
  H        2.4420680    -2.3104690    -0.9583480
  H        3.8063450     1.3842980     0.7658560
  H       -2.9675220    -2.0774950     1.9434440
  H       -4.6536710    -0.1926670    -1.5394220
  H        5.0860610    -1.3967900    -0.9923270
  H        5.4219950    -0.3393960     0.3861000
  H        4.7833880    -1.9677830     0.6515600
  H       -4.8424050    -1.8242580     0.3291710
units angstrom
no_reorient  #important for SAPT in psi4, default
symmetry c1  #important for SAPT in psi4, default
}

set PROPERTIES_ORIGIN ["COM"]
properties('MP2/aug-cc-pvtz', properties = ['dipole'])
--------------------------------------------------------------------------

    Molecular point group: c1
  Charge       = 0
  Multiplicity = 1
  Basis Set: AUG-CC-PVTZ
    Blend: AUG-CC-PVTZ
  Basis Set: (AUG-CC-PVTZ AUX)
    Blend: AUG-CC-PVTZ-JKFIT

    Orbital Energies [Eh]
    ---------------------

    Doubly Occupied:

       1A    -15.569631     2A    -15.547719     3A    -11.308280
       4A    -11.274766     5A    -11.266211     6A    -11.250010
       7A    -11.242773     8A    -11.241342     9A    -11.241154
      10A    -11.237242    11A    -11.236714    12A    -11.235947
      13A    -11.233230    14A    -11.232746    15A    -11.226374
      16A     -1.293370    17A     -1.222560    18A     -1.140918
      19A     -1.094671    20A     -1.035062    21A     -1.017853
      22A     -1.007643    23A     -0.948137    24A     -0.908364
      25A     -0.847379    26A     -0.838161    27A     -0.828056
      28A     -0.786025    29A     -0.723627    30A     -0.684885
      31A     -0.676283    32A     -0.647001    33A     -0.640477
      34A     -0.623111    35A     -0.608915    36A     -0.593390
      37A     -0.585611    38A     -0.582587    39A     -0.577304
      40A     -0.562387    41A     -0.545108    42A     -0.531478
      43A     -0.527744    44A     -0.514934    45A     -0.507749
      46A     -0.499316    47A     -0.498330    48A     -0.417698
      49A     -0.409244    50A     -0.377053    51A     -0.342256
      52A     -0.337678    53A     -0.288461

  @DF-RHF Final Energy:  -609.53262088695863

   => Energetics <=

    Nuclear Repulsion Energy =            919.5799141677774742
    One-Electron Energy =               -2650.9951386575571632
    Two-Electron Energy =                1121.8826036028210638
    Total Energy =                       -609.5326208869585116
  Basis Set: (AUG-CC-PVTZ AUX)
    Blend: AUG-CC-PVTZ-RI
    Molecular point group: c1

    Geometry (in Angstrom), charge = 0, multiplicity = 1:

       Center              X                  Y                   Z               Mass
    ------------   -----------------  -----------------  -----------------  -----------------
         N           -0.452697233030     1.137376669549    -0.218676483765    14.003074004430
         N            1.806248766970     1.276795669549     0.351427516235    14.003074004430
         C           -1.607038233030     0.311068669549    -0.067477483765    12.000000000000
         C            0.839450366970     0.558792869549    -0.118797183765    12.000000000000
         C           -0.578190233030     2.487479669549     0.332393516235    12.000000000000
         C            1.004101766970    -0.777241330451    -0.628650483765    12.000000000000
         C            3.347885766970    -0.552598330451    -0.068805483765    12.000000000000
         C           -1.717251233030    -0.601845330451     0.991420516235    12.000000000000
         C           -2.662420233030     0.451438669549    -0.976074483765    12.000000000000
         C            2.281088766970    -1.310349330451    -0.580090483765    12.000000000000
         C            3.039083766970     0.732910669549     0.369177516235    12.000000000000
         C           -2.869971233030    -1.376219330451     1.125038516235    12.000000000000
         C           -3.820759233030    -0.312488330451    -0.826351483765    12.000000000000
         C           -3.926397233030    -1.230136330451     0.221639516235    12.000000000000
         C            4.747096766970    -1.098791330451    -0.000040483765    12.000000000000
         H            0.177153766970    -1.343520330451    -1.045983483765     1.007825032230
         H           -0.443509233030     2.505119669549     1.422012516235     1.007825032230
         H           -1.576383233030     2.853091669549     0.084785516235     1.007825032230
         H            0.176138766970     3.133815669549    -0.115880483765     1.007825032230
         H           -0.897019233030    -0.700925330451     1.699138516235     1.007825032230
         H           -2.554902233030     1.153200669549    -1.800010483765     1.007825032230
         H            2.459091766970    -2.317602330451    -0.955383483765     1.007825032230
         H            3.823368766970     1.377164669549     0.768820516235     1.007825032230
         H           -2.950498233030    -2.084628330451     1.946408516235     1.007825032230
         H           -4.636647233030    -0.199800330451    -1.536457483765     1.007825032230
         H            5.103084766970    -1.403923330451    -0.989362483765     1.007825032230
         H            5.439018766970    -0.346529330451     0.389064516235     1.007825032230
         H            4.800411766970    -1.974916330451     0.654524516235     1.007825032230
         H           -4.825381233030    -1.831391330451     0.332135516235     1.007825032230

  Basis Set: AUG-CC-PVTZ
    Blend: AUG-CC-PVTZ
  Basis Set: (AUG-CC-PVTZ AUX)
    Blend: AUG-CC-PVTZ-JKFIT
	 Reference Energy          =    -609.5326208869586253 [Eh]
	 Singles Energy            =      -0.0000000000000000 [Eh]
	 Same-Spin Energy          =      -0.6803064754085724 [Eh]
	 Opposite-Spin Energy      =      -2.1297732351671979 [Eh]
	 Correlation Energy        =      -2.8100797105757702 [Eh]
	 Total Energy              =    -612.3427005975344173 [Eh]

	 ================> DF-SCS-MP2 Energies <==================
	-----------------------------------------------------------
	 SCS Same-Spin Scale       =       0.3333333333333333 [-]
	 SCS Opposite-Spin Scale   =       1.2000000000000000 [-]
	 SCS Same-Spin Energy      =      -0.2267688251361908 [Eh]
	 SCS Opposite-Spin Energy  =      -2.5557278822006375 [Eh]
	 SCS Correlation Energy    =      -2.7824967073368283 [Eh]
	 SCS Total Energy          =    -612.3151175942954296 [Eh]
	-----------------------------------------------------------

  Dipole Moment: [D]
     X:    -0.2864      Y:    -1.5155      Z:    -0.1611     Total:     1.5507

*** Psi4 exiting successfully. Buy a developer a beer!
