                               Psi4 1.4a3.dev225

  ==> Input File <==

--------------------------------------------------------------------------
#psi4
#
memory 32 gb

molecule  {
0 1
  N       -0.4697210     1.1445100    -0.2216410
  N        1.7892250     1.2839290     0.3484630
  C       -1.6240620     0.3182020    -0.0704420
  C        0.7850350     0.5381570    -0.1399480
  C       -0.5952140     2.4946130     0.3294290
  C        0.9870780    -0.7701080    -0.6316150
  C        3.3308620    -0.5454650    -0.0717700
  C       -1.7342750    -0.5947120     0.9884560
  C       -2.6794440     0.4585720    -0.9790390
  C        2.2640650    -1.3032160    -0.5830550
  C        3.0220600     0.7400440     0.3662130
  C       -2.8869950    -1.3690860     1.1220740
  C       -3.8377830    -0.3053550    -0.8293160
  C       -3.9434210    -1.2230030     0.2186750
  C        4.7300730    -1.0916580    -0.0030050
  H        0.1601300    -1.3363870    -1.0489480
  H       -0.4605330     2.5122530     1.4190480
  H       -1.5934070     2.8602250     0.0818210
  H        0.1591150     3.1409490    -0.1188450
  H       -0.9140430    -0.6937920     1.6961740
  H       -2.5719260     1.1603340    -1.8029750
  H        2.4420680    -2.3104690    -0.9583480
  H        3.8063450     1.3842980     0.7658560
  H       -2.9675220    -2.0774950     1.9434440
  H       -4.6536710    -0.1926670    -1.5394220
  H        5.0860610    -1.3967900    -0.9923270
  H        5.4219950    -0.3393960     0.3861000
  H        4.7736496    -1.8077513     0.5319982
  H       -4.8424050    -1.8242580     0.3291710
units angstrom
no_reorient  #important for SAPT in psi4, default
symmetry c1  #important for SAPT in psi4, default
}

set PROPERTIES_ORIGIN ["COM"]
properties('MP2/aug-cc-pvtz', properties = ['dipole'])
--------------------------------------------------------------------------

    Molecular point group: c1
  Charge       = 0
  Multiplicity = 1
  Basis Set: AUG-CC-PVTZ
    Blend: AUG-CC-PVTZ
  Basis Set: (AUG-CC-PVTZ AUX)
    Blend: AUG-CC-PVTZ-JKFIT

    Orbital Energies [Eh]
    ---------------------

    Doubly Occupied:

       1A    -15.572372     2A    -15.548551     3A    -11.308031
       4A    -11.275125     5A    -11.264769     6A    -11.249906
       7A    -11.244887     8A    -11.241849     9A    -11.241623
      10A    -11.237903    11A    -11.237488    12A    -11.236614
      13A    -11.229280    14A    -11.228476    15A    -11.200462
      16A     -1.289734    17A     -1.216992    18A     -1.142075
      19A     -1.092527    20A     -1.040853    21A     -1.018608
      22A     -1.009738    23A     -0.962133    24A     -0.912371
      25A     -0.847331    26A     -0.841093    27A     -0.829996
      28A     -0.786405    29A     -0.724408    30A     -0.685743
      31A     -0.674281    32A     -0.648003    33A     -0.642497
      34A     -0.622637    35A     -0.611397    36A     -0.605935
      37A     -0.592334    38A     -0.587319    39A     -0.581923
      40A     -0.561294    41A     -0.547707    42A     -0.533887
      43A     -0.525550    44A     -0.513933    45A     -0.507312
      46A     -0.499872    47A     -0.498420    48A     -0.418611
      49A     -0.409811    50A     -0.373506    51A     -0.342771
      52A     -0.338823    53A     -0.286531

  @DF-RHF Final Energy:  -609.49995213278578

   => Energetics <=

    Nuclear Repulsion Energy =            920.6092973266408990
    One-Electron Energy =               -2652.9351078161885198
    Two-Electron Energy =                1122.8258583567617279
    Total Energy =                       -609.4999521327858929
  Basis Set: (AUG-CC-PVTZ AUX)
    Blend: AUG-CC-PVTZ-RI
    Molecular point group: c1

    Geometry (in Angstrom), charge = 0, multiplicity = 1:

       Center              X                  Y                   Z               Mass
    ------------   -----------------  -----------------  -----------------  -----------------
         N           -0.450382859122     1.138244578797    -0.216966710246    14.003074004430
         N            1.808563140878     1.277663578797     0.353137289754    14.003074004430
         C           -1.604723859122     0.311936578797    -0.065767710246    12.000000000000
         C            0.804373140878     0.531891578797    -0.135273710246    12.000000000000
         C           -0.575875859122     2.488347578797     0.334103289754    12.000000000000
         C            1.006416140878    -0.776373421203    -0.626940710246    12.000000000000
         C            3.350200140878    -0.551730421203    -0.067095710246    12.000000000000
         C           -1.714936859122    -0.600977421203     0.993130289754    12.000000000000
         C           -2.660105859122     0.452306578797    -0.974364710246    12.000000000000
         C            2.283403140878    -1.309481421203    -0.578380710246    12.000000000000
         C            3.041398140878     0.733778578797     0.370887289754    12.000000000000
         C           -2.867656859122    -1.375351421203     1.126748289754    12.000000000000
         C           -3.818444859122    -0.311620421203    -0.824641710246    12.000000000000
         C           -3.924082859122    -1.229268421203     0.223349289754    12.000000000000
         C            4.749411140878    -1.097923421203     0.001669289754    12.000000000000
         H            0.179468140878    -1.342652421203    -1.044273710246     1.007825032230
         H           -0.441194859122     2.505987578797     1.423722289754     1.007825032230
         H           -1.574068859122     2.853959578797     0.086495289754     1.007825032230
         H            0.178453140878     3.134683578797    -0.114170710246     1.007825032230
         H           -0.894704859122    -0.700057421203     1.700848289754     1.007825032230
         H           -2.552587859122     1.154068578797    -1.798300710246     1.007825032230
         H            2.461406140878    -2.316734421203    -0.953673710246     1.007825032230
         H            3.825683140878     1.378032578797     0.770530289754     1.007825032230
         H           -2.948183859122    -2.083760421203     1.948118289754     1.007825032230
         H           -4.634332859122    -0.198932421203    -1.534747710246     1.007825032230
         H            5.105399140878    -1.403055421203    -0.987652710246     1.007825032230
         H            5.441333140878    -0.345661421203     0.390774289754     1.007825032230
         H            4.792987740878    -1.814016721203     0.536672489754     1.007825032230
         H           -4.823066859122    -1.830523421203     0.333845289754     1.007825032230

  Basis Set: AUG-CC-PVTZ
    Blend: AUG-CC-PVTZ
  Basis Set: (AUG-CC-PVTZ AUX)
    Blend: AUG-CC-PVTZ-JKFIT
	 Reference Energy          =    -609.4999521327857792 [Eh]
	 Singles Energy            =      -0.0000000000000000 [Eh]
	 Same-Spin Energy          =      -0.6812930642524934 [Eh]
	 Opposite-Spin Energy      =      -2.1301655130865247 [Eh]
	 Correlation Energy        =      -2.8114585773390179 [Eh]
	 Total Energy              =    -612.3114107101248464 [Eh]

	 ================> DF-SCS-MP2 Energies <==================
	-----------------------------------------------------------
	 SCS Same-Spin Scale       =       0.3333333333333333 [-]
	 SCS Opposite-Spin Scale   =       1.2000000000000000 [-]
	 SCS Same-Spin Energy      =      -0.2270976880841644 [Eh]
	 SCS Opposite-Spin Energy  =      -2.5561986157038294 [Eh]
	 SCS Correlation Energy    =      -2.7832963037879939 [Eh]
	 SCS Total Energy          =    -612.2832484365737855 [Eh]
	-----------------------------------------------------------

  Dipole Moment: [D]
     X:    -0.4350      Y:    -1.5210      Z:    -0.1378     Total:     1.5880

*** Psi4 exiting successfully. Buy a developer a beer!
