                               Psi4 1.4a3.dev225

  ==> Input File <==

--------------------------------------------------------------------------
#psi4
#
memory 32 gb

molecule  {
0 1
  N       -0.4697210     1.1445100    -0.2216410
  N        1.7892250     1.2839290     0.3484630
  C       -1.6240620     0.3182020    -0.0704420
  C        0.7850350     0.5381570    -0.1399480
  C       -0.5952140     2.4946130     0.3294290
  C        0.9870780    -0.7701080    -0.6316150
  C        3.3308620    -0.5454650    -0.0717700
  C       -1.7342750    -0.5947120     0.9884560
  C       -2.6699920     0.4477013    -0.9593974
  C        2.2640650    -1.3032160    -0.5830550
  C        3.0220600     0.7400440     0.3662130
  C       -2.8869950    -1.3690860     1.1220740
  C       -3.8377830    -0.3053550    -0.8293160
  C       -3.9434210    -1.2230030     0.2186750
  C        4.7300730    -1.0916580    -0.0030050
  H        0.1601300    -1.3363870    -1.0489480
  H       -0.4605330     2.5122530     1.4190480
  H       -1.5934070     2.8602250     0.0818210
  H        0.1591150     3.1409490    -0.1188450
  H       -0.9140430    -0.6937920     1.6961740
  H       -2.5719260     1.1603340    -1.8029750
  H        2.4420680    -2.3104690    -0.9583480
  H        3.8063450     1.3842980     0.7658560
  H       -2.9675220    -2.0774950     1.9434440
  H       -4.6536710    -0.1926670    -1.5394220
  H        5.0860610    -1.3967900    -0.9923270
  H        5.4219950    -0.3393960     0.3861000
  H        4.7833880    -1.9677830     0.6515600
  H       -4.8424050    -1.8242580     0.3291710
units angstrom
no_reorient  #important for SAPT in psi4, default
symmetry c1  #important for SAPT in psi4, default
}

set PROPERTIES_ORIGIN ["COM"]
properties('MP2/aug-cc-pvtz', properties = ['dipole'])
--------------------------------------------------------------------------

    Molecular point group: c1
  Charge       = 0
  Multiplicity = 1
  Basis Set: AUG-CC-PVTZ
    Blend: AUG-CC-PVTZ
  Basis Set: (AUG-CC-PVTZ AUX)
    Blend: AUG-CC-PVTZ-JKFIT

    Orbital Energies [Eh]
    ---------------------

    Doubly Occupied:

       1A    -15.572808     2A    -15.549024     3A    -11.308653
       4A    -11.272903     5A    -11.265616     6A    -11.250313
       7A    -11.245109     8A    -11.241795     9A    -11.241533
      10A    -11.238228    11A    -11.237870    12A    -11.236272
      13A    -11.230404    14A    -11.228957    15A    -11.225190
      16A     -1.290335    17A     -1.217872    18A     -1.143881
      19A     -1.089973    20A     -1.038225    21A     -1.018120
      22A     -1.010747    23A     -0.949385    24A     -0.907506
      25A     -0.847060    26A     -0.840438    27A     -0.827917
      28A     -0.786192    29A     -0.725304    30A     -0.683895
      31A     -0.674365    32A     -0.648690    33A     -0.637980
      34A     -0.623215    35A     -0.609863    36A     -0.593514
      37A     -0.587146    38A     -0.583410    39A     -0.576585
      40A     -0.561780    41A     -0.543269    42A     -0.534153
      43A     -0.523402    44A     -0.514370    45A     -0.507319
      46A     -0.501024    47A     -0.498198    48A     -0.418313
      49A     -0.410399    50A     -0.373680    51A     -0.342537
      52A     -0.340526    53A     -0.286897

  @DF-RHF Final Energy:  -609.53326930979529

   => Energetics <=

    Nuclear Repulsion Energy =            920.0828291684358646
    One-Electron Energy =               -2652.0078742418795628
    Two-Electron Energy =                1122.3917757636484112
    Total Energy =                       -609.5332693097952870
  Basis Set: (AUG-CC-PVTZ AUX)
    Blend: AUG-CC-PVTZ-RI
    Molecular point group: c1

    Geometry (in Angstrom), charge = 0, multiplicity = 1:

       Center              X                  Y                   Z               Mass
    ------------   -----------------  -----------------  -----------------  -----------------
         N           -0.451004912822     1.139717114065    -0.218764632257    14.003074004430
         N            1.807941087178     1.279136114065     0.351339367743    14.003074004430
         C           -1.605345912822     0.313409114065    -0.067565632257    12.000000000000
         C            0.803751087178     0.533364114065    -0.137071632257    12.000000000000
         C           -0.576497912822     2.489820114065     0.332305367743    12.000000000000
         C            1.005794087178    -0.774900885935    -0.628738632257    12.000000000000
         C            3.349578087178    -0.550257885935    -0.068893632257    12.000000000000
         C           -1.715558912822    -0.599504885935     0.991332367743    12.000000000000
         C           -2.651275912822     0.442908414065    -0.956521032257    12.000000000000
         C            2.282781087178    -1.308008885935    -0.580178632257    12.000000000000
         C            3.040776087178     0.735251114065     0.369089367743    12.000000000000
         C           -2.868278912822    -1.373878885935     1.124950367743    12.000000000000
         C           -3.819066912822    -0.310147885935    -0.826439632257    12.000000000000
         C           -3.924704912822    -1.227795885935     0.221551367743    12.000000000000
         C            4.748789087178    -1.096450885935    -0.000128632257    12.000000000000
         H            0.178846087178    -1.341179885935    -1.046071632257     1.007825032230
         H           -0.441816912822     2.507460114065     1.421924367743     1.007825032230
         H           -1.574690912822     2.855432114065     0.084697367743     1.007825032230
         H            0.177831087178     3.136156114065    -0.115968632257     1.007825032230
         H           -0.895326912822    -0.698584885935     1.699050367743     1.007825032230
         H           -2.553209912822     1.155541114065    -1.800098632257     1.007825032230
         H            2.460784087178    -2.315261885935    -0.955471632257     1.007825032230
         H            3.825061087178     1.379505114065     0.768732367743     1.007825032230
         H           -2.948805912822    -2.082287885935     1.946320367743     1.007825032230
         H           -4.634954912822    -0.197459885935    -1.536545632257     1.007825032230
         H            5.104777087178    -1.401582885935    -0.989450632257     1.007825032230
         H            5.440711087178    -0.344188885935     0.388976367743     1.007825032230
         H            4.802104087178    -1.972575885935     0.654436367743     1.007825032230
         H           -4.823688912822    -1.829050885935     0.332047367743     1.007825032230

  Basis Set: AUG-CC-PVTZ
    Blend: AUG-CC-PVTZ
  Basis Set: (AUG-CC-PVTZ AUX)
    Blend: AUG-CC-PVTZ-JKFIT
	 Reference Energy          =    -609.5332693097952870 [Eh]
	 Singles Energy            =      -0.0000000000000000 [Eh]
	 Same-Spin Energy          =      -0.6811285760526377 [Eh]
	 Opposite-Spin Energy      =      -2.1306593147719921 [Eh]
	 Correlation Energy        =      -2.8117878908246299 [Eh]
	 Total Energy              =    -612.3450572006198627 [Eh]

	 ================> DF-SCS-MP2 Energies <==================
	-----------------------------------------------------------
	 SCS Same-Spin Scale       =       0.3333333333333333 [-]
	 SCS Opposite-Spin Scale   =       1.2000000000000000 [-]
	 SCS Same-Spin Energy      =      -0.2270428586842125 [Eh]
	 SCS Opposite-Spin Energy  =      -2.5567911777263905 [Eh]
	 SCS Correlation Energy    =      -2.7838340364106031 [Eh]
	 SCS Total Energy          =    -612.3171033462058404 [Eh]
	-----------------------------------------------------------

  Dipole Moment: [D]
     X:    -0.5052      Y:    -1.4719      Z:    -0.1639     Total:     1.5648

*** Psi4 exiting successfully. Buy a developer a beer!
