                               Psi4 1.4a3.dev225

  ==> Input File <==

--------------------------------------------------------------------------
#psi4
#
memory 32 gb

molecule  {
0 1
  N       -0.4697210     1.1445100    -0.2216410
  N        1.7892250     1.2839290     0.3484630
  C       -1.6240620     0.3182020    -0.0704420
  C        0.7850350     0.5381570    -0.1399480
  C       -0.5952140     2.4946130     0.3294290
  C        0.9727703    -0.6774633    -0.5967976
  C        3.3308620    -0.5454650    -0.0717700
  C       -1.7342750    -0.5947120     0.9884560
  C       -2.6794440     0.4585720    -0.9790390
  C        2.2640650    -1.3032160    -0.5830550
  C        3.0220600     0.7400440     0.3662130
  C       -2.8869950    -1.3690860     1.1220740
  C       -3.8377830    -0.3053550    -0.8293160
  C       -3.9434210    -1.2230030     0.2186750
  C        4.7300730    -1.0916580    -0.0030050
  H        0.1601300    -1.3363870    -1.0489480
  H       -0.4605330     2.5122530     1.4190480
  H       -1.5934070     2.8602250     0.0818210
  H        0.1591150     3.1409490    -0.1188450
  H       -0.9140430    -0.6937920     1.6961740
  H       -2.5719260     1.1603340    -1.8029750
  H        2.4420680    -2.3104690    -0.9583480
  H        3.8063450     1.3842980     0.7658560
  H       -2.9675220    -2.0774950     1.9434440
  H       -4.6536710    -0.1926670    -1.5394220
  H        5.0860610    -1.3967900    -0.9923270
  H        5.4219950    -0.3393960     0.3861000
  H        4.7833880    -1.9677830     0.6515600
  H       -4.8424050    -1.8242580     0.3291710
units angstrom
no_reorient  #important for SAPT in psi4, default
symmetry c1  #important for SAPT in psi4, default
}

set PROPERTIES_ORIGIN ["COM"]
properties('MP2/aug-cc-pvtz', properties = ['dipole'])
--------------------------------------------------------------------------

    Molecular point group: c1
  Charge       = 0
  Multiplicity = 1
  Basis Set: AUG-CC-PVTZ
    Blend: AUG-CC-PVTZ
  Basis Set: (AUG-CC-PVTZ AUX)
    Blend: AUG-CC-PVTZ-JKFIT

    Orbital Energies [Eh]
    ---------------------

    Doubly Occupied:

       1A    -15.566404     2A    -15.551602     3A    -11.293251
       4A    -11.272602     5A    -11.269377     6A    -11.258070
       7A    -11.242680     8A    -11.239913     9A    -11.239650
      10A    -11.235723    11A    -11.235115    12A    -11.234520
      13A    -11.234134    14A    -11.227499    15A    -11.225414
      16A     -1.292250    17A     -1.217990    18A     -1.140035
      19A     -1.088150    20A     -1.045759    21A     -1.016421
      22A     -1.006557    23A     -0.950066    24A     -0.907104
      25A     -0.856070    26A     -0.836045    27A     -0.826950
      28A     -0.784930    29A     -0.724213    30A     -0.683997
      31A     -0.677810    32A     -0.646493    33A     -0.634226
      34A     -0.615476    35A     -0.609686    36A     -0.593451
      37A     -0.588229    38A     -0.583738    39A     -0.577956
      40A     -0.561350    41A     -0.546341    42A     -0.535898
      43A     -0.528122    44A     -0.510166    45A     -0.502535
      46A     -0.497699    47A     -0.491198    48A     -0.418666
      49A     -0.413366    50A     -0.366855    51A     -0.341901
      52A     -0.337937    53A     -0.291542

  @DF-RHF Final Energy:  -609.51948056241861

   => Energetics <=

    Nuclear Repulsion Energy =            921.2419074614878127
    One-Electron Energy =               -2654.3765158664864430
    Two-Electron Energy =                1123.6151278425802502
    Total Energy =                       -609.5194805624184937
  Basis Set: (AUG-CC-PVTZ AUX)
    Blend: AUG-CC-PVTZ-RI
    Molecular point group: c1

    Geometry (in Angstrom), charge = 0, multiplicity = 1:

       Center              X                  Y                   Z               Mass
    ------------   -----------------  -----------------  -----------------  -----------------
         N           -0.449565771945     1.133447117242    -0.219683840585    14.003074004430
         N            1.809380228055     1.272866117242     0.350420159415    14.003074004430
         C           -1.603906771945     0.307139117242    -0.068484840585    12.000000000000
         C            0.805190228055     0.527094117242    -0.137990840585    12.000000000000
         C           -0.575058771945     2.483550117242     0.331386159415    12.000000000000
         C            0.992925528055    -0.688526182758    -0.594840440585    12.000000000000
         C            3.351017228055    -0.556527882758    -0.069812840585    12.000000000000
         C           -1.714119771945    -0.605774882758     0.990413159415    12.000000000000
         C           -2.659288771945     0.447509117242    -0.977081840585    12.000000000000
         C            2.284220228055    -1.314278882758    -0.581097840585    12.000000000000
         C            3.042215228055     0.728981117242     0.368170159415    12.000000000000
         C           -2.866839771945    -1.380148882758     1.124031159415    12.000000000000
         C           -3.817627771945    -0.316417882758    -0.827358840585    12.000000000000
         C           -3.923265771945    -1.234065882758     0.220632159415    12.000000000000
         C            4.750228228055    -1.102720882758    -0.001047840585    12.000000000000
         H            0.180285228055    -1.347449882758    -1.046990840585     1.007825032230
         H           -0.440377771945     2.501190117242     1.421005159415     1.007825032230
         H           -1.573251771945     2.849162117242     0.083778159415     1.007825032230
         H            0.179270228055     3.129886117242    -0.116887840585     1.007825032230
         H           -0.893887771945    -0.704854882758     1.698131159415     1.007825032230
         H           -2.551770771945     1.149271117242    -1.801017840585     1.007825032230
         H            2.462223228055    -2.321531882758    -0.956390840585     1.007825032230
         H            3.826500228055     1.373235117242     0.767813159415     1.007825032230
         H           -2.947366771945    -2.088557882758     1.945401159415     1.007825032230
         H           -4.633515771945    -0.203729882758    -1.537464840585     1.007825032230
         H            5.106216228055    -1.407852882758    -0.990369840585     1.007825032230
         H            5.442150228055    -0.350458882758     0.388057159415     1.007825032230
         H            4.803543228055    -1.978845882758     0.653517159415     1.007825032230
         H           -4.822249771945    -1.835320882758     0.331128159415     1.007825032230

  Basis Set: AUG-CC-PVTZ
    Blend: AUG-CC-PVTZ
  Basis Set: (AUG-CC-PVTZ AUX)
    Blend: AUG-CC-PVTZ-JKFIT
	 Reference Energy          =    -609.5194805624186074 [Eh]
	 Singles Energy            =      -0.0000000000000000 [Eh]
	 Same-Spin Energy          =      -0.6819126277071277 [Eh]
	 Opposite-Spin Energy      =      -2.1316573377739712 [Eh]
	 Correlation Energy        =      -2.8135699654810988 [Eh]
	 Total Energy              =    -612.3330505278996725 [Eh]

	 ================> DF-SCS-MP2 Energies <==================
	-----------------------------------------------------------
	 SCS Same-Spin Scale       =       0.3333333333333333 [-]
	 SCS Opposite-Spin Scale   =       1.2000000000000000 [-]
	 SCS Same-Spin Energy      =      -0.2273042092357092 [Eh]
	 SCS Opposite-Spin Energy  =      -2.5579888053287654 [Eh]
	 SCS Correlation Energy    =      -2.7852930145644748 [Eh]
	 SCS Total Energy          =    -612.3047735769830524 [Eh]
	-----------------------------------------------------------

  Dipole Moment: [D]
     X:    -0.1581      Y:    -1.5449      Z:    -0.1678     Total:     1.5621

*** Psi4 exiting successfully. Buy a developer a beer!
