                               Psi4 1.4a3.dev225

  ==> Input File <==

--------------------------------------------------------------------------
#psi4
#
memory 32 gb

molecule  {
0 1
  N       -0.4697210     1.1445100    -0.2216410
  N        1.7892250     1.2839290     0.3484630
  C       -1.6240620     0.3182020    -0.0704420
  C        0.7850350     0.5381570    -0.1399480
  C       -0.5952140     2.4946130     0.3294290
  C        0.9870780    -0.7701080    -0.6316150
  C        3.3308620    -0.5454650    -0.0717700
  C       -1.7342750    -0.5947120     0.9884560
  C       -2.6794440     0.4585720    -0.9790390
  C        2.2640650    -1.3032160    -0.5830550
  C        3.0220600     0.7400440     0.3662130
  C       -2.8869950    -1.3690860     1.1220740
  C       -3.8377830    -0.3053550    -0.8293160
  C       -3.9559970    -1.2399006     0.2309782
  C        4.7300730    -1.0916580    -0.0030050
  H        0.1601300    -1.3363870    -1.0489480
  H       -0.4605330     2.5122530     1.4190480
  H       -1.5934070     2.8602250     0.0818210
  H        0.1591150     3.1409490    -0.1188450
  H       -0.9140430    -0.6937920     1.6961740
  H       -2.5719260     1.1603340    -1.8029750
  H        2.4420680    -2.3104690    -0.9583480
  H        3.8063450     1.3842980     0.7658560
  H       -2.9675220    -2.0774950     1.9434440
  H       -4.6536710    -0.1926670    -1.5394220
  H        5.0860610    -1.3967900    -0.9923270
  H        5.4219950    -0.3393960     0.3861000
  H        4.7833880    -1.9677830     0.6515600
  H       -4.8424050    -1.8242580     0.3291710
units angstrom
no_reorient  #important for SAPT in psi4, default
symmetry c1  #important for SAPT in psi4, default
}

set PROPERTIES_ORIGIN ["COM"]
properties('MP2/aug-cc-pvtz', properties = ['dipole'])
--------------------------------------------------------------------------

    Molecular point group: c1
  Charge       = 0
  Multiplicity = 1
  Basis Set: AUG-CC-PVTZ
    Blend: AUG-CC-PVTZ
  Basis Set: (AUG-CC-PVTZ AUX)
    Blend: AUG-CC-PVTZ-JKFIT

    Orbital Energies [Eh]
    ---------------------

    Doubly Occupied:

       1A    -15.573012     2A    -15.549086     3A    -11.308696
       4A    -11.275924     5A    -11.265612     6A    -11.250292
       7A    -11.245347     8A    -11.244278     9A    -11.242247
      10A    -11.238685    11A    -11.237644    12A    -11.236914
      13A    -11.230441    14A    -11.228964    15A    -11.225207
      16A     -1.290306    17A     -1.217449    18A     -1.140208
      19A     -1.089925    20A     -1.038061    21A     -1.017596
      22A     -1.008542    23A     -0.949444    24A     -0.907838
      25A     -0.847048    26A     -0.839909    27A     -0.828123
      28A     -0.786021    29A     -0.724207    30A     -0.687821
      31A     -0.674658    32A     -0.648407    33A     -0.638328
      34A     -0.622478    35A     -0.609258    36A     -0.592097
      37A     -0.588496    38A     -0.583939    39A     -0.576723
      40A     -0.562565    41A     -0.543501    42A     -0.535161
      43A     -0.523410    44A     -0.516957    45A     -0.507130
      46A     -0.499344    47A     -0.497140    48A     -0.417970
      49A     -0.410400    50A     -0.373676    51A     -0.341243
      52A     -0.339432    53A     -0.286401

  @DF-RHF Final Energy:  -609.53274155460986

   => Energetics <=

    Nuclear Repulsion Energy =            919.1673051897257665
    One-Electron Energy =               -2650.1729675504761872
    Two-Electron Energy =                1121.4729208061405643
    Total Energy =                       -609.5327415546098564
  Basis Set: (AUG-CC-PVTZ AUX)
    Blend: AUG-CC-PVTZ-RI
    Molecular point group: c1

    Geometry (in Angstrom), charge = 0, multiplicity = 1:

       Center              X                  Y                   Z               Mass
    ------------   -----------------  -----------------  -----------------  -----------------
         N           -0.449670662169     1.140082167418    -0.218320140474    14.003074004430
         N            1.809275337831     1.279501167418     0.351783859526    14.003074004430
         C           -1.604011662169     0.313774167418    -0.067121140474    12.000000000000
         C            0.805085337831     0.533729167418    -0.136627140474    12.000000000000
         C           -0.575163662169     2.490185167418     0.332749859526    12.000000000000
         C            1.007128337831    -0.774535832582    -0.628294140474    12.000000000000
         C            3.350912337831    -0.549892832582    -0.068449140474    12.000000000000
         C           -1.714224662169    -0.599139832582     0.991776859526    12.000000000000
         C           -2.659393662169     0.454144167418    -0.975718140474    12.000000000000
         C            2.284115337831    -1.307643832582    -0.579734140474    12.000000000000
         C            3.042110337831     0.735616167418     0.369533859526    12.000000000000
         C           -2.866944662169    -1.373513832582     1.125394859526    12.000000000000
         C           -3.817732662169    -0.309782832582    -0.825995140474    12.000000000000
         C           -3.935946662169    -1.244328432582     0.234299059526    12.000000000000
         C            4.750123337831    -1.096085832582     0.000315859526    12.000000000000
         H            0.180180337831    -1.340814832582    -1.045627140474     1.007825032230
         H           -0.440482662169     2.507825167418     1.422368859526     1.007825032230
         H           -1.573356662169     2.855797167418     0.085141859526     1.007825032230
         H            0.179165337831     3.136521167418    -0.115524140474     1.007825032230
         H           -0.893992662169    -0.698219832582     1.699494859526     1.007825032230
         H           -2.551875662169     1.155906167418    -1.799654140474     1.007825032230
         H            2.462118337831    -2.314896832582    -0.955027140474     1.007825032230
         H            3.826395337831     1.379870167418     0.769176859526     1.007825032230
         H           -2.947471662169    -2.081922832582     1.946764859526     1.007825032230
         H           -4.633620662169    -0.197094832582    -1.536101140474     1.007825032230
         H            5.106111337831    -1.401217832582    -0.989006140474     1.007825032230
         H            5.442045337831    -0.343823832582     0.389420859526     1.007825032230
         H            4.803438337831    -1.972210832582     0.654880859526     1.007825032230
         H           -4.822354662169    -1.828685832582     0.332491859526     1.007825032230

  Basis Set: AUG-CC-PVTZ
    Blend: AUG-CC-PVTZ
  Basis Set: (AUG-CC-PVTZ AUX)
    Blend: AUG-CC-PVTZ-JKFIT
	 Reference Energy          =    -609.5327415546098564 [Eh]
	 Singles Energy            =      -0.0000000000000000 [Eh]
	 Same-Spin Energy          =      -0.6811210934226958 [Eh]
	 Opposite-Spin Energy      =      -2.1308851808274198 [Eh]
	 Correlation Energy        =      -2.8120062742501157 [Eh]
	 Total Energy              =    -612.3447478288600223 [Eh]

	 ================> DF-SCS-MP2 Energies <==================
	-----------------------------------------------------------
	 SCS Same-Spin Scale       =       0.3333333333333333 [-]
	 SCS Opposite-Spin Scale   =       1.2000000000000000 [-]
	 SCS Same-Spin Energy      =      -0.2270403644742319 [Eh]
	 SCS Opposite-Spin Energy  =      -2.5570622169929038 [Eh]
	 SCS Correlation Energy    =      -2.7841025814671356 [Eh]
	 SCS Total Energy          =    -612.3168441360769521 [Eh]
	-----------------------------------------------------------

  Dipole Moment: [D]
     X:    -0.4933      Y:    -1.4637      Z:    -0.1691     Total:     1.5539

*** Psi4 exiting successfully. Buy a developer a beer!
