                               Psi4 1.4a3.dev225

  ==> Input File <==

--------------------------------------------------------------------------
#psi4
#
memory 32 gb

molecule  {
0 1
  N       -0.4697210     1.1445100    -0.2216410
  N        1.7892250     1.2839290     0.3484630
  C       -1.6240620     0.3182020    -0.0704420
  C        0.7102519     0.4826185    -0.1763205
  C       -0.5952140     2.4946130     0.3294290
  C        0.9870780    -0.7701080    -0.6316150
  C        3.3308620    -0.5454650    -0.0717700
  C       -1.7342750    -0.5947120     0.9884560
  C       -2.6794440     0.4585720    -0.9790390
  C        2.2640650    -1.3032160    -0.5830550
  C        3.0220600     0.7400440     0.3662130
  C       -2.8869950    -1.3690860     1.1220740
  C       -3.8377830    -0.3053550    -0.8293160
  C       -3.9434210    -1.2230030     0.2186750
  C        4.7300730    -1.0916580    -0.0030050
  H        0.1601300    -1.3363870    -1.0489480
  H       -0.4605330     2.5122530     1.4190480
  H       -1.5934070     2.8602250     0.0818210
  H        0.1591150     3.1409490    -0.1188450
  H       -0.9140430    -0.6937920     1.6961740
  H       -2.5719260     1.1603340    -1.8029750
  H        2.4420680    -2.3104690    -0.9583480
  H        3.8063450     1.3842980     0.7658560
  H       -2.9675220    -2.0774950     1.9434440
  H       -4.6536710    -0.1926670    -1.5394220
  H        5.0860610    -1.3967900    -0.9923270
  H        5.4219950    -0.3393960     0.3861000
  H        4.7833880    -1.9677830     0.6515600
  H       -4.8424050    -1.8242580     0.3291710
units angstrom
no_reorient  #important for SAPT in psi4, default
symmetry c1  #important for SAPT in psi4, default
}

set PROPERTIES_ORIGIN ["COM"]
properties('MP2/aug-cc-pvtz', properties = ['dipole'])
--------------------------------------------------------------------------

    Molecular point group: c1
  Charge       = 0
  Multiplicity = 1
  Basis Set: AUG-CC-PVTZ
    Blend: AUG-CC-PVTZ
  Basis Set: (AUG-CC-PVTZ AUX)
    Blend: AUG-CC-PVTZ-JKFIT

    Orbital Energies [Eh]
    ---------------------

    Doubly Occupied:

       1A    -15.578123     2A    -15.550645     3A    -11.307801
       4A    -11.276242     5A    -11.264326     6A    -11.250337
       7A    -11.250039     8A    -11.243242     9A    -11.242931
      10A    -11.239621    11A    -11.239410    12A    -11.238341
      13A    -11.226786    14A    -11.223242    15A    -11.220053
      16A     -1.293694    17A     -1.204018    18A     -1.144498
      19A     -1.081220    20A     -1.043721    21A     -1.020126
      22A     -1.010856    23A     -0.953970    24A     -0.905804
      25A     -0.847548    26A     -0.840935    27A     -0.831093
      28A     -0.782720    29A     -0.726315    30A     -0.687667
      31A     -0.672628    32A     -0.651271    33A     -0.631576
      34A     -0.621255    35A     -0.611034    36A     -0.597916
      37A     -0.592892    38A     -0.583867    39A     -0.575173
      40A     -0.560705    41A     -0.541975    42A     -0.537756
      43A     -0.517654    44A     -0.513880    45A     -0.506958
      46A     -0.500792    47A     -0.497402    48A     -0.423914
      49A     -0.403377    50A     -0.369075    51A     -0.343423
      52A     -0.340920    53A     -0.282736

  @DF-RHF Final Energy:  -609.51827476205528

   => Energetics <=

    Nuclear Repulsion Energy =            919.7678499287617342
    One-Electron Energy =               -2651.3652405788225224
    Two-Electron Energy =                1122.0791158880053899
    Total Energy =                       -609.5182747620553982
  Basis Set: (AUG-CC-PVTZ AUX)
    Blend: AUG-CC-PVTZ-RI
    Molecular point group: c1

    Geometry (in Angstrom), charge = 0, multiplicity = 1:

       Center              X                  Y                   Z               Mass
    ------------   -----------------  -----------------  -----------------  -----------------
         N           -0.445902736630     1.142422672505    -0.215371820858    14.003074004430
         N            1.813043263370     1.281841672505     0.354732179142    14.003074004430
         C           -1.600243736630     0.316114672505    -0.064172820858    12.000000000000
         C            0.734070163370     0.480531172505    -0.170051320858    12.000000000000
         C           -0.571395736630     2.492525672505     0.335698179142    12.000000000000
         C            1.010896263370    -0.772195327495    -0.625345820858    12.000000000000
         C            3.354680263370    -0.547552327495    -0.065500820858    12.000000000000
         C           -1.710456736630    -0.596799327495     0.994725179142    12.000000000000
         C           -2.655625736630     0.456484672505    -0.972769820858    12.000000000000
         C            2.287883263370    -1.305303327495    -0.576785820858    12.000000000000
         C            3.045878263370     0.737956672505     0.372482179142    12.000000000000
         C           -2.863176736630    -1.371173327495     1.128343179142    12.000000000000
         C           -3.813964736630    -0.307442327495    -0.823046820858    12.000000000000
         C           -3.919602736630    -1.225090327495     0.224944179142    12.000000000000
         C            4.753891263370    -1.093745327495     0.003264179142    12.000000000000
         H            0.183948263370    -1.338474327495    -1.042678820858     1.007825032230
         H           -0.436714736630     2.510165672505     1.425317179142     1.007825032230
         H           -1.569588736630     2.858137672505     0.088090179142     1.007825032230
         H            0.182933263370     3.138861672505    -0.112575820858     1.007825032230
         H           -0.890224736630    -0.695879327495     1.702443179142     1.007825032230
         H           -2.548107736630     1.158246672505    -1.796705820858     1.007825032230
         H            2.465886263370    -2.312556327495    -0.952078820858     1.007825032230
         H            3.830163263370     1.382210672505     0.772125179142     1.007825032230
         H           -2.943703736630    -2.079582327495     1.949713179142     1.007825032230
         H           -4.629852736630    -0.194754327495    -1.533152820858     1.007825032230
         H            5.109879263370    -1.398877327495    -0.986057820858     1.007825032230
         H            5.445813263370    -0.341483327495     0.392369179142     1.007825032230
         H            4.807206263370    -1.969870327495     0.657829179142     1.007825032230
         H           -4.818586736630    -1.826345327495     0.335440179142     1.007825032230

  Basis Set: AUG-CC-PVTZ
    Blend: AUG-CC-PVTZ
  Basis Set: (AUG-CC-PVTZ AUX)
    Blend: AUG-CC-PVTZ-JKFIT
	 Reference Energy          =    -609.5182747620552846 [Eh]
	 Singles Energy            =      -0.0000000000000000 [Eh]
	 Same-Spin Energy          =      -0.6826327220648892 [Eh]
	 Opposite-Spin Energy      =      -2.1335992842792568 [Eh]
	 Correlation Energy        =      -2.8162320063441459 [Eh]
	 Total Energy              =    -612.3345067683994785 [Eh]

	 ================> DF-SCS-MP2 Energies <==================
	-----------------------------------------------------------
	 SCS Same-Spin Scale       =       0.3333333333333333 [-]
	 SCS Opposite-Spin Scale   =       1.2000000000000000 [-]
	 SCS Same-Spin Energy      =      -0.2275442406882964 [Eh]
	 SCS Opposite-Spin Energy  =      -2.5603191411351083 [Eh]
	 SCS Correlation Energy    =      -2.7878633818234047 [Eh]
	 SCS Total Energy          =    -612.3061381438786839 [Eh]
	-----------------------------------------------------------

  Dipole Moment: [D]
     X:    -0.8586      Y:    -1.3243      Z:    -0.1560     Total:     1.5860

*** Psi4 exiting successfully. Buy a developer a beer!
