                               Psi4 1.4a3.dev225

  ==> Input File <==

--------------------------------------------------------------------------
#psi4
#
memory 32 gb

molecule  {
0 1
  N       -0.4697210     1.1445100    -0.2216410
  N        1.7892250     1.2839290     0.3484630
  C       -1.6402333     0.3066261    -0.0683238
  C        0.7850350     0.5381570    -0.1399480
  C       -0.5952140     2.4946130     0.3294290
  C        0.9870780    -0.7701080    -0.6316150
  C        3.3308620    -0.5454650    -0.0717700
  C       -1.7342750    -0.5947120     0.9884560
  C       -2.6794440     0.4585720    -0.9790390
  C        2.2640650    -1.3032160    -0.5830550
  C        3.0220600     0.7400440     0.3662130
  C       -2.8869950    -1.3690860     1.1220740
  C       -3.8377830    -0.3053550    -0.8293160
  C       -3.9434210    -1.2230030     0.2186750
  C        4.7300730    -1.0916580    -0.0030050
  H        0.1601300    -1.3363870    -1.0489480
  H       -0.4605330     2.5122530     1.4190480
  H       -1.5934070     2.8602250     0.0818210
  H        0.1591150     3.1409490    -0.1188450
  H       -0.9140430    -0.6937920     1.6961740
  H       -2.5719260     1.1603340    -1.8029750
  H        2.4420680    -2.3104690    -0.9583480
  H        3.8063450     1.3842980     0.7658560
  H       -2.9675220    -2.0774950     1.9434440
  H       -4.6536710    -0.1926670    -1.5394220
  H        5.0860610    -1.3967900    -0.9923270
  H        5.4219950    -0.3393960     0.3861000
  H        4.7833880    -1.9677830     0.6515600
  H       -4.8424050    -1.8242580     0.3291710
units angstrom
no_reorient  #important for SAPT in psi4, default
symmetry c1  #important for SAPT in psi4, default
}

set PROPERTIES_ORIGIN ["COM"]
properties('MP2/aug-cc-pvtz', properties = ['dipole'])
--------------------------------------------------------------------------

    Molecular point group: c1
  Charge       = 0
  Multiplicity = 1
  Basis Set: AUG-CC-PVTZ
    Blend: AUG-CC-PVTZ
  Basis Set: (AUG-CC-PVTZ AUX)
    Blend: AUG-CC-PVTZ-JKFIT

    Orbital Energies [Eh]
    ---------------------

    Doubly Occupied:

       1A    -15.572061     2A    -15.548209     3A    -11.307810
       4A    -11.274789     5A    -11.265067     6A    -11.249796
       7A    -11.244261     8A    -11.242689     9A    -11.242474
      10A    -11.238607    11A    -11.237574    12A    -11.236781
      13A    -11.229739    14A    -11.228299    15A    -11.224784
      16A     -1.287185    17A     -1.215170    18A     -1.144350
      19A     -1.089300    20A     -1.037280    21A     -1.020501
      22A     -1.010122    23A     -0.948488    24A     -0.905728
      25A     -0.846389    26A     -0.839365    27A     -0.829577
      28A     -0.785707    29A     -0.723730    30A     -0.685234
      31A     -0.673479    32A     -0.647653    33A     -0.637888
      34A     -0.622586    35A     -0.609377    36A     -0.596154
      37A     -0.587354    38A     -0.583032    39A     -0.576211
      40A     -0.560748    41A     -0.542852    42A     -0.533581
      43A     -0.522709    44A     -0.513631    45A     -0.508611
      46A     -0.502466    47A     -0.498082    48A     -0.417454
      49A     -0.409699    50A     -0.373174    51A     -0.343992
      52A     -0.340301    53A     -0.286468

  @DF-RHF Final Energy:  -609.53360119150386

   => Energetics <=

    Nuclear Repulsion Energy =            919.5300009294958272
    One-Electron Energy =               -2650.9300672724839387
    Two-Electron Energy =                1121.8664651514841353
    Total Energy =                       -609.5336011915039762
  Basis Set: (AUG-CC-PVTZ AUX)
    Blend: AUG-CC-PVTZ-RI
    Molecular point group: c1

    Geometry (in Angstrom), charge = 0, multiplicity = 1:

       Center              X                  Y                   Z               Mass
    ------------   -----------------  -----------------  -----------------  -----------------
         N           -0.449452892450     1.139759828500    -0.217703228230    14.003074004430
         N            1.809493107550     1.279178828500     0.352400771770    14.003074004430
         C           -1.619965192450     0.301875928500    -0.064386028230    12.000000000000
         C            0.805303107550     0.533406828500    -0.136010228230    12.000000000000
         C           -0.574945892450     2.489862828500     0.333366771770    12.000000000000
         C            1.007346107550    -0.774858171500    -0.627677228230    12.000000000000
         C            3.351130107550    -0.550215171500    -0.067832228230    12.000000000000
         C           -1.714006892450    -0.599462171500     0.992393771770    12.000000000000
         C           -2.659175892450     0.453821828500    -0.975101228230    12.000000000000
         C            2.284333107550    -1.307966171500    -0.579117228230    12.000000000000
         C            3.042328107550     0.735293828500     0.370150771770    12.000000000000
         C           -2.866726892450    -1.373836171500     1.126011771770    12.000000000000
         C           -3.817514892450    -0.310105171500    -0.825378228230    12.000000000000
         C           -3.923152892450    -1.227753171500     0.222612771770    12.000000000000
         C            4.750341107550    -1.096408171500     0.000932771770    12.000000000000
         H            0.180398107550    -1.341137171500    -1.045010228230     1.007825032230
         H           -0.440264892450     2.507502828500     1.422985771770     1.007825032230
         H           -1.573138892450     2.855474828500     0.085758771770     1.007825032230
         H            0.179383107550     3.136198828500    -0.114907228230     1.007825032230
         H           -0.893774892450    -0.698542171500     1.700111771770     1.007825032230
         H           -2.551657892450     1.155583828500    -1.799037228230     1.007825032230
         H            2.462336107550    -2.315219171500    -0.954410228230     1.007825032230
         H            3.826613107550     1.379547828500     0.769793771770     1.007825032230
         H           -2.947253892450    -2.082245171500     1.947381771770     1.007825032230
         H           -4.633402892450    -0.197417171500    -1.535484228230     1.007825032230
         H            5.106329107550    -1.401540171500    -0.988389228230     1.007825032230
         H            5.442263107550    -0.344146171500     0.390037771770     1.007825032230
         H            4.803656107550    -1.972533171500     0.655497771770     1.007825032230
         H           -4.822136892450    -1.829008171500     0.333108771770     1.007825032230

  Basis Set: AUG-CC-PVTZ
    Blend: AUG-CC-PVTZ
  Basis Set: (AUG-CC-PVTZ AUX)
    Blend: AUG-CC-PVTZ-JKFIT
	 Reference Energy          =    -609.5336011915038625 [Eh]
	 Singles Energy            =      -0.0000000000000000 [Eh]
	 Same-Spin Energy          =      -0.6809544865067494 [Eh]
	 Opposite-Spin Energy      =      -2.1305314675992446 [Eh]
	 Correlation Energy        =      -2.8114859541059940 [Eh]
	 Total Energy              =    -612.3450871456099094 [Eh]

	 ================> DF-SCS-MP2 Energies <==================
	-----------------------------------------------------------
	 SCS Same-Spin Scale       =       0.3333333333333333 [-]
	 SCS Opposite-Spin Scale   =       1.2000000000000000 [-]
	 SCS Same-Spin Energy      =      -0.2269848288355831 [Eh]
	 SCS Opposite-Spin Energy  =      -2.5566377611190934 [Eh]
	 SCS Correlation Energy    =      -2.7836225899546765 [Eh]
	 SCS Total Energy          =    -612.3172237814585515 [Eh]
	-----------------------------------------------------------

  Dipole Moment: [D]
     X:    -0.5997      Y:    -1.4988      Z:    -0.1627     Total:     1.6226

*** Psi4 exiting successfully. Buy a developer a beer!
