                               Psi4 1.4a3.dev225

  ==> Input File <==

--------------------------------------------------------------------------
#psi4
#
memory 32 gb

molecule  {
0 1
  N       -0.4697210     1.1445100    -0.2216410
  N        1.7892250     1.2839290     0.3484630
  C       -1.6644904     0.2892623    -0.0651466
  C        0.7850350     0.5381570    -0.1399480
  C       -0.5952140     2.4946130     0.3294290
  C        0.9870780    -0.7701080    -0.6316150
  C        3.3308620    -0.5454650    -0.0717700
  C       -1.7342750    -0.5947120     0.9884560
  C       -2.6794440     0.4585720    -0.9790390
  C        2.2640650    -1.3032160    -0.5830550
  C        3.0220600     0.7400440     0.3662130
  C       -2.8869950    -1.3690860     1.1220740
  C       -3.8377830    -0.3053550    -0.8293160
  C       -3.9434210    -1.2230030     0.2186750
  C        4.7300730    -1.0916580    -0.0030050
  H        0.1601300    -1.3363870    -1.0489480
  H       -0.4605330     2.5122530     1.4190480
  H       -1.5934070     2.8602250     0.0818210
  H        0.1591150     3.1409490    -0.1188450
  H       -0.9140430    -0.6937920     1.6961740
  H       -2.5719260     1.1603340    -1.8029750
  H        2.4420680    -2.3104690    -0.9583480
  H        3.8063450     1.3842980     0.7658560
  H       -2.9675220    -2.0774950     1.9434440
  H       -4.6536710    -0.1926670    -1.5394220
  H        5.0860610    -1.3967900    -0.9923270
  H        5.4219950    -0.3393960     0.3861000
  H        4.7833880    -1.9677830     0.6515600
  H       -4.8424050    -1.8242580     0.3291710
units angstrom
no_reorient  #important for SAPT in psi4, default
symmetry c1  #important for SAPT in psi4, default
}

set PROPERTIES_ORIGIN ["COM"]
properties('MP2/aug-cc-pvtz', properties = ['dipole'])
--------------------------------------------------------------------------

    Molecular point group: c1
  Charge       = 0
  Multiplicity = 1
  Basis Set: AUG-CC-PVTZ
    Blend: AUG-CC-PVTZ
  Basis Set: (AUG-CC-PVTZ AUX)
    Blend: AUG-CC-PVTZ-JKFIT

    Orbital Energies [Eh]
    ---------------------

    Doubly Occupied:

       1A    -15.570775     2A    -15.547031     3A    -11.306609
       4A    -11.274074     5A    -11.264307     6A    -11.249101
       7A    -11.243669     8A    -11.243468     9A    -11.242912
      10A    -11.239324    11A    -11.237330    12A    -11.236677
      13A    -11.228787    14A    -11.227404    15A    -11.224202
      16A     -1.283168    17A     -1.212062    18A     -1.147380
      19A     -1.088364    20A     -1.036333    21A     -1.023297
      22A     -1.011985    23A     -0.947191    24A     -0.903150
      25A     -0.845516    26A     -0.840504    27A     -0.829310
      28A     -0.785803    29A     -0.722752    30A     -0.684717
      31A     -0.672168    32A     -0.647167    33A     -0.637416
      34A     -0.622423    35A     -0.608946    36A     -0.599553
      37A     -0.586550    38A     -0.581500    39A     -0.575507
      40A     -0.559526    41A     -0.542256    42A     -0.532647
      43A     -0.521839    44A     -0.512447    45A     -0.510287
      46A     -0.506202    47A     -0.495492    48A     -0.416314
      49A     -0.408707    50A     -0.372479    51A     -0.345853
      52A     -0.342209    53A     -0.286179

  @DF-RHF Final Energy:  -609.53159401635185

   => Energetics <=

    Nuclear Repulsion Energy =            919.4307476933481666
    One-Electron Energy =               -2650.7629412984547344
    Two-Electron Energy =                1121.8005995887547215
    Total Energy =                       -609.5315940163518462
  Basis Set: (AUG-CC-PVTZ AUX)
    Blend: AUG-CC-PVTZ-RI
    Molecular point group: c1

    Geometry (in Angstrom), charge = 0, multiplicity = 1:

       Center              X                  Y                   Z               Mass
    ------------   -----------------  -----------------  -----------------  -----------------
         N           -0.447983623723     1.140811565448    -0.217895673354    14.003074004430
         N            1.810962376277     1.280230565448     0.352208326646    14.003074004430
         C           -1.642753023723     0.285563865448    -0.061401273354    12.000000000000
         C            0.806772376277     0.534458565448    -0.136202673354    12.000000000000
         C           -0.573476623723     2.490914565448     0.333174326646    12.000000000000
         C            1.008815376277    -0.773806434552    -0.627869673354    12.000000000000
         C            3.352599376277    -0.549163434552    -0.068024673354    12.000000000000
         C           -1.712537623723    -0.598410434552     0.992201326646    12.000000000000
         C           -2.657706623723     0.454873565448    -0.975293673354    12.000000000000
         C            2.285802376277    -1.306914434552    -0.579309673354    12.000000000000
         C            3.043797376277     0.736345565448     0.369958326646    12.000000000000
         C           -2.865257623723    -1.372784434552     1.125819326646    12.000000000000
         C           -3.816045623723    -0.309053434552    -0.825570673354    12.000000000000
         C           -3.921683623723    -1.226701434552     0.222420326646    12.000000000000
         C            4.751810376277    -1.095356434552     0.000740326646    12.000000000000
         H            0.181867376277    -1.340085434552    -1.045202673354     1.007825032230
         H           -0.438795623723     2.508554565448     1.422793326646     1.007825032230
         H           -1.571669623723     2.856526565448     0.085566326646     1.007825032230
         H            0.180852376277     3.137250565448    -0.115099673354     1.007825032230
         H           -0.892305623723    -0.697490434552     1.699919326646     1.007825032230
         H           -2.550188623723     1.156635565448    -1.799229673354     1.007825032230
         H            2.463805376277    -2.314167434552    -0.954602673354     1.007825032230
         H            3.828082376277     1.380599565448     0.769601326646     1.007825032230
         H           -2.945784623723    -2.081193434552     1.947189326646     1.007825032230
         H           -4.631933623723    -0.196365434552    -1.535676673354     1.007825032230
         H            5.107798376277    -1.400488434552    -0.988581673354     1.007825032230
         H            5.443732376277    -0.343094434552     0.389845326646     1.007825032230
         H            4.805125376277    -1.971481434552     0.655305326646     1.007825032230
         H           -4.820667623723    -1.827956434552     0.332916326646     1.007825032230

  Basis Set: AUG-CC-PVTZ
    Blend: AUG-CC-PVTZ
  Basis Set: (AUG-CC-PVTZ AUX)
    Blend: AUG-CC-PVTZ-JKFIT
	 Reference Energy          =    -609.5315940163518462 [Eh]
	 Singles Energy            =      -0.0000000000000000 [Eh]
	 Same-Spin Energy          =      -0.6807794569306889 [Eh]
	 Opposite-Spin Energy      =      -2.1303569103724409 [Eh]
	 Correlation Energy        =      -2.8111363673031295 [Eh]
	 Total Energy              =    -612.3427303836549527 [Eh]

	 ================> DF-SCS-MP2 Energies <==================
	-----------------------------------------------------------
	 SCS Same-Spin Scale       =       0.3333333333333333 [-]
	 SCS Opposite-Spin Scale   =       1.2000000000000000 [-]
	 SCS Same-Spin Energy      =      -0.2269264856435629 [Eh]
	 SCS Opposite-Spin Energy  =      -2.5564282924469288 [Eh]
	 SCS Correlation Energy    =      -2.7833547780904917 [Eh]
	 SCS Total Energy          =    -612.3149487944423299 [Eh]
	-----------------------------------------------------------

  Dipole Moment: [D]
     X:    -0.7538      Y:    -1.5503      Z:    -0.1572     Total:     1.7310

*** Psi4 exiting successfully. Buy a developer a beer!
