                               Psi4 1.4a3.dev225

  ==> Input File <==

--------------------------------------------------------------------------
#psi4
#
memory 32 gb

molecule  {
0 1
  N       -0.4697210     1.1445100    -0.2216410
  N        1.7892250     1.2839290     0.3484630
  C       -1.6240620     0.3182020    -0.0704420
  C        0.7850350     0.5381570    -0.1399480
  C       -0.5952140     2.4946130     0.3294290
  C        0.9870780    -0.7701080    -0.6316150
  C        3.3308620    -0.5454650    -0.0717700
  C       -1.7342750    -0.5947120     0.9884560
  C       -2.6794440     0.4585720    -0.9790390
  C        2.2640650    -1.3032160    -0.5830550
  C        3.0220600     0.7400440     0.3662130
  C       -2.8869950    -1.3690860     1.1220740
  C       -3.8377830    -0.3053550    -0.8293160
  C       -3.9917566    -1.2908090     0.2695012
  C        4.7300730    -1.0916580    -0.0030050
  H        0.1601300    -1.3363870    -1.0489480
  H       -0.4605330     2.5122530     1.4190480
  H       -1.5934070     2.8602250     0.0818210
  H        0.1591150     3.1409490    -0.1188450
  H       -0.9140430    -0.6937920     1.6961740
  H       -2.5719260     1.1603340    -1.8029750
  H        2.4420680    -2.3104690    -0.9583480
  H        3.8063450     1.3842980     0.7658560
  H       -2.9675220    -2.0774950     1.9434440
  H       -4.6536710    -0.1926670    -1.5394220
  H        5.0860610    -1.3967900    -0.9923270
  H        5.4219950    -0.3393960     0.3861000
  H        4.7833880    -1.9677830     0.6515600
  H       -4.8424050    -1.8242580     0.3291710
units angstrom
no_reorient  #important for SAPT in psi4, default
symmetry c1  #important for SAPT in psi4, default
}

set PROPERTIES_ORIGIN ["COM"]
properties('MP2/aug-cc-pvtz', properties = ['dipole'])
--------------------------------------------------------------------------

    Molecular point group: c1
  Charge       = 0
  Multiplicity = 1
  Basis Set: AUG-CC-PVTZ
    Blend: AUG-CC-PVTZ
  Basis Set: (AUG-CC-PVTZ AUX)
    Blend: AUG-CC-PVTZ-JKFIT

    Orbital Energies [Eh]
    ---------------------

    Doubly Occupied:

       1A    -15.573659     2A    -15.549367     3A    -11.309008
       4A    -11.277730     5A    -11.265758     6A    -11.251226
       7A    -11.250420     8A    -11.245896     9A    -11.243511
      10A    -11.240559    11A    -11.237542    12A    -11.237169
      13A    -11.230644    14A    -11.229182    15A    -11.225323
      16A     -1.290769    17A     -1.217668    18A     -1.134931
      19A     -1.089942    20A     -1.038375    21A     -1.016796
      22A     -1.006174    23A     -0.949679    24A     -0.909096
      25A     -0.847249    26A     -0.842841    27A     -0.824810
      28A     -0.787748    29A     -0.723274    30A     -0.696345
      31A     -0.675357    32A     -0.649939    33A     -0.637952
      34A     -0.621889    35A     -0.608108    36A     -0.590554
      37A     -0.588208    38A     -0.583162    39A     -0.576873
      40A     -0.565732    41A     -0.544555    42A     -0.538221
      43A     -0.523729    44A     -0.522482    45A     -0.507046
      46A     -0.496384    47A     -0.487200    48A     -0.417755
      49A     -0.410627    50A     -0.373832    51A     -0.342566
      52A     -0.335453    53A     -0.286041

  @DF-RHF Final Energy:  -609.52037837260116

   => Energetics <=

    Nuclear Repulsion Energy =            917.9141215737254242
    One-Electron Energy =               -2647.6162870590596867
    Two-Electron Energy =                1120.1817871127332182
    Total Energy =                       -609.5203783726010442
  Basis Set: (AUG-CC-PVTZ AUX)
    Blend: AUG-CC-PVTZ-RI
    Molecular point group: c1

    Geometry (in Angstrom), charge = 0, multiplicity = 1:

       Center              X                  Y                   Z               Mass
    ------------   -----------------  -----------------  -----------------  -----------------
         N           -0.447504679345     1.143165723163    -0.220653504279    14.003074004430
         N            1.811441320655     1.282584723163     0.349450495721    14.003074004430
         C           -1.601845679345     0.316857723163    -0.069454504279    12.000000000000
         C            0.807251320655     0.536812723163    -0.138960504279    12.000000000000
         C           -0.572997679345     2.493268723163     0.330416495721    12.000000000000
         C            1.009294320655    -0.771452276837    -0.630627504279    12.000000000000
         C            3.353078320655    -0.546809276837    -0.070782504279    12.000000000000
         C           -1.712058679345    -0.596056276837     0.989443495721    12.000000000000
         C           -2.657227679345     0.457227723163    -0.978051504279    12.000000000000
         C            2.286281320655    -1.304560276837    -0.582067504279    12.000000000000
         C            3.044276320655     0.738699723163     0.367200495721    12.000000000000
         C           -2.864778679345    -1.370430276837     1.123061495721    12.000000000000
         C           -3.815566679345    -0.306699276837    -0.828328504279    12.000000000000
         C           -3.969540279345    -1.292153276837     0.270488695721    12.000000000000
         C            4.752289320655    -1.093002276837    -0.002017504279    12.000000000000
         H            0.182346320655    -1.337731276837    -1.047960504279     1.007825032230
         H           -0.438316679345     2.510908723163     1.420035495721     1.007825032230
         H           -1.571190679345     2.858880723163     0.082808495721     1.007825032230
         H            0.181331320655     3.139604723163    -0.117857504279     1.007825032230
         H           -0.891826679345    -0.695136276837     1.697161495721     1.007825032230
         H           -2.549709679345     1.158989723163    -1.801987504279     1.007825032230
         H            2.464284320655    -2.311813276837    -0.957360504279     1.007825032230
         H            3.828561320655     1.382953723163     0.766843495721     1.007825032230
         H           -2.945305679345    -2.078839276837     1.944431495721     1.007825032230
         H           -4.631454679345    -0.194011276837    -1.538434504279     1.007825032230
         H            5.108277320655    -1.398134276837    -0.991339504279     1.007825032230
         H            5.444211320655    -0.340740276837     0.387087495721     1.007825032230
         H            4.805604320655    -1.969127276837     0.652547495721     1.007825032230
         H           -4.820188679345    -1.825602276837     0.330158495721     1.007825032230

  Basis Set: AUG-CC-PVTZ
    Blend: AUG-CC-PVTZ
  Basis Set: (AUG-CC-PVTZ AUX)
    Blend: AUG-CC-PVTZ-JKFIT
	 Reference Energy          =    -609.5203783726011579 [Eh]
	 Singles Energy            =      -0.0000000000000000 [Eh]
	 Same-Spin Energy          =      -0.6811642101711560 [Eh]
	 Opposite-Spin Energy      =      -2.1318167942267632 [Eh]
	 Correlation Energy        =      -2.8129810043979191 [Eh]
	 Total Energy              =    -612.3333593769990557 [Eh]

	 ================> DF-SCS-MP2 Energies <==================
	-----------------------------------------------------------
	 SCS Same-Spin Scale       =       0.3333333333333333 [-]
	 SCS Opposite-Spin Scale   =       1.2000000000000000 [-]
	 SCS Same-Spin Energy      =      -0.2270547367237187 [Eh]
	 SCS Opposite-Spin Energy  =      -2.5581801530721155 [Eh]
	 SCS Correlation Energy    =      -2.7852348897958343 [Eh]
	 SCS Total Energy          =    -612.3056132623969461 [Eh]
	-----------------------------------------------------------

  Dipole Moment: [D]
     X:    -0.4772      Y:    -1.4572      Z:    -0.1770     Total:     1.5436

*** Psi4 exiting successfully. Buy a developer a beer!
