                               Psi4 1.4a3.dev225

  ==> Input File <==

--------------------------------------------------------------------------
#psi4
#
memory 32 gb

molecule  {
0 1
  N       -0.4697210     1.1445100    -0.2216410
  N        1.7892250     1.2839290     0.3484630
  C       -1.6240620     0.3182020    -0.0704420
  C        0.7850350     0.5381570    -0.1399480
  C       -0.5952140     2.4946130     0.3294290
  C        0.9870780    -0.7701080    -0.6316150
  C        3.3308620    -0.5454650    -0.0717700
  C       -1.7342750    -0.5947120     0.9884560
  C       -2.6794440     0.4585720    -0.9790390
  C        2.2640650    -1.3032160    -0.5830550
  C        3.0220600     0.7400440     0.3662130
  C       -2.8869950    -1.3690860     1.1220740
  C       -3.8377830    -0.3053550    -0.8293160
  C       -3.9434210    -1.2230030     0.2186750
  C        4.7300730    -1.0916580    -0.0030050
  H        0.1601300    -1.3363870    -1.0489480
  H       -0.4605330     2.5122530     1.4190480
  H       -1.5934070     2.8602250     0.0818210
  H        0.1591150     3.1409490    -0.1188450
  H       -0.9140430    -0.6937920     1.6961740
  H       -2.5768688     1.1280724    -1.7650968
  H        2.4420680    -2.3104690    -0.9583480
  H        3.8063450     1.3842980     0.7658560
  H       -2.9675220    -2.0774950     1.9434440
  H       -4.6536710    -0.1926670    -1.5394220
  H        5.0860610    -1.3967900    -0.9923270
  H        5.4219950    -0.3393960     0.3861000
  H        4.7833880    -1.9677830     0.6515600
  H       -4.8424050    -1.8242580     0.3291710
units angstrom
no_reorient  #important for SAPT in psi4, default
symmetry c1  #important for SAPT in psi4, default
}

set PROPERTIES_ORIGIN ["COM"]
properties('MP2/aug-cc-pvtz', properties = ['dipole'])
--------------------------------------------------------------------------

    Molecular point group: c1
  Charge       = 0
  Multiplicity = 1
  Basis Set: AUG-CC-PVTZ
    Blend: AUG-CC-PVTZ
  Basis Set: (AUG-CC-PVTZ AUX)
    Blend: AUG-CC-PVTZ-JKFIT

    Orbital Energies [Eh]
    ---------------------

    Doubly Occupied:

       1A    -15.572877     2A    -15.549039     3A    -11.308636
       4A    -11.274933     5A    -11.265597     6A    -11.250281
       7A    -11.245294     8A    -11.241860     9A    -11.241423
      10A    -11.237778    11A    -11.237371    12A    -11.231046
      13A    -11.230411    14A    -11.228931    15A    -11.225192
      16A     -1.290222    17A     -1.217478    18A     -1.142271
      19A     -1.089948    20A     -1.038128    21A     -1.019840
      22A     -1.009072    23A     -0.949427    24A     -0.907742
      25A     -0.847041    26A     -0.839465    27A     -0.831756
      28A     -0.785757    29A     -0.725135    30A     -0.688776
      31A     -0.674520    32A     -0.648423    33A     -0.639550
      34A     -0.623133    35A     -0.610109    36A     -0.595189
      37A     -0.589550    38A     -0.584021    39A     -0.576776
      40A     -0.561661    41A     -0.543284    42A     -0.534414
      43A     -0.523400    44A     -0.514998    45A     -0.508730
      46A     -0.500919    47A     -0.498622    48A     -0.418051
      49A     -0.410359    50A     -0.373657    51A     -0.342607
      52A     -0.338795    53A     -0.286500

  @DF-RHF Final Energy:  -609.53298182987351

   => Energetics <=

    Nuclear Repulsion Energy =            919.8749622445576506
    One-Electron Energy =               -2651.5759003381349430
    Two-Electron Energy =                1122.1679562637038998
    Total Energy =                       -609.5329818298735063
  Basis Set: (AUG-CC-PVTZ AUX)
    Blend: AUG-CC-PVTZ-RI
    Molecular point group: c1

    Geometry (in Angstrom), charge = 0, multiplicity = 1:

       Center              X                  Y                   Z               Mass
    ------------   -----------------  -----------------  -----------------  -----------------
         N           -0.450407254592     1.139222784981    -0.217767615850    14.003074004430
         N            1.808538745408     1.278641784981     0.352336384150    14.003074004430
         C           -1.604748254592     0.312914784981    -0.066568615850    12.000000000000
         C            0.804348745408     0.532869784981    -0.136074615850    12.000000000000
         C           -0.575900254592     2.489325784981     0.333302384150    12.000000000000
         C            1.006391745407    -0.775395215019    -0.627741615850    12.000000000000
         C            3.350175745408    -0.550752215019    -0.067896615850    12.000000000000
         C           -1.714961254592    -0.599999215019     0.992329384150    12.000000000000
         C           -2.660130254593     0.453284784981    -0.975165615850    12.000000000000
         C            2.283378745408    -1.308503215019    -0.579181615850    12.000000000000
         C            3.041373745408     0.734756784981     0.370086384150    12.000000000000
         C           -2.867681254592    -1.374373215019     1.125947384150    12.000000000000
         C           -3.818469254592    -0.310642215019    -0.825442615850    12.000000000000
         C           -3.924107254592    -1.228290215019     0.222548384150    12.000000000000
         C            4.749386745408    -1.096945215019     0.000868384150    12.000000000000
         H            0.179443745408    -1.341674215019    -1.045074615850     1.007825032230
         H           -0.441219254592     2.506965784981     1.422921384150     1.007825032230
         H           -1.574093254593     2.854937784981     0.085694384150     1.007825032230
         H            0.178428745408     3.135661784981    -0.114971615850     1.007825032230
         H           -0.894729254592    -0.699079215019     1.700047384150     1.007825032230
         H           -2.557555054592     1.122785184981    -1.761223415850     1.007825032230
         H            2.461381745408    -2.315756215019    -0.954474615850     1.007825032230
         H            3.825658745408     1.379010784981     0.769729384150     1.007825032230
         H           -2.948208254592    -2.082782215019     1.947317384150     1.007825032230
         H           -4.634357254593    -0.197954215019    -1.535548615850     1.007825032230
         H            5.105374745408    -1.402077215019    -0.988453615850     1.007825032230
         H            5.441308745407    -0.344683215019     0.389973384150     1.007825032230
         H            4.802701745407    -1.973070215019     0.655433384150     1.007825032230
         H           -4.823091254592    -1.829545215019     0.333044384150     1.007825032230

  Basis Set: AUG-CC-PVTZ
    Blend: AUG-CC-PVTZ
  Basis Set: (AUG-CC-PVTZ AUX)
    Blend: AUG-CC-PVTZ-JKFIT
	 Reference Energy          =    -609.5329818298735063 [Eh]
	 Singles Energy            =      -0.0000000000000000 [Eh]
	 Same-Spin Energy          =      -0.6810218874352879 [Eh]
	 Opposite-Spin Energy      =      -2.1304168329542708 [Eh]
	 Correlation Energy        =      -2.8114387203895586 [Eh]
	 Total Energy              =    -612.3444205502630666 [Eh]

	 ================> DF-SCS-MP2 Energies <==================
	-----------------------------------------------------------
	 SCS Same-Spin Scale       =       0.3333333333333333 [-]
	 SCS Opposite-Spin Scale   =       1.2000000000000000 [-]
	 SCS Same-Spin Energy      =      -0.2270072958117626 [Eh]
	 SCS Opposite-Spin Energy  =      -2.5565001995451246 [Eh]
	 SCS Correlation Energy    =      -2.7835074953568872 [Eh]
	 SCS Total Energy          =    -612.3164893252303500 [Eh]
	-----------------------------------------------------------

  Dipole Moment: [D]
     X:    -0.4901      Y:    -1.4569      Z:    -0.1724     Total:     1.5467

*** Psi4 exiting successfully. Buy a developer a beer!
