                               Psi4 1.4a3.dev225

  ==> Input File <==

--------------------------------------------------------------------------
#psi4
#
memory 32 gb

molecule  {
0 1
  N       -0.4697210     1.1445100    -0.2216410
  N        1.7892250     1.2839290     0.3484630
  C       -1.6240620     0.3182020    -0.0704420
  C        0.7850350     0.5381570    -0.1399480
  C       -0.5952140     2.4946130     0.3294290
  C        0.9870780    -0.7701080    -0.6316150
  C        3.3308620    -0.5454650    -0.0717700
  C       -1.7342750    -0.5947120     0.9884560
  C       -2.6794440     0.4585720    -0.9790390
  C        2.2640650    -1.3032160    -0.5830550
  C        3.0220600     0.7400440     0.3662130
  C       -2.8869950    -1.3690860     1.1220740
  C       -3.8377830    -0.3053550    -0.8293160
  C       -3.9434210    -1.2230030     0.2186750
  C        4.7300730    -1.0916580    -0.0030050
  H        0.1601300    -1.3363870    -1.0489480
  H       -0.4605330     2.5122530     1.4190480
  H       -1.5934070     2.8602250     0.0818210
  H        0.1591150     3.1409490    -0.1188450
  H       -0.9140430    -0.6937920     1.6961740
  H       -2.5719260     1.1603340    -1.8029750
  H        2.4420680    -2.3104690    -0.9583480
  H        3.8063450     1.3842980     0.7658560
  H       -2.9675220    -2.0774950     1.9434440
  H       -4.6536710    -0.1926670    -1.5394220
  H        5.0665060    -1.2890044    -1.0259704
  H        5.4219950    -0.3393960     0.3861000
  H        4.7833880    -1.9677830     0.6515600
  H       -4.8424050    -1.8242580     0.3291710
units angstrom
no_reorient  #important for SAPT in psi4, default
symmetry c1  #important for SAPT in psi4, default
}

set PROPERTIES_ORIGIN ["COM"]
properties('MP2/aug-cc-pvtz', properties = ['dipole'])
--------------------------------------------------------------------------

    Molecular point group: c1
  Charge       = 0
  Multiplicity = 1
  Basis Set: AUG-CC-PVTZ
    Blend: AUG-CC-PVTZ
  Basis Set: (AUG-CC-PVTZ AUX)
    Blend: AUG-CC-PVTZ-JKFIT

    Orbital Energies [Eh]
    ---------------------

    Doubly Occupied:

       1A    -15.572611     2A    -15.548767     3A    -11.308285
       4A    -11.275255     5A    -11.265057     6A    -11.249963
       7A    -11.245058     8A    -11.241954     9A    -11.241732
      10A    -11.238011    11A    -11.237608    12A    -11.236742
      13A    -11.229748    14A    -11.228753    15A    -11.225278
      16A     -1.289956    17A     -1.217190    18A     -1.142164
      19A     -1.090016    20A     -1.038010    21A     -1.018596
      22A     -1.008755    23A     -0.949423    24A     -0.907134
      25A     -0.846830    26A     -0.838882    27A     -0.828932
      28A     -0.785193    29A     -0.724372    30A     -0.685256
      31A     -0.673940    32A     -0.648123    33A     -0.637419
      34A     -0.622476    35A     -0.609298    36A     -0.594231
      37A     -0.588718    38A     -0.587006    39A     -0.581490
      40A     -0.561202    41A     -0.535786    42A     -0.532952
      43A     -0.524612    44A     -0.514562    45A     -0.507691
      46A     -0.499991    47A     -0.498550    48A     -0.418219
      49A     -0.409639    50A     -0.373529    51A     -0.342775
      52A     -0.338888    53A     -0.286399

  @DF-RHF Final Energy:  -609.53241933981747

   => Energetics <=

    Nuclear Repulsion Energy =            919.7061528162714694
    One-Electron Energy =               -2651.2710885024603158
    Two-Electron Energy =                1122.0325163463712670
    Total Energy =                       -609.5324193398175794
  Basis Set: (AUG-CC-PVTZ AUX)
    Blend: AUG-CC-PVTZ-RI
    Molecular point group: c1

    Geometry (in Angstrom), charge = 0, multiplicity = 1:

       Center              X                  Y                   Z               Mass
    ------------   -----------------  -----------------  -----------------  -----------------
         N           -0.450332921559     1.138510357470    -0.217403781689    14.003074004430
         N            1.808613078441     1.277929357470     0.352700218311    14.003074004430
         C           -1.604673921559     0.312202357470    -0.066204781689    12.000000000000
         C            0.804423078441     0.532157357470    -0.135710781689    12.000000000000
         C           -0.575825921559     2.488613357470     0.333666218311    12.000000000000
         C            1.006466078441    -0.776107642530    -0.627377781689    12.000000000000
         C            3.350250078441    -0.551464642530    -0.067532781689    12.000000000000
         C           -1.714886921559    -0.600711642530     0.992693218311    12.000000000000
         C           -2.660055921559     0.452572357470    -0.974801781689    12.000000000000
         C            2.283453078441    -1.309215642530    -0.578817781689    12.000000000000
         C            3.041448078441     0.734044357470     0.370450218311    12.000000000000
         C           -2.867606921559    -1.375085642530     1.126311218311    12.000000000000
         C           -3.818394921559    -0.311354642530    -0.825078781689    12.000000000000
         C           -3.924032921559    -1.229002642530     0.222912218311    12.000000000000
         C            4.749461078441    -1.097657642530     0.001232218311    12.000000000000
         H            0.179518078441    -1.342386642530    -1.044710781689     1.007825032230
         H           -0.441144921559     2.506253357470     1.423285218311     1.007825032230
         H           -1.574018921559     2.854225357470     0.086058218311     1.007825032230
         H            0.178503078441     3.134949357470    -0.114607781689     1.007825032230
         H           -0.894654921559    -0.699791642530     1.700411218311     1.007825032230
         H           -2.552537921559     1.154334357470    -1.798737781689     1.007825032230
         H            2.461456078441    -2.316468642530    -0.954110781689     1.007825032230
         H            3.825733078441     1.378298357470     0.770093218311     1.007825032230
         H           -2.948133921559    -2.083494642530     1.947681218311     1.007825032230
         H           -4.634282921559    -0.198666642530    -1.535184781689     1.007825032230
         H            5.085894078441    -1.295004042530    -1.021733181689     1.007825032230
         H            5.441383078441    -0.345395642530     0.390337218311     1.007825032230
         H            4.802776078441    -1.973782642530     0.655797218311     1.007825032230
         H           -4.823016921559    -1.830257642530     0.333408218311     1.007825032230

  Basis Set: AUG-CC-PVTZ
    Blend: AUG-CC-PVTZ
  Basis Set: (AUG-CC-PVTZ AUX)
    Blend: AUG-CC-PVTZ-JKFIT
	 Reference Energy          =    -609.5324193398174657 [Eh]
	 Singles Energy            =      -0.0000000000000000 [Eh]
	 Same-Spin Energy          =      -0.6812327183411340 [Eh]
	 Opposite-Spin Energy      =      -2.1309281169365368 [Eh]
	 Correlation Energy        =      -2.8121608352776706 [Eh]
	 Total Energy              =    -612.3445801750951887 [Eh]

	 ================> DF-SCS-MP2 Energies <==================
	-----------------------------------------------------------
	 SCS Same-Spin Scale       =       0.3333333333333333 [-]
	 SCS Opposite-Spin Scale   =       1.2000000000000000 [-]
	 SCS Same-Spin Energy      =      -0.2270775727803780 [Eh]
	 SCS Opposite-Spin Energy  =      -2.5571137403238442 [Eh]
	 SCS Correlation Energy    =      -2.7841913131042220 [Eh]
	 SCS Total Energy          =    -612.3166106529216677 [Eh]
	-----------------------------------------------------------

  Dipole Moment: [D]
     X:    -0.4726      Y:    -1.4316      Z:    -0.1679     Total:     1.5170

*** Psi4 exiting successfully. Buy a developer a beer!
