                               Psi4 1.4a3.dev225

  ==> Input File <==

--------------------------------------------------------------------------
#psi4
#
memory 32 gb

molecule  {
0 1
  N       -0.4697210     1.1445100    -0.2216410
  N        1.7892250     1.2839290     0.3484630
  C       -1.6240620     0.3182020    -0.0704420
  C        0.7850350     0.5381570    -0.1399480
  C       -0.5952140     2.4946130     0.3294290
  C        0.9870780    -0.7701080    -0.6316150
  C        3.3308620    -0.5454650    -0.0717700
  C       -1.7342750    -0.5947120     0.9884560
  C       -2.6794440     0.4585720    -0.9790390
  C        2.2640650    -1.3032160    -0.5830550
  C        3.1631555     0.7541412     0.4000555
  C       -2.8869950    -1.3690860     1.1220740
  C       -3.8377830    -0.3053550    -0.8293160
  C       -3.9434210    -1.2230030     0.2186750
  C        4.7300730    -1.0916580    -0.0030050
  H        0.1601300    -1.3363870    -1.0489480
  H       -0.4605330     2.5122530     1.4190480
  H       -1.5934070     2.8602250     0.0818210
  H        0.1591150     3.1409490    -0.1188450
  H       -0.9140430    -0.6937920     1.6961740
  H       -2.5719260     1.1603340    -1.8029750
  H        2.4420680    -2.3104690    -0.9583480
  H        3.8063450     1.3842980     0.7658560
  H       -2.9675220    -2.0774950     1.9434440
  H       -4.6536710    -0.1926670    -1.5394220
  H        5.0860610    -1.3967900    -0.9923270
  H        5.4219950    -0.3393960     0.3861000
  H        4.7833880    -1.9677830     0.6515600
  H       -4.8424050    -1.8242580     0.3291710
units angstrom
no_reorient  #important for SAPT in psi4, default
symmetry c1  #important for SAPT in psi4, default
}

set PROPERTIES_ORIGIN ["COM"]
properties('MP2/aug-cc-pvtz', properties = ['dipole'])
--------------------------------------------------------------------------

    Molecular point group: c1
  Charge       = 0
  Multiplicity = 1
  Basis Set: AUG-CC-PVTZ
    Blend: AUG-CC-PVTZ
  Basis Set: (AUG-CC-PVTZ AUX)
    Blend: AUG-CC-PVTZ-JKFIT

    Orbital Energies [Eh]
    ---------------------

    Doubly Occupied:

       1A    -15.571275     2A    -15.549857     3A    -11.306576
       4A    -11.274945     5A    -11.265931     6A    -11.252720
       7A    -11.243035     8A    -11.241927     9A    -11.241692
      10A    -11.237910    11A    -11.237798    12A    -11.237419
      13A    -11.236525    14A    -11.235395    15A    -11.223550
      16A     -1.281708    17A     -1.194406    18A     -1.140727
      19A     -1.084215    20A     -1.040581    21A     -1.018626
      22A     -1.007305    23A     -0.946592    24A     -0.910493
      25A     -0.857709    26A     -0.836579    27A     -0.825285
      28A     -0.782267    29A     -0.729232    30A     -0.686493
      31A     -0.667391    32A     -0.647554    33A     -0.644503
      34A     -0.632405    35A     -0.611857    36A     -0.594999
      37A     -0.592202    38A     -0.583408    39A     -0.576285
      40A     -0.562470    41A     -0.537820    42A     -0.532889
      43A     -0.517644    44A     -0.512004    45A     -0.508658
      46A     -0.499417    47A     -0.496903    48A     -0.416105
      49A     -0.399388    50A     -0.360902    51A     -0.343264
      52A     -0.338638    53A     -0.291640

  @DF-RHF Final Energy:  -609.50224582203066

   => Energetics <=

    Nuclear Repulsion Energy =            916.8428134259715989
    One-Electron Energy =               -2645.5558805744585698
    Two-Electron Energy =                1119.2108213264561982
    Total Energy =                       -609.5022458220307726
  Basis Set: (AUG-CC-PVTZ AUX)
    Blend: AUG-CC-PVTZ-RI
    Molecular point group: c1

    Geometry (in Angstrom), charge = 0, multiplicity = 1:

       Center              X                  Y                   Z               Mass
    ------------   -----------------  -----------------  -----------------  -----------------
         N           -0.458978647424     1.138204791709    -0.219624790242    14.003074004430
         N            1.799967352576     1.277623791709     0.350479209758    14.003074004430
         C           -1.613319647424     0.311896791709    -0.068425790242    12.000000000000
         C            0.795777352576     0.531851791709    -0.137931790242    12.000000000000
         C           -0.584471647424     2.488307791709     0.331445209758    12.000000000000
         C            0.997820352576    -0.776413208291    -0.629598790242    12.000000000000
         C            3.341604352576    -0.551770208291    -0.069753790242    12.000000000000
         C           -1.723532647424    -0.601017208291     0.990472209758    12.000000000000
         C           -2.668701647424     0.452266791709    -0.977022790242    12.000000000000
         C            2.274807352576    -1.309521208291    -0.581038790242    12.000000000000
         C            3.173897852576     0.747835991709     0.402071709758    12.000000000000
         C           -2.876252647424    -1.375391208291     1.124090209758    12.000000000000
         C           -3.827040647424    -0.311660208291    -0.827299790242    12.000000000000
         C           -3.932678647424    -1.229308208291     0.220691209758    12.000000000000
         C            4.740815352576    -1.097963208291    -0.000988790242    12.000000000000
         H            0.170872352576    -1.342692208291    -1.046931790242     1.007825032230
         H           -0.449790647424     2.505947791709     1.421064209758     1.007825032230
         H           -1.582664647424     2.853919791709     0.083837209758     1.007825032230
         H            0.169857352576     3.134643791709    -0.116828790242     1.007825032230
         H           -0.903300647424    -0.700097208291     1.698190209758     1.007825032230
         H           -2.561183647424     1.154028791709    -1.800958790242     1.007825032230
         H            2.452810352576    -2.316774208291    -0.956331790242     1.007825032230
         H            3.817087352576     1.377992791709     0.767872209758     1.007825032230
         H           -2.956779647424    -2.083800208291     1.945460209758     1.007825032230
         H           -4.642928647424    -0.198972208291    -1.537405790242     1.007825032230
         H            5.096803352576    -1.403095208291    -0.990310790242     1.007825032230
         H            5.432737352576    -0.345701208291     0.388116209758     1.007825032230
         H            4.794130352576    -1.974088208291     0.653576209758     1.007825032230
         H           -4.831662647424    -1.830563208291     0.331187209758     1.007825032230

  Basis Set: AUG-CC-PVTZ
    Blend: AUG-CC-PVTZ
  Basis Set: (AUG-CC-PVTZ AUX)
    Blend: AUG-CC-PVTZ-JKFIT
	 Reference Energy          =    -609.5022458220306589 [Eh]
	 Singles Energy            =      -0.0000000000000000 [Eh]
	 Same-Spin Energy          =      -0.6817778553752452 [Eh]
	 Opposite-Spin Energy      =      -2.1348071221135569 [Eh]
	 Correlation Energy        =      -2.8165849774888021 [Eh]
	 Total Energy              =    -612.3188307995194464 [Eh]

	 ================> DF-SCS-MP2 Energies <==================
	-----------------------------------------------------------
	 SCS Same-Spin Scale       =       0.3333333333333333 [-]
	 SCS Opposite-Spin Scale   =       1.2000000000000000 [-]
	 SCS Same-Spin Energy      =      -0.2272592851250817 [Eh]
	 SCS Opposite-Spin Energy  =      -2.5617685465362681 [Eh]
	 SCS Correlation Energy    =      -2.7890278316613499 [Eh]
	 SCS Total Energy          =    -612.2912736536919738 [Eh]
	-----------------------------------------------------------

  Dipole Moment: [D]
     X:    -0.3543      Y:    -1.5228      Z:    -0.1688     Total:     1.5725

*** Psi4 exiting successfully. Buy a developer a beer!
