                               Psi4 1.4a3.dev225

  ==> Input File <==

--------------------------------------------------------------------------
#psi4
#
memory 32 gb

molecule  {
0 1
  N       -0.4697210     1.1445100    -0.2216410
  N        1.7892250     1.2839290     0.3484630
  C       -1.6240620     0.3182020    -0.0704420
  C        0.7850350     0.5381570    -0.1399480
  C       -0.5952140     2.4946130     0.3294290
  C        0.9870780    -0.7701080    -0.6316150
  C        3.3308620    -0.5454650    -0.0717700
  C       -1.7342750    -0.5947120     0.9884560
  C       -2.6794440     0.4585720    -0.9790390
  C        2.2640650    -1.3032160    -0.5830550
  C        2.8843478     0.7118625     0.3275718
  C       -2.8869950    -1.3690860     1.1220740
  C       -3.8377830    -0.3053550    -0.8293160
  C       -3.9434210    -1.2230030     0.2186750
  C        4.7300730    -1.0916580    -0.0030050
  H        0.1601300    -1.3363870    -1.0489480
  H       -0.4605330     2.5122530     1.4190480
  H       -1.5934070     2.8602250     0.0818210
  H        0.1591150     3.1409490    -0.1188450
  H       -0.9140430    -0.6937920     1.6961740
  H       -2.5719260     1.1603340    -1.8029750
  H        2.4420680    -2.3104690    -0.9583480
  H        3.8063450     1.3842980     0.7658560
  H       -2.9675220    -2.0774950     1.9434440
  H       -4.6536710    -0.1926670    -1.5394220
  H        5.0860610    -1.3967900    -0.9923270
  H        5.4219950    -0.3393960     0.3861000
  H        4.7833880    -1.9677830     0.6515600
  H       -4.8424050    -1.8242580     0.3291710
units angstrom
no_reorient  #important for SAPT in psi4, default
symmetry c1  #important for SAPT in psi4, default
}

set PROPERTIES_ORIGIN ["COM"]
properties('MP2/aug-cc-pvtz', properties = ['dipole'])
--------------------------------------------------------------------------

    Molecular point group: c1
  Charge       = 0
  Multiplicity = 1
  Basis Set: AUG-CC-PVTZ
    Blend: AUG-CC-PVTZ
  Basis Set: (AUG-CC-PVTZ AUX)
    Blend: AUG-CC-PVTZ-JKFIT

    Orbital Energies [Eh]
    ---------------------

    Doubly Occupied:

       1A    -15.575360     2A    -15.547899     3A    -11.312080
       4A    -11.276452     5A    -11.267684     6A    -11.249177
       7A    -11.248149     8A    -11.242765     9A    -11.242541
      10A    -11.238913    11A    -11.238672    12A    -11.237800
      13A    -11.228160    14A    -11.227342    15A    -11.224685
      16A     -1.311504    17A     -1.242563    18A     -1.144168
      19A     -1.098552    20A     -1.036486    21A     -1.019399
      22A     -1.010611    23A     -0.952596    24A     -0.906780
      25A     -0.848573    26A     -0.838596    27A     -0.831650
      28A     -0.792860    29A     -0.722543    30A     -0.686462
      31A     -0.680610    32A     -0.650402    33A     -0.640153
      34A     -0.618650    35A     -0.605555    36A     -0.595054
      37A     -0.587765    38A     -0.579781    39A     -0.577674
      40A     -0.561363    41A     -0.543096    42A     -0.539799
      43A     -0.536048    44A     -0.514541    45A     -0.506052
      46A     -0.501438    47A     -0.499641    48A     -0.422538
      49A     -0.402721    50A     -0.386308    51A     -0.343392
      52A     -0.339757    53A     -0.283365

  @DF-RHF Final Energy:  -609.50859992310131

   => Energetics <=

    Nuclear Repulsion Energy =            922.7218127723124326
    One-Electron Energy =               -2657.0273764222524733
    Two-Electron Energy =                1124.7969637268386123
    Total Energy =                       -609.5085999231014284
  Basis Set: (AUG-CC-PVTZ AUX)
    Blend: AUG-CC-PVTZ-RI
    Molecular point group: c1

    Geometry (in Angstrom), charge = 0, multiplicity = 1:

       Center              X                  Y                   Z               Mass
    ------------   -----------------  -----------------  -----------------  -----------------
         N           -0.442091079069     1.140765640768    -0.215234404186    14.003074004430
         N            1.816854920931     1.280184640768     0.354869595814    14.003074004430
         C           -1.596432079069     0.314457640768    -0.064035404186    12.000000000000
         C            0.812664920931     0.534412640768    -0.133541404186    12.000000000000
         C           -0.567584079069     2.490868640768     0.335835595814    12.000000000000
         C            1.014707920931    -0.773852359232    -0.625208404186    12.000000000000
         C            3.358491920931    -0.549209359232    -0.065363404186    12.000000000000
         C           -1.706645079069    -0.598456359232     0.994862595814    12.000000000000
         C           -2.651814079069     0.454827640768    -0.972632404186    12.000000000000
         C            2.291694920931    -1.306960359232    -0.576648404186    12.000000000000
         C            2.911977720931     0.708118140768     0.333978395814    12.000000000000
         C           -2.859365079069    -1.372830359232     1.128480595814    12.000000000000
         C           -3.810153079069    -0.309099359232    -0.822909404186    12.000000000000
         C           -3.915791079069    -1.226747359232     0.225081595814    12.000000000000
         C            4.757702920931    -1.095402359232     0.003401595814    12.000000000000
         H            0.187759920931    -1.340131359232    -1.042541404186     1.007825032230
         H           -0.432903079069     2.508508640768     1.425454595814     1.007825032230
         H           -1.565777079069     2.856480640768     0.088227595814     1.007825032230
         H            0.186744920931     3.137204640768    -0.112438404186     1.007825032230
         H           -0.886413079069    -0.697536359232     1.702580595814     1.007825032230
         H           -2.544296079069     1.156589640768    -1.796568404186     1.007825032230
         H            2.469697920931    -2.314213359232    -0.951941404186     1.007825032230
         H            3.833974920931     1.380553640768     0.772262595814     1.007825032230
         H           -2.939892079069    -2.081239359232     1.949850595814     1.007825032230
         H           -4.626041079069    -0.196411359232    -1.533015404186     1.007825032230
         H            5.113690920931    -1.400534359232    -0.985920404186     1.007825032230
         H            5.449624920931    -0.343140359232     0.392506595814     1.007825032230
         H            4.811017920931    -1.971527359232     0.657966595814     1.007825032230
         H           -4.814775079069    -1.828002359232     0.335577595814     1.007825032230

  Basis Set: AUG-CC-PVTZ
    Blend: AUG-CC-PVTZ
  Basis Set: (AUG-CC-PVTZ AUX)
    Blend: AUG-CC-PVTZ-JKFIT
	 Reference Energy          =    -609.5085999231013147 [Eh]
	 Singles Energy            =      -0.0000000000000000 [Eh]
	 Same-Spin Energy          =      -0.6811309267918437 [Eh]
	 Opposite-Spin Energy      =      -2.1299690671595575 [Eh]
	 Correlation Energy        =      -2.8110999939514012 [Eh]
	 Total Energy              =    -612.3196999170527306 [Eh]

	 ================> DF-SCS-MP2 Energies <==================
	-----------------------------------------------------------
	 SCS Same-Spin Scale       =       0.3333333333333333 [-]
	 SCS Opposite-Spin Scale   =       1.2000000000000000 [-]
	 SCS Same-Spin Energy      =      -0.2270436422639479 [Eh]
	 SCS Opposite-Spin Energy  =      -2.5559628805914687 [Eh]
	 SCS Correlation Energy    =      -2.7830065228554166 [Eh]
	 SCS Total Energy          =    -612.2916064459567451 [Eh]
	-----------------------------------------------------------

  Dipole Moment: [D]
     X:    -0.8099      Y:    -1.4909      Z:    -0.2251     Total:     1.7115

*** Psi4 exiting successfully. Buy a developer a beer!
