                               Psi4 1.4a3.dev225

  ==> Input File <==

--------------------------------------------------------------------------
#psi4
#
memory 32 gb

molecule  {
0 1
  N       -0.4697210     1.1445100    -0.2216410
  N        1.7892250     1.2839290     0.3484630
  C       -1.6240620     0.3182020    -0.0704420
  C        0.7850350     0.5381570    -0.1399480
  C       -0.5952140     2.4946130     0.3294290
  C        0.9870780    -0.7701080    -0.6316150
  C        3.3308620    -0.5454650    -0.0717700
  C       -1.7342750    -0.5947120     0.9884560
  C       -2.6794440     0.4585720    -0.9790390
  C        2.2640650    -1.3032160    -0.5830550
  C        3.1158426     0.7510198     0.3893319
  C       -2.8869950    -1.3690860     1.1220740
  C       -3.8377830    -0.3053550    -0.8293160
  C       -3.9434210    -1.2230030     0.2186750
  C        4.7300730    -1.0916580    -0.0030050
  H        0.1601300    -1.3363870    -1.0489480
  H       -0.4605330     2.5122530     1.4190480
  H       -1.5934070     2.8602250     0.0818210
  H        0.1591150     3.1409490    -0.1188450
  H       -0.9140430    -0.6937920     1.6961740
  H       -2.5719260     1.1603340    -1.8029750
  H        2.4420680    -2.3104690    -0.9583480
  H        3.8063450     1.3842980     0.7658560
  H       -2.9675220    -2.0774950     1.9434440
  H       -4.6536710    -0.1926670    -1.5394220
  H        5.0860610    -1.3967900    -0.9923270
  H        5.4219950    -0.3393960     0.3861000
  H        4.7833880    -1.9677830     0.6515600
  H       -4.8424050    -1.8242580     0.3291710
units angstrom
no_reorient  #important for SAPT in psi4, default
symmetry c1  #important for SAPT in psi4, default
}

set PROPERTIES_ORIGIN ["COM"]
properties('MP2/aug-cc-pvtz', properties = ['dipole'])
--------------------------------------------------------------------------

    Molecular point group: c1
  Charge       = 0
  Multiplicity = 1
  Basis Set: AUG-CC-PVTZ
    Blend: AUG-CC-PVTZ
  Basis Set: (AUG-CC-PVTZ AUX)
    Blend: AUG-CC-PVTZ-JKFIT

    Orbital Energies [Eh]
    ---------------------

    Doubly Occupied:

       1A    -15.571736     2A    -15.549801     3A    -11.307222
       4A    -11.275049     5A    -11.265583     6A    -11.251827
       7A    -11.243692     8A    -11.241927     9A    -11.241697
      10A    -11.237937    11A    -11.237474    12A    -11.236592
      13A    -11.234843    14A    -11.233061    15A    -11.223990
      16A     -1.283779    17A     -1.201231    18A     -1.141220
      19A     -1.085808    20A     -1.039628    21A     -1.018605
      22A     -1.007802    23A     -0.947470    24A     -0.909186
      25A     -0.853918    26A     -0.837102    27A     -0.826540
      28A     -0.782449    29A     -0.727605    30A     -0.685914
      31A     -0.669085    32A     -0.647404    33A     -0.639872
      34A     -0.631966    35A     -0.611602    36A     -0.594160
      37A     -0.591545    38A     -0.583614    39A     -0.576279
      40A     -0.562369    41A     -0.539747    42A     -0.533158
      43A     -0.517704    44A     -0.514252    45A     -0.508772
      46A     -0.499712    47A     -0.497561    48A     -0.416663
      49A     -0.404127    50A     -0.365027    51A     -0.343040
      52A     -0.338754    53A     -0.289807

  @DF-RHF Final Energy:  -609.51877731684340

   => Energetics <=

    Nuclear Repulsion Energy =            917.7209568660275636
    One-Electron Energy =               -2647.3256554041754498
    Two-Electron Energy =                1120.0859212213044884
    Total Energy =                       -609.5187773168433978
  Basis Set: (AUG-CC-PVTZ AUX)
    Blend: AUG-CC-PVTZ-RI
    Molecular point group: c1

    Geometry (in Angstrom), charge = 0, multiplicity = 1:

       Center              X                  Y                   Z               Mass
    ------------   -----------------  -----------------  -----------------  -----------------
         N           -0.456112873513     1.138393856989    -0.218975254637    14.003074004430
         N            1.802833126487     1.277812856989     0.351128745363    14.003074004430
         C           -1.610453873513     0.312085856989    -0.067776254637    12.000000000000
         C            0.798643126487     0.532040856989    -0.137282254637    12.000000000000
         C           -0.581605873513     2.488496856989     0.332094745363    12.000000000000
         C            1.000686126487    -0.776224143011    -0.628949254637    12.000000000000
         C            3.344470126487    -0.551581143011    -0.069104254637    12.000000000000
         C           -1.720666873513    -0.600828143011     0.991121745363    12.000000000000
         C           -2.665835873513     0.452455856989    -0.976373254637    12.000000000000
         C            2.277673126487    -1.309332143011    -0.580389254637    12.000000000000
         C            3.129450726487     0.744903656989     0.391997645363    12.000000000000
         C           -2.873386873513    -1.375202143011     1.124739745363    12.000000000000
         C           -3.824174873513    -0.311471143011    -0.826650254637    12.000000000000
         C           -3.929812873513    -1.229119143011     0.221340745363    12.000000000000
         C            4.743681126487    -1.097774143011    -0.000339254637    12.000000000000
         H            0.173738126487    -1.342503143011    -1.046282254637     1.007825032230
         H           -0.446924873513     2.506136856989     1.421713745363     1.007825032230
         H           -1.579798873513     2.854108856989     0.084486745363     1.007825032230
         H            0.172723126487     3.134832856989    -0.116179254637     1.007825032230
         H           -0.900434873513    -0.699908143011     1.698839745363     1.007825032230
         H           -2.558317873513     1.154217856989    -1.800309254637     1.007825032230
         H            2.455676126487    -2.316585143011    -0.955682254637     1.007825032230
         H            3.819953126487     1.378181856989     0.768521745363     1.007825032230
         H           -2.953913873513    -2.083611143011     1.946109745363     1.007825032230
         H           -4.640062873513    -0.198783143011    -1.536756254637     1.007825032230
         H            5.099669126487    -1.402906143011    -0.989661254637     1.007825032230
         H            5.435603126487    -0.345512143011     0.388765745363     1.007825032230
         H            4.796996126487    -1.973899143011     0.654225745363     1.007825032230
         H           -4.828796873513    -1.830374143011     0.331836745363     1.007825032230

  Basis Set: AUG-CC-PVTZ
    Blend: AUG-CC-PVTZ
  Basis Set: (AUG-CC-PVTZ AUX)
    Blend: AUG-CC-PVTZ-JKFIT
	 Reference Energy          =    -609.5187773168433978 [Eh]
	 Singles Energy            =      -0.0000000000000000 [Eh]
	 Same-Spin Energy          =      -0.6814881280352415 [Eh]
	 Opposite-Spin Energy      =      -2.1330903969656534 [Eh]
	 Correlation Energy        =      -2.8145785250008948 [Eh]
	 Total Energy              =    -612.3333558418443090 [Eh]

	 ================> DF-SCS-MP2 Energies <==================
	-----------------------------------------------------------
	 SCS Same-Spin Scale       =       0.3333333333333333 [-]
	 SCS Opposite-Spin Scale   =       1.2000000000000000 [-]
	 SCS Same-Spin Energy      =      -0.2271627093450805 [Eh]
	 SCS Opposite-Spin Energy  =      -2.5597084763587841 [Eh]
	 SCS Correlation Energy    =      -2.7868711857038644 [Eh]
	 SCS Total Energy          =    -612.3056485025472284 [Eh]
	-----------------------------------------------------------

  Dipole Moment: [D]
     X:    -0.3883      Y:    -1.4965      Z:    -0.1637     Total:     1.5547

*** Psi4 exiting successfully. Buy a developer a beer!
