                               Psi4 1.4a3.dev225

  ==> Input File <==

--------------------------------------------------------------------------
#psi4
#
memory 32 gb

molecule  {
0 1
  N       -0.4697210     1.1445100    -0.2216410
  N        1.7892250     1.2839290     0.3484630
  C       -1.6240620     0.3182020    -0.0704420
  C        0.7850350     0.5381570    -0.1399480
  C       -0.5952140     2.4946130     0.3294290
  C        0.9870780    -0.7701080    -0.6316150
  C        3.3308620    -0.5454650    -0.0717700
  C       -1.7342750    -0.5947120     0.9884560
  C       -2.6281217     0.3899754    -0.8607153
  C        2.2640650    -1.3032160    -0.5830550
  C        3.0220600     0.7400440     0.3662130
  C       -2.8869950    -1.3690860     1.1220740
  C       -3.8377830    -0.3053550    -0.8293160
  C       -3.9434210    -1.2230030     0.2186750
  C        4.7300730    -1.0916580    -0.0030050
  H        0.1601300    -1.3363870    -1.0489480
  H       -0.4605330     2.5122530     1.4190480
  H       -1.5934070     2.8602250     0.0818210
  H        0.1591150     3.1409490    -0.1188450
  H       -0.9140430    -0.6937920     1.6961740
  H       -2.5719260     1.1603340    -1.8029750
  H        2.4420680    -2.3104690    -0.9583480
  H        3.8063450     1.3842980     0.7658560
  H       -2.9675220    -2.0774950     1.9434440
  H       -4.6536710    -0.1926670    -1.5394220
  H        5.0860610    -1.3967900    -0.9923270
  H        5.4219950    -0.3393960     0.3861000
  H        4.7833880    -1.9677830     0.6515600
  H       -4.8424050    -1.8242580     0.3291710
units angstrom
no_reorient  #important for SAPT in psi4, default
symmetry c1  #important for SAPT in psi4, default
}

set PROPERTIES_ORIGIN ["COM"]
properties('MP2/aug-cc-pvtz', properties = ['dipole'])
--------------------------------------------------------------------------

    Molecular point group: c1
  Charge       = 0
  Multiplicity = 1
  Basis Set: AUG-CC-PVTZ
    Blend: AUG-CC-PVTZ
  Basis Set: (AUG-CC-PVTZ AUX)
    Blend: AUG-CC-PVTZ-JKFIT

    Orbital Energies [Eh]
    ---------------------

    Doubly Occupied:

       1A    -15.573039     2A    -15.549219     3A    -11.309011
       4A    -11.265900     5A    -11.260512     6A    -11.250660
       7A    -11.244832     8A    -11.242462     9A    -11.240337
      10A    -11.239474    11A    -11.238642    12A    -11.234049
      13A    -11.230584    14A    -11.229333    15A    -11.225313
      16A     -1.291430    17A     -1.220959    18A     -1.153633
      19A     -1.090292    20A     -1.040521    21A     -1.021782
      22A     -1.015269    23A     -0.949482    24A     -0.907988
      25A     -0.848692    26A     -0.846311    27A     -0.823263
      28A     -0.788145    29A     -0.729083    30A     -0.680048
      31A     -0.675112    32A     -0.654176    33A     -0.635690
      34A     -0.625597    35A     -0.611504    36A     -0.593220
      37A     -0.588972    38A     -0.577823    39A     -0.571834
      40A     -0.562673    41A     -0.543415    42A     -0.534350
      43A     -0.523975    44A     -0.518664    45A     -0.512834
      46A     -0.506075    47A     -0.472617    48A     -0.419159
      49A     -0.410694    50A     -0.374005    51A     -0.352338
      52A     -0.338903    53A     -0.288678

  @DF-RHF Final Energy:  -609.50695868280741

   => Energetics <=

    Nuclear Repulsion Energy =            922.5067240535694282
    One-Electron Energy =               -2656.7622149114931744
    Two-Electron Energy =                1124.7485321751162246
    Total Energy =                       -609.5069586828074080
  Basis Set: (AUG-CC-PVTZ AUX)
    Blend: AUG-CC-PVTZ-RI
    Molecular point group: c1

    Geometry (in Angstrom), charge = 0, multiplicity = 1:

       Center              X                  Y                   Z               Mass
    ------------   -----------------  -----------------  -----------------  -----------------
         N           -0.453541024821     1.143213610332    -0.224741872875    14.003074004430
         N            1.805404975179     1.282632610332     0.345362127125    14.003074004430
         C           -1.607882024821     0.316905610332    -0.073542872875    12.000000000000
         C            0.801214975179     0.536860610332    -0.143048872875    12.000000000000
         C           -0.579034024821     2.493316610332     0.326328127125    12.000000000000
         C            1.003257975179    -0.771404389668    -0.634715872875    12.000000000000
         C            3.347041975179    -0.546761389668    -0.074870872875    12.000000000000
         C           -1.718095024821    -0.596008389668     0.985355127125    12.000000000000
         C           -2.611941724821     0.388679010332    -0.863816172875    12.000000000000
         C            2.280244975179    -1.304512389668    -0.586155872875    12.000000000000
         C            3.038239975179     0.738747610332     0.363112127125    12.000000000000
         C           -2.870815024821    -1.370382389668     1.118973127125    12.000000000000
         C           -3.821603024821    -0.306651389668    -0.832416872875    12.000000000000
         C           -3.927241024821    -1.224299389668     0.215574127125    12.000000000000
         C            4.746252975179    -1.092954389668    -0.006105872875    12.000000000000
         H            0.176309975179    -1.337683389668    -1.052048872875     1.007825032230
         H           -0.444353024821     2.510956610332     1.415947127125     1.007825032230
         H           -1.577227024821     2.858928610332     0.078720127125     1.007825032230
         H            0.175294975179     3.139652610332    -0.121945872875     1.007825032230
         H           -0.897863024821    -0.695088389668     1.693073127125     1.007825032230
         H           -2.555746024821     1.159037610332    -1.806075872875     1.007825032230
         H            2.458247975179    -2.311765389668    -0.961448872875     1.007825032230
         H            3.822524975179     1.383001610332     0.762755127125     1.007825032230
         H           -2.951342024821    -2.078791389668     1.940343127125     1.007825032230
         H           -4.637491024821    -0.193963389668    -1.542522872875     1.007825032230
         H            5.102240975179    -1.398086389668    -0.995427872875     1.007825032230
         H            5.438174975179    -0.340692389668     0.382999127125     1.007825032230
         H            4.799567975179    -1.969079389668     0.648459127125     1.007825032230
         H           -4.826225024821    -1.825554389668     0.326070127125     1.007825032230

  Basis Set: AUG-CC-PVTZ
    Blend: AUG-CC-PVTZ
  Basis Set: (AUG-CC-PVTZ AUX)
    Blend: AUG-CC-PVTZ-JKFIT
	 Reference Energy          =    -609.5069586828074080 [Eh]
	 Singles Energy            =      -0.0000000000000000 [Eh]
	 Same-Spin Energy          =      -0.6813406285523493 [Eh]
	 Opposite-Spin Energy      =      -2.1313821615237845 [Eh]
	 Correlation Energy        =      -2.8127227900761338 [Eh]
	 Total Energy              =    -612.3196814728835307 [Eh]

	 ================> DF-SCS-MP2 Energies <==================
	-----------------------------------------------------------
	 SCS Same-Spin Scale       =       0.3333333333333333 [-]
	 SCS Opposite-Spin Scale   =       1.2000000000000000 [-]
	 SCS Same-Spin Energy      =      -0.2271135428507831 [Eh]
	 SCS Opposite-Spin Energy  =      -2.5576585938285414 [Eh]
	 SCS Correlation Energy    =      -2.7847721366793246 [Eh]
	 SCS Total Energy          =    -612.2917308194867019 [Eh]
	-----------------------------------------------------------

  Dipole Moment: [D]
     X:    -0.5652      Y:    -1.5431      Z:    -0.1193     Total:     1.6477

*** Psi4 exiting successfully. Buy a developer a beer!
