                               Psi4 1.4a3.dev225

  ==> Input File <==

--------------------------------------------------------------------------
#psi4
#
memory 32 gb

molecule  {
0 1
  N       -0.4697210     1.1445100    -0.2216410
  N        1.7892250     1.2839290     0.3484630
  C       -1.6240620     0.3182020    -0.0704420
  C        0.7850350     0.5381570    -0.1399480
  C       -0.5952140     2.4946130     0.3294290
  C        0.9899395    -0.7886369    -0.6385785
  C        3.3308620    -0.5454650    -0.0717700
  C       -1.7342750    -0.5947120     0.9884560
  C       -2.6794440     0.4585720    -0.9790390
  C        2.2640650    -1.3032160    -0.5830550
  C        3.0220600     0.7400440     0.3662130
  C       -2.8869950    -1.3690860     1.1220740
  C       -3.8377830    -0.3053550    -0.8293160
  C       -3.9434210    -1.2230030     0.2186750
  C        4.7300730    -1.0916580    -0.0030050
  H        0.1601300    -1.3363870    -1.0489480
  H       -0.4605330     2.5122530     1.4190480
  H       -1.5934070     2.8602250     0.0818210
  H        0.1591150     3.1409490    -0.1188450
  H       -0.9140430    -0.6937920     1.6961740
  H       -2.5719260     1.1603340    -1.8029750
  H        2.4420680    -2.3104690    -0.9583480
  H        3.8063450     1.3842980     0.7658560
  H       -2.9675220    -2.0774950     1.9434440
  H       -4.6536710    -0.1926670    -1.5394220
  H        5.0860610    -1.3967900    -0.9923270
  H        5.4219950    -0.3393960     0.3861000
  H        4.7833880    -1.9677830     0.6515600
  H       -4.8424050    -1.8242580     0.3291710
units angstrom
no_reorient  #important for SAPT in psi4, default
symmetry c1  #important for SAPT in psi4, default
}

set PROPERTIES_ORIGIN ["COM"]
properties('MP2/aug-cc-pvtz', properties = ['dipole'])
--------------------------------------------------------------------------

    Molecular point group: c1
  Charge       = 0
  Multiplicity = 1
  Basis Set: AUG-CC-PVTZ
    Blend: AUG-CC-PVTZ
  Basis Set: (AUG-CC-PVTZ AUX)
    Blend: AUG-CC-PVTZ-JKFIT

    Orbital Energies [Eh]
    ---------------------

    Doubly Occupied:

       1A    -15.573987     2A    -15.548499     3A    -11.311163
       4A    -11.275882     5A    -11.264946     6A    -11.248740
       7A    -11.245629     8A    -11.242443     9A    -11.242224
      10A    -11.238549    11A    -11.238196    12A    -11.237345
      13A    -11.229666    14A    -11.229478    15A    -11.224763
      16A     -1.289902    17A     -1.217263    18A     -1.142691
      19A     -1.090391    20A     -1.036939    21A     -1.019108
      22A     -1.009218    23A     -0.949252    24A     -0.907566
      25A     -0.845742    26A     -0.839748    27A     -0.829451
      28A     -0.785477    29A     -0.724561    30A     -0.685719
      31A     -0.673753    32A     -0.648600    33A     -0.639867
      34A     -0.624684    35A     -0.609144    36A     -0.593954
      37A     -0.587636    38A     -0.583835    39A     -0.576369
      40A     -0.561558    41A     -0.542620    42A     -0.533560
      43A     -0.522572    44A     -0.515615    45A     -0.508720
      46A     -0.500525    47A     -0.499547    48A     -0.418148
      49A     -0.409379    50A     -0.375115    51A     -0.343142
      52A     -0.339132    53A     -0.285623

  @DF-RHF Final Energy:  -609.53341774457613

   => Energetics <=

    Nuclear Repulsion Energy =            919.2955405482864535
    One-Electron Energy =               -2650.4226444858827563
    Two-Electron Energy =                1121.5936861930201758
    Total Energy =                       -609.5334177445761270
  Basis Set: (AUG-CC-PVTZ AUX)
    Blend: AUG-CC-PVTZ-RI
    Molecular point group: c1

    Geometry (in Angstrom), charge = 0, multiplicity = 1:

       Center              X                  Y                   Z               Mass
    ------------   -----------------  -----------------  -----------------  -----------------
         N           -0.450605721841     1.140180976348    -0.217153143604    14.003074004430
         N            1.808340278159     1.279599976348     0.352950856396    14.003074004430
         C           -1.604946721841     0.313872976348    -0.065954143604    12.000000000000
         C            0.804150278159     0.533827976348    -0.135460143604    12.000000000000
         C           -0.576098721841     2.490283976348     0.333916856396    12.000000000000
         C            1.009054778159    -0.792965923652    -0.634090643604    12.000000000000
         C            3.349977278159    -0.549794023652    -0.067282143604    12.000000000000
         C           -1.715159721841    -0.599041023652     0.992943856396    12.000000000000
         C           -2.660328721841     0.454242976348    -0.974551143604    12.000000000000
         C            2.283180278159    -1.307545023652    -0.578567143604    12.000000000000
         C            3.041175278159     0.735714976348     0.370700856396    12.000000000000
         C           -2.867879721841    -1.373415023652     1.126561856396    12.000000000000
         C           -3.818667721841    -0.309684023652    -0.824828143604    12.000000000000
         C           -3.924305721841    -1.227332023652     0.223162856396    12.000000000000
         C            4.749188278159    -1.095987023652     0.001482856396    12.000000000000
         H            0.179245278159    -1.340716023652    -1.044460143604     1.007825032230
         H           -0.441417721841     2.507923976348     1.423535856396     1.007825032230
         H           -1.574291721841     2.855895976348     0.086308856396     1.007825032230
         H            0.178230278159     3.136619976348    -0.114357143604     1.007825032230
         H           -0.894927721841    -0.698121023652     1.700661856396     1.007825032230
         H           -2.552810721841     1.156004976348    -1.798487143604     1.007825032230
         H            2.461183278159    -2.314798023652    -0.953860143604     1.007825032230
         H            3.825460278159     1.379968976348     0.770343856396     1.007825032230
         H           -2.948406721841    -2.081824023652     1.947931856396     1.007825032230
         H           -4.634555721841    -0.196996023652    -1.534934143604     1.007825032230
         H            5.105176278159    -1.401119023652    -0.987839143604     1.007825032230
         H            5.441110278159    -0.343725023652     0.390587856396     1.007825032230
         H            4.802503278159    -1.972112023652     0.656047856396     1.007825032230
         H           -4.823289721841    -1.828587023652     0.333658856396     1.007825032230

  Basis Set: AUG-CC-PVTZ
    Blend: AUG-CC-PVTZ
  Basis Set: (AUG-CC-PVTZ AUX)
    Blend: AUG-CC-PVTZ-JKFIT
	 Reference Energy          =    -609.5334177445761270 [Eh]
	 Singles Energy            =      -0.0000000000000000 [Eh]
	 Same-Spin Energy          =      -0.6809507250286956 [Eh]
	 Opposite-Spin Energy      =      -2.1306688083832812 [Eh]
	 Correlation Energy        =      -2.8116195334119767 [Eh]
	 Total Energy              =    -612.3450372779881263 [Eh]

	 ================> DF-SCS-MP2 Energies <==================
	-----------------------------------------------------------
	 SCS Same-Spin Scale       =       0.3333333333333333 [-]
	 SCS Opposite-Spin Scale   =       1.2000000000000000 [-]
	 SCS Same-Spin Energy      =      -0.2269835750095652 [Eh]
	 SCS Opposite-Spin Energy  =      -2.5568025700599373 [Eh]
	 SCS Correlation Energy    =      -2.7837861450695023 [Eh]
	 SCS Total Energy          =    -612.3172038896456115 [Eh]
	-----------------------------------------------------------

  Dipole Moment: [D]
     X:    -0.5529      Y:    -1.4473      Z:    -0.1656     Total:     1.5581

*** Psi4 exiting successfully. Buy a developer a beer!
