                               Psi4 1.4a3.dev225

  ==> Input File <==

--------------------------------------------------------------------------
#psi4
#
memory 32 gb

molecule  {
0 1
  N       -0.4697210     1.1445100    -0.2216410
  N        1.7892250     1.2839290     0.3484630
  C       -1.6240620     0.3182020    -0.0704420
  C        0.7850350     0.5381570    -0.1399480
  C       -0.5952140     2.4946130     0.3294290
  C        0.9870780    -0.7701080    -0.6316150
  C        3.3308620    -0.5454650    -0.0717700
  C       -1.7342750    -0.5947120     0.9884560
  C       -2.6794440     0.4585720    -0.9790390
  C        2.2640650    -1.3032160    -0.5830550
  C        3.0220600     0.7400440     0.3662130
  C       -2.8869950    -1.3690860     1.1220740
  C       -3.8377830    -0.3053550    -0.8293160
  C       -3.9434210    -1.2230030     0.2186750
  C        4.7300730    -1.0916580    -0.0030050
  H        0.1601300    -1.3363870    -1.0489480
  H       -0.4605330     2.5122530     1.4190480
  H       -1.6848585     2.8937213     0.0591359
  H        0.1591150     3.1409490    -0.1188450
  H       -0.9140430    -0.6937920     1.6961740
  H       -2.5719260     1.1603340    -1.8029750
  H        2.4420680    -2.3104690    -0.9583480
  H        3.8063450     1.3842980     0.7658560
  H       -2.9675220    -2.0774950     1.9434440
  H       -4.6536710    -0.1926670    -1.5394220
  H        5.0860610    -1.3967900    -0.9923270
  H        5.4219950    -0.3393960     0.3861000
  H        4.7833880    -1.9677830     0.6515600
  H       -4.8424050    -1.8242580     0.3291710
units angstrom
no_reorient  #important for SAPT in psi4, default
symmetry c1  #important for SAPT in psi4, default
}

set PROPERTIES_ORIGIN ["COM"]
properties('MP2/aug-cc-pvtz', properties = ['dipole'])
--------------------------------------------------------------------------

    Molecular point group: c1
  Charge       = 0
  Multiplicity = 1
  Basis Set: AUG-CC-PVTZ
    Blend: AUG-CC-PVTZ
  Basis Set: (AUG-CC-PVTZ AUX)
    Blend: AUG-CC-PVTZ-JKFIT

    Orbital Energies [Eh]
    ---------------------

    Doubly Occupied:

       1A    -15.573956     2A    -15.549743     3A    -11.309509
       4A    -11.275378     5A    -11.266113     6A    -11.256962
       7A    -11.250754     8A    -11.241891     9A    -11.241636
      10A    -11.237951    11A    -11.237623    12A    -11.236642
      13A    -11.230889    14A    -11.229452    15A    -11.225525
      16A     -1.290807    17A     -1.217758    18A     -1.142169
      19A     -1.090436    20A     -1.038071    21A     -1.018553
      22A     -1.008225    23A     -0.946520    24A     -0.904924
      25A     -0.846035    26A     -0.839278    27A     -0.829251
      28A     -0.785099    29A     -0.724309    30A     -0.685610
      31A     -0.674117    32A     -0.648542    33A     -0.638147
      34A     -0.622897    35A     -0.608978    36A     -0.592898
      37A     -0.588574    38A     -0.582582    39A     -0.576476
      40A     -0.561637    41A     -0.543289    42A     -0.526397
      43A     -0.518287    44A     -0.514472    45A     -0.507648
      46A     -0.499942    47A     -0.497984    48A     -0.418402
      49A     -0.411053    50A     -0.374187    51A     -0.342832
      52A     -0.338674    53A     -0.286868

  @DF-RHF Final Energy:  -609.52688841834356

   => Energetics <=

    Nuclear Repulsion Energy =            919.1601030090255335
    One-Electron Energy =               -2650.1620788948193876
    Two-Electron Energy =                1121.4750874674502938
    Total Energy =                       -609.5268884183435603
  Basis Set: (AUG-CC-PVTZ AUX)
    Blend: AUG-CC-PVTZ-RI
    Molecular point group: c1

    Geometry (in Angstrom), charge = 0, multiplicity = 1:

       Center              X                  Y                   Z               Mass
    ------------   -----------------  -----------------  -----------------  -----------------
         N           -0.449967180262     1.138888271067    -0.217459527141    14.003074004430
         N            1.808978819738     1.278307271067     0.352644472859    14.003074004430
         C           -1.604308180262     0.312580271067    -0.066260527141    12.000000000000
         C            0.804788819738     0.532535271067    -0.135766527141    12.000000000000
         C           -0.575460180262     2.488991271067     0.333610472859    12.000000000000
         C            1.006831819738    -0.775729728933    -0.627433527141    12.000000000000
         C            3.350615819738    -0.551086728933    -0.067588527141    12.000000000000
         C           -1.714521180262    -0.600333728933     0.992637472859    12.000000000000
         C           -2.659690180262     0.452950271067    -0.974857527141    12.000000000000
         C            2.283818819738    -1.308837728933    -0.578873527141    12.000000000000
         C            3.041813819738     0.734422271067     0.370394472859    12.000000000000
         C           -2.867241180262    -1.374707728933     1.126255472859    12.000000000000
         C           -3.818029180262    -0.310976728933    -0.825134527141    12.000000000000
         C           -3.923667180262    -1.228624728933     0.222856472859    12.000000000000
         C            4.749826819738    -1.097279728933     0.001176472859    12.000000000000
         H            0.179883819738    -1.342008728933    -1.044766527141     1.007825032230
         H           -0.440779180262     2.506631271067     1.423229472859     1.007825032230
         H           -1.665104680262     2.888099571067     0.063317372859     1.007825032230
         H            0.178868819738     3.135327271067    -0.114663527141     1.007825032230
         H           -0.894289180262    -0.699413728933     1.700355472859     1.007825032230
         H           -2.552172180262     1.154712271067    -1.798793527141     1.007825032230
         H            2.461821819738    -2.316090728933    -0.954166527141     1.007825032230
         H            3.826098819738     1.378676271067     0.770037472859     1.007825032230
         H           -2.947768180262    -2.083116728933     1.947625472859     1.007825032230
         H           -4.633917180262    -0.198288728933    -1.535240527141     1.007825032230
         H            5.105814819738    -1.402411728933    -0.988145527141     1.007825032230
         H            5.441748819738    -0.345017728933     0.390281472859     1.007825032230
         H            4.803141819738    -1.973404728933     0.655741472859     1.007825032230
         H           -4.822651180262    -1.829879728933     0.333352472859     1.007825032230

  Basis Set: AUG-CC-PVTZ
    Blend: AUG-CC-PVTZ
  Basis Set: (AUG-CC-PVTZ AUX)
    Blend: AUG-CC-PVTZ-JKFIT
	 Reference Energy          =    -609.5268884183435603 [Eh]
	 Singles Energy            =      -0.0000000000000000 [Eh]
	 Same-Spin Energy          =      -0.6812643787252020 [Eh]
	 Opposite-Spin Energy      =      -2.1316636059733676 [Eh]
	 Correlation Energy        =      -2.8129279846985695 [Eh]
	 Total Energy              =    -612.3398164030421640 [Eh]

	 ================> DF-SCS-MP2 Energies <==================
	-----------------------------------------------------------
	 SCS Same-Spin Scale       =       0.3333333333333333 [-]
	 SCS Opposite-Spin Scale   =       1.2000000000000000 [-]
	 SCS Same-Spin Energy      =      -0.2270881262417340 [Eh]
	 SCS Opposite-Spin Energy  =      -2.5579963271680408 [Eh]
	 SCS Correlation Energy    =      -2.7850844534097750 [Eh]
	 SCS Total Energy          =    -612.3119728717533690 [Eh]
	-----------------------------------------------------------

  Dipole Moment: [D]
     X:    -0.4324      Y:    -1.5002      Z:    -0.1633     Total:     1.5698

*** Psi4 exiting successfully. Buy a developer a beer!
