                               Psi4 1.4a3.dev225

  ==> Input File <==

--------------------------------------------------------------------------
#psi4
#
memory 32 gb

molecule  {
0 1
  N       -0.4697210     1.1445100    -0.2216410
  N        1.7892250     1.2839290     0.3484630
  C       -1.6240620     0.3182020    -0.0704420
  C        0.7850350     0.5381570    -0.1399480
  C       -0.5952140     2.4946130     0.3294290
  C        0.9870780    -0.7701080    -0.6316150
  C        3.3308620    -0.5454650    -0.0717700
  C       -1.7342750    -0.5947120     0.9884560
  C       -2.6794440     0.4585720    -0.9790390
  C        2.2640650    -1.3032160    -0.5830550
  C        3.0220600     0.7400440     0.3662130
  C       -2.8869950    -1.3690860     1.1220740
  C       -3.8377830    -0.3053550    -0.8293160
  C       -4.0945896    -1.2020993     0.0894037
  C        4.7300730    -1.0916580    -0.0030050
  H        0.1601300    -1.3363870    -1.0489480
  H       -0.4605330     2.5122530     1.4190480
  H       -1.5934070     2.8602250     0.0818210
  H        0.1591150     3.1409490    -0.1188450
  H       -0.9140430    -0.6937920     1.6961740
  H       -2.5719260     1.1603340    -1.8029750
  H        2.4420680    -2.3104690    -0.9583480
  H        3.8063450     1.3842980     0.7658560
  H       -2.9675220    -2.0774950     1.9434440
  H       -4.6536710    -0.1926670    -1.5394220
  H        5.0860610    -1.3967900    -0.9923270
  H        5.4219950    -0.3393960     0.3861000
  H        4.7833880    -1.9677830     0.6515600
  H       -4.8424050    -1.8242580     0.3291710
units angstrom
no_reorient  #important for SAPT in psi4, default
symmetry c1  #important for SAPT in psi4, default
}

set PROPERTIES_ORIGIN ["COM"]
properties('MP2/aug-cc-pvtz', properties = ['dipole'])
--------------------------------------------------------------------------

    Molecular point group: c1
  Charge       = 0
  Multiplicity = 1
  Basis Set: AUG-CC-PVTZ
    Blend: AUG-CC-PVTZ
  Basis Set: (AUG-CC-PVTZ AUX)
    Blend: AUG-CC-PVTZ-JKFIT

    Orbital Energies [Eh]
    ---------------------

    Doubly Occupied:

       1A    -15.573714     2A    -15.549761     3A    -11.309170
       4A    -11.278461     5A    -11.266238     6A    -11.257371
       7A    -11.250907     8A    -11.245584     9A    -11.240218
      10A    -11.237784    11A    -11.235810    12A    -11.232952
      13A    -11.231114    14A    -11.229627    15A    -11.225620
      16A     -1.291021    17A     -1.217877    18A     -1.136397
      19A     -1.090523    20A     -1.038526    21A     -1.028531
      22A     -0.997232    23A     -0.949933    24A     -0.910419
      25A     -0.847571    26A     -0.839817    27A     -0.826420
      28A     -0.787272    29A     -0.722328    30A     -0.702352
      31A     -0.675252    32A     -0.644764    33A     -0.643803
      34A     -0.622973    35A     -0.610887    36A     -0.596101
      37A     -0.585540    38A     -0.580821    39A     -0.577083
      40A     -0.560775    41A     -0.545501    42A     -0.539197
      43A     -0.527943    44A     -0.523603    45A     -0.508744
      46A     -0.496516    47A     -0.462118    48A     -0.417895
      49A     -0.410868    50A     -0.374392    51A     -0.359232
      52A     -0.322053    53A     -0.287597

  @DF-RHF Final Energy:  -609.49250616024574

   => Energetics <=

    Nuclear Repulsion Energy =            917.4819024341554723
    One-Electron Energy =               -2646.7004050661407746
    Two-Electron Energy =                1119.7259964717395633
    Total Energy =                       -609.4925061602457390
  Basis Set: (AUG-CC-PVTZ AUX)
    Blend: AUG-CC-PVTZ-RI
    Molecular point group: c1

    Geometry (in Angstrom), charge = 0, multiplicity = 1:

       Center              X                  Y                   Z               Mass
    ------------   -----------------  -----------------  -----------------  -----------------
         N           -0.441276015945     1.137792517464    -0.209744878578    14.003074004430
         N            1.817669984055     1.277211517464     0.360359121422    14.003074004430
         C           -1.595617015945     0.311484517464    -0.058545878578    12.000000000000
         C            0.813479984055     0.531439517464    -0.128051878578    12.000000000000
         C           -0.566769015945     2.487895517464     0.341325121422    12.000000000000
         C            1.015522984055    -0.776825482536    -0.619718878578    12.000000000000
         C            3.359306984055    -0.552182482536    -0.059873878578    12.000000000000
         C           -1.705830015945    -0.601429482536     1.000352121422    12.000000000000
         C           -2.650999015945     0.451854517464    -0.967142878578    12.000000000000
         C            2.292509984055    -1.309933482536    -0.571158878578    12.000000000000
         C            3.050504984055     0.733326517464     0.378109121422    12.000000000000
         C           -2.858550015945    -1.375803482536     1.133970121422    12.000000000000
         C           -3.809338015945    -0.312072482536    -0.817419878578    12.000000000000
         C           -4.066144615945    -1.208816782536     0.101299821422    12.000000000000
         C            4.758517984055    -1.098375482536     0.008891121422    12.000000000000
         H            0.188574984055    -1.343104482536    -1.037051878578     1.007825032230
         H           -0.432088015945     2.505535517464     1.430944121422     1.007825032230
         H           -1.564962015945     2.853507517464     0.093717121422     1.007825032230
         H            0.187559984055     3.134231517464    -0.106948878578     1.007825032230
         H           -0.885598015945    -0.700509482536     1.708070121422     1.007825032230
         H           -2.543481015945     1.153616517464    -1.791078878578     1.007825032230
         H            2.470512984055    -2.317186482536    -0.946451878578     1.007825032230
         H            3.834789984055     1.377580517464     0.777752121422     1.007825032230
         H           -2.939077015945    -2.084212482536     1.955340121422     1.007825032230
         H           -4.625226015945    -0.199384482536    -1.527525878578     1.007825032230
         H            5.114505984055    -1.403507482536    -0.980430878578     1.007825032230
         H            5.450439984055    -0.346113482536     0.397996121422     1.007825032230
         H            4.811832984055    -1.974500482536     0.663456121422     1.007825032230
         H           -4.813960015945    -1.830975482536     0.341067121422     1.007825032230

  Basis Set: AUG-CC-PVTZ
    Blend: AUG-CC-PVTZ
  Basis Set: (AUG-CC-PVTZ AUX)
    Blend: AUG-CC-PVTZ-JKFIT
	 Reference Energy          =    -609.4925061602457390 [Eh]
	 Singles Energy            =      -0.0000000000000000 [Eh]
	 Same-Spin Energy          =      -0.6806362445694807 [Eh]
	 Opposite-Spin Energy      =      -2.1330982287465092 [Eh]
	 Correlation Energy        =      -2.8137344733159901 [Eh]
	 Total Energy              =    -612.3062406335617425 [Eh]

	 ================> DF-SCS-MP2 Energies <==================
	-----------------------------------------------------------
	 SCS Same-Spin Scale       =       0.3333333333333333 [-]
	 SCS Opposite-Spin Scale   =       1.2000000000000000 [-]
	 SCS Same-Spin Energy      =      -0.2268787481898269 [Eh]
	 SCS Opposite-Spin Energy  =      -2.5597178744958109 [Eh]
	 SCS Correlation Energy    =      -2.7865966226856376 [Eh]
	 SCS Total Energy          =    -612.2791027829314316 [Eh]
	-----------------------------------------------------------

  Dipole Moment: [D]
     X:    -0.4347      Y:    -1.4770      Z:    -0.1407     Total:     1.5460

*** Psi4 exiting successfully. Buy a developer a beer!
