                               Psi4 1.4a3.dev225

  ==> Input File <==

--------------------------------------------------------------------------
#psi4
#
memory 32 gb

molecule  {
0 1
  N       -0.4697210     1.1445100    -0.2216410
  N        1.7892250     1.2839290     0.3484630
  C       -1.6240620     0.3182020    -0.0704420
  C        0.7850350     0.5381570    -0.1399480
  C       -0.5952140     2.4946130     0.3294290
  C        0.9870780    -0.7701080    -0.6316150
  C        3.3308620    -0.5454650    -0.0717700
  C       -1.7342750    -0.5947120     0.9884560
  C       -2.6794440     0.4585720    -0.9790390
  C        2.2640650    -1.3032160    -0.5830550
  C        3.0220600     0.7400440     0.3662130
  C       -2.8869950    -1.3690860     1.1220740
  C       -3.8377830    -0.3053550    -0.8293160
  C       -3.9173074    -1.1893463     0.1948977
  C        4.7300730    -1.0916580    -0.0030050
  H        0.1601300    -1.3363870    -1.0489480
  H       -0.4605330     2.5122530     1.4190480
  H       -1.5934070     2.8602250     0.0818210
  H        0.1591150     3.1409490    -0.1188450
  H       -0.9140430    -0.6937920     1.6961740
  H       -2.5719260     1.1603340    -1.8029750
  H        2.4420680    -2.3104690    -0.9583480
  H        3.8063450     1.3842980     0.7658560
  H       -2.9675220    -2.0774950     1.9434440
  H       -4.6536710    -0.1926670    -1.5394220
  H        5.0860610    -1.3967900    -0.9923270
  H        5.4219950    -0.3393960     0.3861000
  H        4.7833880    -1.9677830     0.6515600
  H       -4.8424050    -1.8242580     0.3291710
units angstrom
no_reorient  #important for SAPT in psi4, default
symmetry c1  #important for SAPT in psi4, default
}

set PROPERTIES_ORIGIN ["COM"]
properties('MP2/aug-cc-pvtz', properties = ['dipole'])
--------------------------------------------------------------------------

    Molecular point group: c1
  Charge       = 0
  Multiplicity = 1
  Basis Set: AUG-CC-PVTZ
    Blend: AUG-CC-PVTZ
  Basis Set: (AUG-CC-PVTZ AUX)
    Blend: AUG-CC-PVTZ-JKFIT

    Orbital Energies [Eh]
    ---------------------

    Doubly Occupied:

       1A    -15.572531     2A    -15.548905     3A    -11.308490
       4A    -11.274370     5A    -11.265552     6A    -11.250252
       7A    -11.244920     8A    -11.241786     9A    -11.238041
      10A    -11.237804    11A    -11.237034    12A    -11.235859
      13A    -11.230326    14A    -11.228849    15A    -11.225153
      16A     -1.289989    17A     -1.217449    18A     -1.146907
      19A     -1.089998    20A     -1.037888    21A     -1.022026
      22A     -1.008673    23A     -0.949306    24A     -0.906990
      25A     -0.846965    26A     -0.838725    27A     -0.830872
      28A     -0.784896    29A     -0.725417    30A     -0.681652
      31A     -0.673611    32A     -0.648669    33A     -0.637901
      34A     -0.623214    35A     -0.610576    36A     -0.597564
      37A     -0.587325    38A     -0.583493    39A     -0.576610
      40A     -0.560035    41A     -0.542931    42A     -0.532783
      43A     -0.523358    44A     -0.511485    45A     -0.510492
      46A     -0.503815    47A     -0.494130    48A     -0.418320
      49A     -0.410264    50A     -0.373626    51A     -0.346797
      52A     -0.337693    53A     -0.286774

  @DF-RHF Final Energy:  -609.53088654559906

   => Energetics <=

    Nuclear Repulsion Energy =            920.5139346039293287
    One-Electron Energy =               -2652.8714669157498065
    Two-Electron Energy =                1122.8266457662214179
    Total Energy =                       -609.5308865455990599
  Basis Set: (AUG-CC-PVTZ AUX)
    Blend: AUG-CC-PVTZ-RI
    Molecular point group: c1

    Geometry (in Angstrom), charge = 0, multiplicity = 1:

       Center              X                  Y                   Z               Mass
    ------------   -----------------  -----------------  -----------------  -----------------
         N           -0.452014117047     1.137020059747    -0.216134720523    14.003074004430
         N            1.806931882953     1.276439059747     0.353969279477    14.003074004430
         C           -1.606355117047     0.310712059747    -0.064935720523    12.000000000000
         C            0.802741882953     0.530667059747    -0.134441720523    12.000000000000
         C           -0.577507117047     2.487123059747     0.334935279477    12.000000000000
         C            1.004784882953    -0.777597940253    -0.626108720523    12.000000000000
         C            3.348568882953    -0.552954940253    -0.066263720523    12.000000000000
         C           -1.716568117047    -0.602201940253     0.993962279477    12.000000000000
         C           -2.661737117047     0.451082059747    -0.973532720523    12.000000000000
         C            2.281771882953    -1.310705940253    -0.577548720523    12.000000000000
         C            3.039766882953     0.732554059747     0.371719279477    12.000000000000
         C           -2.869288117047    -1.376575940253     1.127580279477    12.000000000000
         C           -3.820076117047    -0.312844940253    -0.823809720523    12.000000000000
         C           -3.899600517047    -1.196836240253     0.200403979477    12.000000000000
         C            4.747779882953    -1.099147940253     0.002501279477    12.000000000000
         H            0.177836882953    -1.343876940253    -1.043441720523     1.007825032230
         H           -0.442826117047     2.504763059747     1.424554279477     1.007825032230
         H           -1.575700117047     2.852735059747     0.087327279477     1.007825032230
         H            0.176821882953     3.133459059747    -0.113338720523     1.007825032230
         H           -0.896336117047    -0.701281940253     1.701680279477     1.007825032230
         H           -2.554219117047     1.152844059747    -1.797468720523     1.007825032230
         H            2.459774882953    -2.317958940253    -0.952841720523     1.007825032230
         H            3.824051882953     1.376808059747     0.771362279477     1.007825032230
         H           -2.949815117047    -2.084984940253     1.948950279477     1.007825032230
         H           -4.635964117047    -0.200156940253    -1.533915720523     1.007825032230
         H            5.103767882953    -1.404279940253    -0.986820720523     1.007825032230
         H            5.439701882953    -0.346885940253     0.391606279477     1.007825032230
         H            4.801094882953    -1.975272940253     0.657066279477     1.007825032230
         H           -4.824698117047    -1.831747940253     0.334677279477     1.007825032230

  Basis Set: AUG-CC-PVTZ
    Blend: AUG-CC-PVTZ
  Basis Set: (AUG-CC-PVTZ AUX)
    Blend: AUG-CC-PVTZ-JKFIT
	 Reference Energy          =    -609.5308865455990599 [Eh]
	 Singles Energy            =      -0.0000000000000000 [Eh]
	 Same-Spin Energy          =      -0.6812041092231980 [Eh]
	 Opposite-Spin Energy      =      -2.1307178984880588 [Eh]
	 Correlation Energy        =      -2.8119220077112566 [Eh]
	 Total Energy              =    -612.3428085533103058 [Eh]

	 ================> DF-SCS-MP2 Energies <==================
	-----------------------------------------------------------
	 SCS Same-Spin Scale       =       0.3333333333333333 [-]
	 SCS Opposite-Spin Scale   =       1.2000000000000000 [-]
	 SCS Same-Spin Energy      =      -0.2270680364077327 [Eh]
	 SCS Opposite-Spin Energy  =      -2.5568614781856707 [Eh]
	 SCS Correlation Energy    =      -2.7839295145934031 [Eh]
	 SCS Total Energy          =    -612.3148160601924701 [Eh]
	-----------------------------------------------------------

  Dipole Moment: [D]
     X:    -0.4840      Y:    -1.4569      Z:    -0.1622     Total:     1.5437

*** Psi4 exiting successfully. Buy a developer a beer!
