                               Psi4 1.4a3.dev225

  ==> Input File <==

--------------------------------------------------------------------------
#psi4
#
memory 32 gb

molecule  {
0 1
  N       -0.4697210     1.1445100    -0.2216410
  N        1.7892250     1.2839290     0.3484630
  C       -1.6240620     0.3182020    -0.0704420
  C        0.7850350     0.5381570    -0.1399480
  C       -0.5952140     2.4946130     0.3294290
  C        0.9870780    -0.7701080    -0.6316150
  C        3.3308620    -0.5454650    -0.0717700
  C       -1.7499924    -0.7249019     1.1394645
  C       -2.6794440     0.4585720    -0.9790390
  C        2.2640650    -1.3032160    -0.5830550
  C        3.0220600     0.7400440     0.3662130
  C       -2.8869950    -1.3690860     1.1220740
  C       -3.8377830    -0.3053550    -0.8293160
  C       -3.9434210    -1.2230030     0.2186750
  C        4.7300730    -1.0916580    -0.0030050
  H        0.1601300    -1.3363870    -1.0489480
  H       -0.4605330     2.5122530     1.4190480
  H       -1.5934070     2.8602250     0.0818210
  H        0.1591150     3.1409490    -0.1188450
  H       -0.9140430    -0.6937920     1.6961740
  H       -2.5719260     1.1603340    -1.8029750
  H        2.4420680    -2.3104690    -0.9583480
  H        3.8063450     1.3842980     0.7658560
  H       -2.9675220    -2.0774950     1.9434440
  H       -4.6536710    -0.1926670    -1.5394220
  H        5.0860610    -1.3967900    -0.9923270
  H        5.4219950    -0.3393960     0.3861000
  H        4.7833880    -1.9677830     0.6515600
  H       -4.8424050    -1.8242580     0.3291710
units angstrom
no_reorient  #important for SAPT in psi4, default
symmetry c1  #important for SAPT in psi4, default
}

set PROPERTIES_ORIGIN ["COM"]
properties('MP2/aug-cc-pvtz', properties = ['dipole'])
--------------------------------------------------------------------------

    Molecular point group: c1
  Charge       = 0
  Multiplicity = 1
  Basis Set: AUG-CC-PVTZ
    Blend: AUG-CC-PVTZ
  Basis Set: (AUG-CC-PVTZ AUX)
    Blend: AUG-CC-PVTZ-JKFIT

    Orbital Energies [Eh]
    ---------------------

    Doubly Occupied:

       1A    -15.575618     2A    -15.550530     3A    -11.309555
       4A    -11.289849     5A    -11.266820     6A    -11.251391
       7A    -11.245895     8A    -11.243801     9A    -11.240048
      10A    -11.236737    11A    -11.233888    12A    -11.232443
      13A    -11.231813    14A    -11.230030    15A    -11.226093
      16A     -1.289875    17A     -1.215585    18A     -1.139386
      19A     -1.091126    20A     -1.040839    21A     -1.031195
      22A     -0.993557    23A     -0.950329    24A     -0.909494
      25A     -0.848130    26A     -0.845920    27A     -0.819874
      28A     -0.783012    29A     -0.721481    30A     -0.698798
      31A     -0.675772    32A     -0.647829    33A     -0.644248
      34A     -0.625089    35A     -0.603440    36A     -0.600441
      37A     -0.588622    38A     -0.580276    39A     -0.576781
      40A     -0.562019    41A     -0.544519    42A     -0.536298
      43A     -0.525901    44A     -0.522062    45A     -0.507785
      46A     -0.498652    47A     -0.477075    48A     -0.414609
      49A     -0.407931    50A     -0.375103    51A     -0.357422
      52A     -0.326648    53A     -0.282791

  @DF-RHF Final Energy:  -609.49221843287864

   => Energetics <=

    Nuclear Repulsion Energy =            916.6235953577844384
    One-Electron Energy =               -2644.9827806490106923
    Two-Electron Energy =                1118.8669668583477232
    Total Energy =                       -609.4922184328786443
  Basis Set: (AUG-CC-PVTZ AUX)
    Blend: AUG-CC-PVTZ-RI
    Molecular point group: c1

    Geometry (in Angstrom), charge = 0, multiplicity = 1:

       Center              X                  Y                   Z               Mass
    ------------   -----------------  -----------------  -----------------  -----------------
         N           -0.449480385476     1.146944357596    -0.226721613012    14.003074004430
         N            1.809465614524     1.286363357596     0.343382386988    14.003074004430
         C           -1.603821385476     0.320636357596    -0.075522613012    12.000000000000
         C            0.805275614524     0.540591357596    -0.145028613012    12.000000000000
         C           -0.574973385476     2.497047357596     0.324348386988    12.000000000000
         C            1.007318614524    -0.767673642404    -0.636695613012    12.000000000000
         C            3.351102614524    -0.543030642404    -0.076850613012    12.000000000000
         C           -1.729751785476    -0.722467542404     1.134383886988    12.000000000000
         C           -2.659203385476     0.461006357596    -0.984119613012    12.000000000000
         C            2.284305614524    -1.300781642404    -0.588135613012    12.000000000000
         C            3.042300614524     0.742478357596     0.361132386988    12.000000000000
         C           -2.866754385476    -1.366651642404     1.116993386988    12.000000000000
         C           -3.817542385476    -0.302920642404    -0.834396613012    12.000000000000
         C           -3.923180385476    -1.220568642404     0.213594386988    12.000000000000
         C            4.750313614524    -1.089223642404    -0.008085613012    12.000000000000
         H            0.180370614524    -1.333952642404    -1.054028613012     1.007825032230
         H           -0.440292385476     2.514687357596     1.413967386988     1.007825032230
         H           -1.573166385476     2.862659357596     0.076740386988     1.007825032230
         H            0.179355614524     3.143383357596    -0.123925613012     1.007825032230
         H           -0.893802385476    -0.691357642404     1.691093386988     1.007825032230
         H           -2.551685385476     1.162768357596    -1.808055613012     1.007825032230
         H            2.462308614524    -2.308034642404    -0.963428613012     1.007825032230
         H            3.826585614524     1.386732357596     0.760775386988     1.007825032230
         H           -2.947281385476    -2.075060642404     1.938363386988     1.007825032230
         H           -4.633430385476    -0.190232642404    -1.544502613012     1.007825032230
         H            5.106301614524    -1.394355642404    -0.997407613012     1.007825032230
         H            5.442235614524    -0.336961642404     0.381019386988     1.007825032230
         H            4.803628614524    -1.965348642404     0.646479386988     1.007825032230
         H           -4.822164385476    -1.821823642404     0.324090386988     1.007825032230

  Basis Set: AUG-CC-PVTZ
    Blend: AUG-CC-PVTZ
  Basis Set: (AUG-CC-PVTZ AUX)
    Blend: AUG-CC-PVTZ-JKFIT
	 Reference Energy          =    -609.4922184328786443 [Eh]
	 Singles Energy            =      -0.0000000000000000 [Eh]
	 Same-Spin Energy          =      -0.6809018998705709 [Eh]
	 Opposite-Spin Energy      =      -2.1333903078591674 [Eh]
	 Correlation Energy        =      -2.8142922077297383 [Eh]
	 Total Energy              =    -612.3065106406083942 [Eh]

	 ================> DF-SCS-MP2 Energies <==================
	-----------------------------------------------------------
	 SCS Same-Spin Scale       =       0.3333333333333333 [-]
	 SCS Opposite-Spin Scale   =       1.2000000000000000 [-]
	 SCS Same-Spin Energy      =      -0.2269672999568570 [Eh]
	 SCS Opposite-Spin Energy  =      -2.5600683694310007 [Eh]
	 SCS Correlation Energy    =      -2.7870356693878575 [Eh]
	 SCS Total Energy          =    -612.2792541022664636 [Eh]
	-----------------------------------------------------------

  Dipole Moment: [D]
     X:    -0.3285      Y:    -1.3785      Z:    -0.2118     Total:     1.4328

*** Psi4 exiting successfully. Buy a developer a beer!
