                               Psi4 1.4a3.dev225

  ==> Input File <==

--------------------------------------------------------------------------
#psi4
#
memory 32 gb

molecule  {
0 1
  N       -0.4697210     1.1445100    -0.2216410
  N        1.7892250     1.2839290     0.3484630
  C       -1.6240620     0.3182020    -0.0704420
  C        0.7850350     0.5381570    -0.1399480
  C       -0.5952140     2.4946130     0.3294290
  C        0.9870780    -0.7701080    -0.6316150
  C        3.3308620    -0.5454650    -0.0717700
  C       -1.7342750    -0.5947120     0.9884560
  C       -2.6794440     0.4585720    -0.9790390
  C        2.1718405    -1.2647147    -0.5865620
  C        3.0220600     0.7400440     0.3662130
  C       -2.8869950    -1.3690860     1.1220740
  C       -3.8377830    -0.3053550    -0.8293160
  C       -3.9434210    -1.2230030     0.2186750
  C        4.7300730    -1.0916580    -0.0030050
  H        0.1601300    -1.3363870    -1.0489480
  H       -0.4605330     2.5122530     1.4190480
  H       -1.5934070     2.8602250     0.0818210
  H        0.1591150     3.1409490    -0.1188450
  H       -0.9140430    -0.6937920     1.6961740
  H       -2.5719260     1.1603340    -1.8029750
  H        2.4420680    -2.3104690    -0.9583480
  H        3.8063450     1.3842980     0.7658560
  H       -2.9675220    -2.0774950     1.9434440
  H       -4.6536710    -0.1926670    -1.5394220
  H        5.0860610    -1.3967900    -0.9923270
  H        5.4219950    -0.3393960     0.3861000
  H        4.7833880    -1.9677830     0.6515600
  H       -4.8424050    -1.8242580     0.3291710
units angstrom
no_reorient  #important for SAPT in psi4, default
symmetry c1  #important for SAPT in psi4, default
}

set PROPERTIES_ORIGIN ["COM"]
properties('MP2/aug-cc-pvtz', properties = ['dipole'])
--------------------------------------------------------------------------

    Molecular point group: c1
  Charge       = 0
  Multiplicity = 1
  Basis Set: AUG-CC-PVTZ
    Blend: AUG-CC-PVTZ
  Basis Set: (AUG-CC-PVTZ AUX)
    Blend: AUG-CC-PVTZ-JKFIT

    Orbital Energies [Eh]
    ---------------------

    Doubly Occupied:

       1A    -15.576045     2A    -15.544832     3A    -11.311664
       4A    -11.277063     5A    -11.259705     6A    -11.246510
       7A    -11.246201     8A    -11.243529     9A    -11.243273
      10A    -11.239604    11A    -11.239401    12A    -11.238421
      13A    -11.231334    14A    -11.225844    15A    -11.220087
      16A     -1.291957    17A     -1.217802    18A     -1.143600
      19A     -1.093714    20A     -1.045756    21A     -1.020495
      22A     -1.010236    23A     -0.951759    24A     -0.907568
      25A     -0.841379    26A     -0.836411    27A     -0.829987
      28A     -0.787011    29A     -0.725053    30A     -0.687084
      31A     -0.677699    32A     -0.649919    33A     -0.642181
      34A     -0.623181    35A     -0.606296    36A     -0.593884
      37A     -0.588333    38A     -0.582849    39A     -0.575080
      40A     -0.560771    41A     -0.542065    42A     -0.535180
      43A     -0.525802    44A     -0.512628    45A     -0.505440
      46A     -0.501533    47A     -0.498391    48A     -0.417361
      49A     -0.405037    50A     -0.386794    51A     -0.343525
      52A     -0.339743    53A     -0.285967

  @DF-RHF Final Energy:  -609.52097857624801

   => Energetics <=

    Nuclear Repulsion Energy =            920.9221902959091040
    One-Electron Energy =               -2653.6203662958246241
    Two-Electron Energy =                1123.1771974236676215
    Total Energy =                       -609.5209785762478987
  Basis Set: (AUG-CC-PVTZ AUX)
    Blend: AUG-CC-PVTZ-RI
    Molecular point group: c1

    Geometry (in Angstrom), charge = 0, multiplicity = 1:

       Center              X                  Y                   Z               Mass
    ------------   -----------------  -----------------  -----------------  -----------------
         N           -0.444846299398     1.136726619094    -0.217362506114    14.003074004430
         N            1.814099700602     1.276145619094     0.352741493886    14.003074004430
         C           -1.599187299398     0.310418619094    -0.066163506114    12.000000000000
         C            0.809909700602     0.530373619094    -0.135669506114    12.000000000000
         C           -0.570339299398     2.486829619094     0.333707493886    12.000000000000
         C            1.011952700602    -0.777891380906    -0.627336506114    12.000000000000
         C            3.355736700602    -0.553248380906    -0.067491506114    12.000000000000
         C           -1.709400299398    -0.602495380906     0.992734493886    12.000000000000
         C           -2.654569299398     0.450788619094    -0.974760506114    12.000000000000
         C            2.196715200602    -1.272498080906    -0.582283506114    12.000000000000
         C            3.046934700602     0.732260619094     0.370491493886    12.000000000000
         C           -2.862120299398    -1.376869380906     1.126352493886    12.000000000000
         C           -3.812908299398    -0.313138380906    -0.825037506114    12.000000000000
         C           -3.918546299398    -1.230786380906     0.222953493886    12.000000000000
         C            4.754947700602    -1.099441380906     0.001273493886    12.000000000000
         H            0.185004700602    -1.344170380906    -1.044669506114     1.007825032230
         H           -0.435658299398     2.504469619094     1.423326493886     1.007825032230
         H           -1.568532299398     2.852441619094     0.086099493886     1.007825032230
         H            0.183989700602     3.133165619094    -0.114566506114     1.007825032230
         H           -0.889168299398    -0.701575380906     1.700452493886     1.007825032230
         H           -2.547051299398     1.152550619094    -1.798696506114     1.007825032230
         H            2.466942700602    -2.318252380906    -0.954069506114     1.007825032230
         H            3.831219700602     1.376514619094     0.770134493886     1.007825032230
         H           -2.942647299398    -2.085278380906     1.947722493886     1.007825032230
         H           -4.628796299398    -0.200450380906    -1.535143506114     1.007825032230
         H            5.110935700602    -1.404573380906    -0.988048506114     1.007825032230
         H            5.446869700602    -0.347179380906     0.390378493886     1.007825032230
         H            4.808262700602    -1.975566380906     0.655838493886     1.007825032230
         H           -4.817530299398    -1.832041380906     0.333449493886     1.007825032230

  Basis Set: AUG-CC-PVTZ
    Blend: AUG-CC-PVTZ
  Basis Set: (AUG-CC-PVTZ AUX)
    Blend: AUG-CC-PVTZ-JKFIT
	 Reference Energy          =    -609.5209785762480124 [Eh]
	 Singles Energy            =      -0.0000000000000000 [Eh]
	 Same-Spin Energy          =      -0.6803522357059828 [Eh]
	 Opposite-Spin Energy      =      -2.1303834865531499 [Eh]
	 Correlation Energy        =      -2.8107357222591327 [Eh]
	 Total Energy              =    -612.3317142985071087 [Eh]

	 ================> DF-SCS-MP2 Energies <==================
	-----------------------------------------------------------
	 SCS Same-Spin Scale       =       0.3333333333333333 [-]
	 SCS Opposite-Spin Scale   =       1.2000000000000000 [-]
	 SCS Same-Spin Energy      =      -0.2267840785686609 [Eh]
	 SCS Opposite-Spin Energy  =      -2.5564601838637797 [Eh]
	 SCS Correlation Energy    =      -2.7832442624324405 [Eh]
	 SCS Total Energy          =    -612.3042228386804027 [Eh]
	-----------------------------------------------------------

  Dipole Moment: [D]
     X:    -0.6270      Y:    -1.4510      Z:    -0.1714     Total:     1.5899

*** Psi4 exiting successfully. Buy a developer a beer!
