                               Psi4 1.4a3.dev225

  ==> Input File <==

--------------------------------------------------------------------------
#psi4
#
memory 32 gb

molecule  {
0 1
  N       -0.4697210     1.1445100    -0.2216410
  N        1.7892250     1.2839290     0.3484630
  C       -1.6240620     0.3182020    -0.0704420
  C        0.7850350     0.5381570    -0.1399480
  C       -0.5952140     2.4946130     0.3294290
  C        0.9870780    -0.7701080    -0.6316150
  C        3.3392263    -0.5267279    -0.0881296
  C       -1.7342750    -0.5947120     0.9884560
  C       -2.6794440     0.4585720    -0.9790390
  C        2.2640650    -1.3032160    -0.5830550
  C        3.0220600     0.7400440     0.3662130
  C       -2.8869950    -1.3690860     1.1220740
  C       -3.8377830    -0.3053550    -0.8293160
  C       -3.9434210    -1.2230030     0.2186750
  C        4.7300730    -1.0916580    -0.0030050
  H        0.1601300    -1.3363870    -1.0489480
  H       -0.4605330     2.5122530     1.4190480
  H       -1.5934070     2.8602250     0.0818210
  H        0.1591150     3.1409490    -0.1188450
  H       -0.9140430    -0.6937920     1.6961740
  H       -2.5719260     1.1603340    -1.8029750
  H        2.4420680    -2.3104690    -0.9583480
  H        3.8063450     1.3842980     0.7658560
  H       -2.9675220    -2.0774950     1.9434440
  H       -4.6536710    -0.1926670    -1.5394220
  H        5.0860610    -1.3967900    -0.9923270
  H        5.4219950    -0.3393960     0.3861000
  H        4.7833880    -1.9677830     0.6515600
  H       -4.8424050    -1.8242580     0.3291710
units angstrom
no_reorient  #important for SAPT in psi4, default
symmetry c1  #important for SAPT in psi4, default
}

set PROPERTIES_ORIGIN ["COM"]
properties('MP2/aug-cc-pvtz', properties = ['dipole'])
--------------------------------------------------------------------------

    Molecular point group: c1
  Charge       = 0
  Multiplicity = 1
  Basis Set: AUG-CC-PVTZ
    Blend: AUG-CC-PVTZ
  Basis Set: (AUG-CC-PVTZ AUX)
    Blend: AUG-CC-PVTZ-JKFIT

    Orbital Energies [Eh]
    ---------------------

    Doubly Occupied:

       1A    -15.573171     2A    -15.548289     3A    -11.308995
       4A    -11.275554     5A    -11.263711     6A    -11.251627
       7A    -11.245268     8A    -11.242207     9A    -11.241981
      10A    -11.238273    11A    -11.237898    12A    -11.237022
      13A    -11.230104    14A    -11.229411    15A    -11.225067
      16A     -1.290269    17A     -1.217440    18A     -1.142442
      19A     -1.088779    20A     -1.038729    21A     -1.018871
      22A     -1.008959    23A     -0.949269    24A     -0.908235
      25A     -0.845970    26A     -0.839516    27A     -0.829721
      28A     -0.785797    29A     -0.724668    30A     -0.685548
      31A     -0.674194    32A     -0.648414    33A     -0.638312
      34A     -0.622668    35A     -0.609784    36A     -0.593944
      37A     -0.588302    38A     -0.583822    39A     -0.576716
      40A     -0.562230    41A     -0.543879    42A     -0.534375
      43A     -0.523122    44A     -0.513713    45A     -0.506884
      46A     -0.500123    47A     -0.498434    48A     -0.418556
      49A     -0.410292    50A     -0.372862    51A     -0.342960
      52A     -0.339273    53A     -0.287415

  @DF-RHF Final Energy:  -609.53353435483086

   => Energetics <=

    Nuclear Repulsion Energy =            919.5779899954803795
    One-Electron Energy =               -2650.9969136292256735
    Two-Electron Energy =                1121.8853892789143174
    Total Energy =                       -609.5335343548308629
  Basis Set: (AUG-CC-PVTZ AUX)
    Blend: AUG-CC-PVTZ-RI
    Molecular point group: c1

    Geometry (in Angstrom), charge = 0, multiplicity = 1:

       Center              X                  Y                   Z               Mass
    ------------   -----------------  -----------------  -----------------  -----------------
         N           -0.450939030107     1.137923749871    -0.216584015560    14.003074004430
         N            1.808006969893     1.277342749871     0.353519984440    14.003074004430
         C           -1.605280030107     0.311615749871    -0.065385015560    12.000000000000
         C            0.803816969893     0.531570749871    -0.134891015560    12.000000000000
         C           -0.576432030107     2.488026749871     0.334485984440    12.000000000000
         C            1.005859969893    -0.776694250129    -0.626558015560    12.000000000000
         C            3.358008269893    -0.533314150129    -0.083072615560    12.000000000000
         C           -1.715493030107    -0.601298250129     0.993512984440    12.000000000000
         C           -2.660662030107     0.451985749871    -0.973982015560    12.000000000000
         C            2.282846969893    -1.309802250129    -0.577998015560    12.000000000000
         C            3.040841969893     0.733457749871     0.371269984440    12.000000000000
         C           -2.868213030107    -1.375672250129     1.127130984440    12.000000000000
         C           -3.819001030107    -0.311941250129    -0.824259015560    12.000000000000
         C           -3.924639030107    -1.229589250129     0.223731984440    12.000000000000
         C            4.748854969893    -1.098244250129     0.002051984440    12.000000000000
         H            0.178911969893    -1.342973250129    -1.043891015560     1.007825032230
         H           -0.441751030107     2.505666749871     1.424104984440     1.007825032230
         H           -1.574625030107     2.853638749871     0.086877984440     1.007825032230
         H            0.177896969893     3.134362749871    -0.113788015560     1.007825032230
         H           -0.895261030107    -0.700378250129     1.701230984440     1.007825032230
         H           -2.553144030107     1.153747749871    -1.797918015560     1.007825032230
         H            2.460849969893    -2.317055250129    -0.953291015560     1.007825032230
         H            3.825126969893     1.377711749871     0.770912984440     1.007825032230
         H           -2.948740030107    -2.084081250129     1.948500984440     1.007825032230
         H           -4.634889030107    -0.199253250129    -1.534365015560     1.007825032230
         H            5.104842969893    -1.403376250129    -0.987270015560     1.007825032230
         H            5.440776969893    -0.345982250129     0.391156984440     1.007825032230
         H            4.802169969893    -1.974369250129     0.656616984440     1.007825032230
         H           -4.823623030107    -1.830844250129     0.334227984440     1.007825032230

  Basis Set: AUG-CC-PVTZ
    Blend: AUG-CC-PVTZ
  Basis Set: (AUG-CC-PVTZ AUX)
    Blend: AUG-CC-PVTZ-JKFIT
	 Reference Energy          =    -609.5335343548308629 [Eh]
	 Singles Energy            =      -0.0000000000000000 [Eh]
	 Same-Spin Energy          =      -0.6810139856229999 [Eh]
	 Opposite-Spin Energy      =      -2.1306773013118487 [Eh]
	 Correlation Energy        =      -2.8116912869348485 [Eh]
	 Total Energy              =    -612.3452256417657509 [Eh]

	 ================> DF-SCS-MP2 Energies <==================
	-----------------------------------------------------------
	 SCS Same-Spin Scale       =       0.3333333333333333 [-]
	 SCS Opposite-Spin Scale   =       1.2000000000000000 [-]
	 SCS Same-Spin Energy      =      -0.2270046618743333 [Eh]
	 SCS Opposite-Spin Energy  =      -2.5568127615742182 [Eh]
	 SCS Correlation Energy    =      -2.7838174234485513 [Eh]
	 SCS Total Energy          =    -612.3173517782794306 [Eh]
	-----------------------------------------------------------

  Dipole Moment: [D]
     X:    -0.5205      Y:    -1.4751      Z:    -0.1656     Total:     1.5730

*** Psi4 exiting successfully. Buy a developer a beer!
