                               Psi4 1.4a3.dev225

  ==> Input File <==

--------------------------------------------------------------------------
#psi4
#
memory 32 gb

molecule  {
0 1
  N       -0.4697210     1.1445100    -0.2216410
  N        1.7892250     1.2839290     0.3484630
  C       -1.6240620     0.3182020    -0.0704420
  C        0.7850350     0.5381570    -0.1399480
  C       -0.5952140     2.4946130     0.3294290
  C        0.9870780    -0.7701080    -0.6316150
  C        3.3308620    -0.5454650    -0.0717700
  C       -1.7342750    -0.5947120     0.9884560
  C       -2.6794440     0.4585720    -0.9790390
  C        2.2640650    -1.3032160    -0.5830550
  C        3.0220600     0.7400440     0.3662130
  C       -2.8869950    -1.3690860     1.1220740
  C       -3.8377830    -0.3053550    -0.8293160
  C       -3.9472020    -1.2558473     0.2561845
  C        4.7300730    -1.0916580    -0.0030050
  H        0.1601300    -1.3363870    -1.0489480
  H       -0.4605330     2.5122530     1.4190480
  H       -1.5934070     2.8602250     0.0818210
  H        0.1591150     3.1409490    -0.1188450
  H       -0.9140430    -0.6937920     1.6961740
  H       -2.5719260     1.1603340    -1.8029750
  H        2.4420680    -2.3104690    -0.9583480
  H        3.8063450     1.3842980     0.7658560
  H       -2.9675220    -2.0774950     1.9434440
  H       -4.6536710    -0.1926670    -1.5394220
  H        5.0860610    -1.3967900    -0.9923270
  H        5.4219950    -0.3393960     0.3861000
  H        4.7833880    -1.9677830     0.6515600
  H       -4.8424050    -1.8242580     0.3291710
units angstrom
no_reorient  #important for SAPT in psi4, default
symmetry c1  #important for SAPT in psi4, default
}

set PROPERTIES_ORIGIN ["COM"]
properties('MP2/aug-cc-pvtz', properties = ['dipole'])
--------------------------------------------------------------------------

    Molecular point group: c1
  Charge       = 0
  Multiplicity = 1
  Basis Set: AUG-CC-PVTZ
    Blend: AUG-CC-PVTZ
  Basis Set: (AUG-CC-PVTZ AUX)
    Blend: AUG-CC-PVTZ-JKFIT

    Orbital Energies [Eh]
    ---------------------

    Doubly Occupied:

       1A    -15.573081     2A    -15.549059     3A    -11.308703
       4A    -11.276079     5A    -11.265557     6A    -11.250233
       7A    -11.247051     8A    -11.245446     9A    -11.239980
      10A    -11.238475    11A    -11.237362    12A    -11.237070
      13A    -11.230396    14A    -11.228926    15A    -11.225176
      16A     -1.290320    17A     -1.217446    18A     -1.140079
      19A     -1.089887    20A     -1.038366    21A     -1.018430
      22A     -1.007430    23A     -0.949424    24A     -0.907880
      25A     -0.847036    26A     -0.841627    27A     -0.826218
      28A     -0.786078    29A     -0.724175    30A     -0.688121
      31A     -0.674754    32A     -0.649368    33A     -0.637970
      34A     -0.622454    35A     -0.608904    36A     -0.592413
      37A     -0.588529    38A     -0.583505    39A     -0.576736
      40A     -0.562936    41A     -0.543525    42A     -0.535691
      43A     -0.523425    44A     -0.517719    45A     -0.506435
      46A     -0.500006    47A     -0.494663    48A     -0.417985
      49A     -0.410376    50A     -0.373634    51A     -0.343228
      52A     -0.337851    53A     -0.286126

  @DF-RHF Final Energy:  -609.53054688497173

   => Energetics <=

    Nuclear Repulsion Energy =            919.1171998440878497
    One-Electron Energy =               -2650.0688123247891781
    Two-Electron Energy =                1121.4210655957297149
    Total Energy =                       -609.5305468849717272
  Basis Set: (AUG-CC-PVTZ AUX)
    Blend: AUG-CC-PVTZ-RI
    Molecular point group: c1

    Geometry (in Angstrom), charge = 0, multiplicity = 1:

       Center              X                  Y                   Z               Mass
    ------------   -----------------  -----------------  -----------------  -----------------
         N           -0.450203381185     1.141048069674    -0.219846902878    14.003074004430
         N            1.808742618815     1.280467069674     0.350257097122    14.003074004430
         C           -1.604544381185     0.314740069674    -0.068647902878    12.000000000000
         C            0.804552618815     0.534695069674    -0.138153902878    12.000000000000
         C           -0.575696381185     2.491151069674     0.331223097122    12.000000000000
         C            1.006595618815    -0.773569930326    -0.629820902878    12.000000000000
         C            3.350379618815    -0.548926930326    -0.069975902878    12.000000000000
         C           -1.714757381185    -0.598173930326     0.990250097122    12.000000000000
         C           -2.659926381185     0.455110069674    -0.977244902878    12.000000000000
         C            2.283582618815    -1.306677930326    -0.581260902878    12.000000000000
         C            3.041577618815     0.736582069674     0.368007097122    12.000000000000
         C           -2.867477381185    -1.372547930326     1.123868097122    12.000000000000
         C           -3.818265381185    -0.308816930326    -0.827521902878    12.000000000000
         C           -3.927684381185    -1.259309230326     0.257978597122    12.000000000000
         C            4.749590618815    -1.095119930326    -0.001210902878    12.000000000000
         H            0.179647618815    -1.339848930326    -1.047153902878     1.007825032230
         H           -0.441015381185     2.508791069674     1.420842097122     1.007825032230
         H           -1.573889381185     2.856763069674     0.083615097122     1.007825032230
         H            0.178632618815     3.137487069674    -0.117050902878     1.007825032230
         H           -0.894525381185    -0.697253930326     1.697968097122     1.007825032230
         H           -2.552408381185     1.156872069674    -1.801180902878     1.007825032230
         H            2.461585618815    -2.313930930326    -0.956553902878     1.007825032230
         H            3.825862618815     1.380836069674     0.767650097122     1.007825032230
         H           -2.948004381185    -2.080956930326     1.945238097122     1.007825032230
         H           -4.634153381185    -0.196128930326    -1.537627902878     1.007825032230
         H            5.105578618815    -1.400251930326    -0.990532902878     1.007825032230
         H            5.441512618815    -0.342857930326     0.387894097122     1.007825032230
         H            4.802905618815    -1.971244930326     0.653354097122     1.007825032230
         H           -4.822887381185    -1.827719930326     0.330965097122     1.007825032230

  Basis Set: AUG-CC-PVTZ
    Blend: AUG-CC-PVTZ
  Basis Set: (AUG-CC-PVTZ AUX)
    Blend: AUG-CC-PVTZ-JKFIT
	 Reference Energy          =    -609.5305468849717272 [Eh]
	 Singles Energy            =      -0.0000000000000000 [Eh]
	 Same-Spin Energy          =      -0.6810787670289529 [Eh]
	 Opposite-Spin Energy      =      -2.1310020584597287 [Eh]
	 Correlation Energy        =      -2.8120808254886818 [Eh]
	 Total Energy              =    -612.3426277104604196 [Eh]

	 ================> DF-SCS-MP2 Energies <==================
	-----------------------------------------------------------
	 SCS Same-Spin Scale       =       0.3333333333333333 [-]
	 SCS Opposite-Spin Scale   =       1.2000000000000000 [-]
	 SCS Same-Spin Energy      =      -0.2270262556763176 [Eh]
	 SCS Opposite-Spin Energy  =      -2.5572024701516742 [Eh]
	 SCS Correlation Energy    =      -2.7842287258279916 [Eh]
	 SCS Total Energy          =    -612.3147756107997566 [Eh]
	-----------------------------------------------------------

  Dipole Moment: [D]
     X:    -0.4993      Y:    -1.4608      Z:    -0.1755     Total:     1.5537

*** Psi4 exiting successfully. Buy a developer a beer!
