                               Psi4 1.4a3.dev225

  ==> Input File <==

--------------------------------------------------------------------------
#psi4
#
memory 32 gb

molecule  {
0 1
  N       -0.4697210     1.1445100    -0.2216410
  N        1.7892250     1.2839290     0.3484630
  C       -1.6240620     0.3182020    -0.0704420
  C        0.7850350     0.5381570    -0.1399480
  C       -0.5952140     2.4946130     0.3294290
  C        0.9870780    -0.7701080    -0.6316150
  C        3.3308620    -0.5454650    -0.0717700
  C       -1.7342750    -0.5947120     0.9884560
  C       -2.6794440     0.4585720    -0.9790390
  C        2.2640650    -1.3032160    -0.5830550
  C        3.0220600     0.7400440     0.3662130
  C       -2.8869950    -1.3690860     1.1220740
  C       -3.8377830    -0.3053550    -0.8293160
  C       -3.9434210    -1.2230030     0.2186750
  C        4.7300730    -1.0916580    -0.0030050
  H        0.1601300    -1.3363870    -1.0489480
  H       -0.4605330     2.5122530     1.4190480
  H       -1.5934070     2.8602250     0.0818210
  H        0.1591150     3.1409490    -0.1188450
  H       -0.9140430    -0.6937920     1.6961740
  H       -2.5719260     1.1603340    -1.8029750
  H        2.4420680    -2.3104690    -0.9583480
  H        3.8063450     1.3842980     0.7658560
  H       -2.9675220    -2.0774950     1.9434440
  H       -4.6536710    -0.1926670    -1.5394220
  H        5.0860610    -1.3967900    -0.9923270
  H        5.4219950    -0.3393960     0.3861000
  H        4.7843618    -1.9837862     0.6635162
  H       -4.8424050    -1.8242580     0.3291710
units angstrom
no_reorient  #important for SAPT in psi4, default
symmetry c1  #important for SAPT in psi4, default
}

set PROPERTIES_ORIGIN ["COM"]
properties('MP2/aug-cc-pvtz', properties = ['dipole'])
--------------------------------------------------------------------------

    Molecular point group: c1
  Charge       = 0
  Multiplicity = 1
  Basis Set: AUG-CC-PVTZ
    Blend: AUG-CC-PVTZ
  Basis Set: (AUG-CC-PVTZ AUX)
    Blend: AUG-CC-PVTZ-JKFIT

    Orbital Energies [Eh]
    ---------------------

    Doubly Occupied:

       1A    -15.572908     2A    -15.549088     3A    -11.308716
       4A    -11.275417     5A    -11.265718     6A    -11.250340
       7A    -11.245240     8A    -11.242078     9A    -11.241855
      10A    -11.238141    11A    -11.237755    12A    -11.236886
      13A    -11.230559    14A    -11.228980    15A    -11.227579
      16A     -1.290258    17A     -1.217496    18A     -1.142311
      19A     -1.089847    20A     -1.037881    21A     -1.018717
      22A     -1.008792    23A     -0.948616    24A     -0.907085
      25A     -0.847041    26A     -0.839083    27A     -0.829170
      28A     -0.785543    29A     -0.724621    30A     -0.685471
      31A     -0.674430    32A     -0.648308    33A     -0.638171
      34A     -0.622778    35A     -0.609685    36A     -0.593779
      37A     -0.588121    38A     -0.583572    39A     -0.574789
      40A     -0.561660    41A     -0.542439    42A     -0.534286
      43A     -0.522820    44A     -0.514700    45A     -0.507933
      46A     -0.500056    47A     -0.498843    48A     -0.418009
      49A     -0.410429    50A     -0.373682    51A     -0.342866
      52A     -0.339001    53A     -0.286548

  @DF-RHF Final Energy:  -609.53322764457482

   => Energetics <=

    Nuclear Repulsion Energy =            919.5191099494394393
    One-Electron Energy =               -2650.8844816665832695
    Two-Electron Energy =                1121.8321440725690081
    Total Energy =                       -609.5332276445747084
  Basis Set: (AUG-CC-PVTZ AUX)
    Blend: AUG-CC-PVTZ-RI
    Molecular point group: c1

    Geometry (in Angstrom), charge = 0, multiplicity = 1:

       Center              X                  Y                   Z               Mass
    ------------   -----------------  -----------------  -----------------  -----------------
         N           -0.450437352650     1.139140077640    -0.217635749265    14.003074004430
         N            1.808508647350     1.278559077640     0.352468250735    14.003074004430
         C           -1.604778352650     0.312832077640    -0.066436749265    12.000000000000
         C            0.804318647350     0.532787077640    -0.135942749265    12.000000000000
         C           -0.575930352650     2.489243077640     0.333434250735    12.000000000000
         C            1.006361647350    -0.775477922360    -0.627609749265    12.000000000000
         C            3.350145647350    -0.550834922360    -0.067764749265    12.000000000000
         C           -1.714991352650    -0.600081922360     0.992461250735    12.000000000000
         C           -2.660160352650     0.453202077640    -0.975033749265    12.000000000000
         C            2.283348647350    -1.308585922360    -0.579049749265    12.000000000000
         C            3.041343647350     0.734674077640     0.370218250735    12.000000000000
         C           -2.867711352650    -1.374455922360     1.126079250735    12.000000000000
         C           -3.818499352650    -0.310724922360    -0.825310749265    12.000000000000
         C           -3.924137352650    -1.228372922360     0.222680250735    12.000000000000
         C            4.749356647350    -1.097027922360     0.001000250735    12.000000000000
         H            0.179413647350    -1.341756922360    -1.044942749265     1.007825032230
         H           -0.441249352650     2.506883077640     1.423053250735     1.007825032230
         H           -1.574123352650     2.854855077640     0.085826250735     1.007825032230
         H            0.178398647350     3.135579077640    -0.114839749265     1.007825032230
         H           -0.894759352650    -0.699161922360     1.700179250735     1.007825032230
         H           -2.552642352650     1.154964077640    -1.798969749265     1.007825032230
         H            2.461351647350    -2.315838922360    -0.954342749265     1.007825032230
         H            3.825628647350     1.378928077640     0.769861250735     1.007825032230
         H           -2.948238352650    -2.082864922360     1.947449250735     1.007825032230
         H           -4.634387352650    -0.198036922360    -1.535416749265     1.007825032230
         H            5.105344647350    -1.402159922360    -0.988321749265     1.007825032230
         H            5.441278647350    -0.344765922360     0.390105250735     1.007825032230
         H            4.803645447350    -1.989156122360     0.667521450735     1.007825032230
         H           -4.823121352650    -1.829627922360     0.333176250735     1.007825032230

  Basis Set: AUG-CC-PVTZ
    Blend: AUG-CC-PVTZ
  Basis Set: (AUG-CC-PVTZ AUX)
    Blend: AUG-CC-PVTZ-JKFIT
	 Reference Energy          =    -609.5332276445748221 [Eh]
	 Singles Energy            =      -0.0000000000000000 [Eh]
	 Same-Spin Energy          =      -0.6811260658056713 [Eh]
	 Opposite-Spin Energy      =      -2.1308610614549792 [Eh]
	 Correlation Energy        =      -2.8119871272606503 [Eh]
	 Total Energy              =    -612.3452147718354581 [Eh]

	 ================> DF-SCS-MP2 Energies <==================
	-----------------------------------------------------------
	 SCS Same-Spin Scale       =       0.3333333333333333 [-]
	 SCS Opposite-Spin Scale   =       1.2000000000000000 [-]
	 SCS Same-Spin Energy      =      -0.2270420219352237 [Eh]
	 SCS Opposite-Spin Energy  =      -2.5570332737459749 [Eh]
	 SCS Correlation Energy    =      -2.7840752956811987 [Eh]
	 SCS Total Energy          =    -612.3173029402560132 [Eh]
	-----------------------------------------------------------

  Dipole Moment: [D]
     X:    -0.5027      Y:    -1.4538      Z:    -0.1715     Total:     1.5478

*** Psi4 exiting successfully. Buy a developer a beer!
