                               Psi4 1.4a3.dev225

  ==> Input File <==

--------------------------------------------------------------------------
#psi4
#
memory 32 gb

molecule  {
0 1
  N       -0.4697210     1.1445100    -0.2216410
  N        1.7892250     1.2839290     0.3484630
  C       -1.6240620     0.3182020    -0.0704420
  C        0.7850350     0.5381570    -0.1399480
  C       -0.5952140     2.4946130     0.3294290
  C        0.9870780    -0.7701080    -0.6316150
  C        3.3308620    -0.5454650    -0.0717700
  C       -1.7342750    -0.5947120     0.9884560
  C       -2.6794440     0.4585720    -0.9790390
  C        2.2640650    -1.3032160    -0.5830550
  C        3.0220600     0.7400440     0.3662130
  C       -2.8869950    -1.3690860     1.1220740
  C       -3.8377830    -0.3053550    -0.8293160
  C       -3.9434210    -1.2230030     0.2186750
  C        4.7300730    -1.0916580    -0.0030050
  H        0.1601300    -1.3363870    -1.0489480
  H       -0.4605330     2.5122530     1.4190480
  H       -1.5934070     2.8602250     0.0818210
  H        0.1591150     3.1409490    -0.1188450
  H       -0.9140430    -0.6937920     1.6961740
  H       -2.5719260     1.1603340    -1.8029750
  H        2.4420680    -2.3104690    -0.9583480
  H        3.8063450     1.3842980     0.7658560
  H       -2.9675220    -2.0774950     1.9434440
  H       -4.6536710    -0.1926670    -1.5394220
  H        5.0860610    -1.3967900    -0.9923270
  H        5.4219950    -0.3393960     0.3861000
  H        4.7833880    -1.9677830     0.6515600
  H       -4.8424050    -1.8242580     0.3291710
units angstrom
no_reorient  #important for SAPT in psi4, default
symmetry c1  #important for SAPT in psi4, default
}

set PROPERTIES_ORIGIN ["COM"]
properties('MP2/aug-cc-pvtz', properties = ['dipole'])
--------------------------------------------------------------------------

    Molecular point group: c1
  Charge       = 0
  Multiplicity = 1
  Basis Set: AUG-CC-PVTZ
    Blend: AUG-CC-PVTZ
  Basis Set: (AUG-CC-PVTZ AUX)
    Blend: AUG-CC-PVTZ-JKFIT

    Orbital Energies [Eh]
    ---------------------

    Doubly Occupied:

       1A    -15.572831     2A    -15.549013     3A    -11.308615
       4A    -11.275375     5A    -11.265582     6A    -11.250268
       7A    -11.245190     8A    -11.242046     9A    -11.241823
      10A    -11.238108    11A    -11.237717    12A    -11.236848
      13A    -11.230392    14A    -11.228913    15A    -11.225182
      16A     -1.290182    17A     -1.217420    18A     -1.142273
      19A     -1.089938    20A     -1.037986    21A     -1.018689
      22A     -1.008818    23A     -0.949386    24A     -0.907511
      25A     -0.847006    26A     -0.839218    27A     -0.829234
      28A     -0.785582    29A     -0.724576    30A     -0.685455
      31A     -0.674369    32A     -0.648263    33A     -0.638294
      34A     -0.622709    35A     -0.609647    36A     -0.593837
      37A     -0.588083    38A     -0.583813    39A     -0.576679
      40A     -0.561613    41A     -0.543267    42A     -0.534229
      43A     -0.523372    44A     -0.514598    45A     -0.507854
      46A     -0.500034    47A     -0.498788    48A     -0.418068
      49A     -0.410343    50A     -0.373646    51A     -0.342846
      52A     -0.338972    53A     -0.286523

  @DF-RHF Final Energy:  -609.53372630086221

   => Energetics <=

    Nuclear Repulsion Energy =            919.6058586728881892
    One-Electron Energy =               -2651.0571191448066202
    Two-Electron Energy =                1121.9175341710563316
    Total Energy =                       -609.5337263008620994
  Basis Set: (AUG-CC-PVTZ AUX)
    Blend: AUG-CC-PVTZ-RI
    Molecular point group: c1

    Geometry (in Angstrom), charge = 0, multiplicity = 1:

       Center              X                  Y                   Z               Mass
    ------------   -----------------  -----------------  -----------------  -----------------
         N           -0.450432398877     1.139058668516    -0.217574927444    14.003074004430
         N            1.808513601123     1.278477668516     0.352529072556    14.003074004430
         C           -1.604773398877     0.312750668516    -0.066375927444    12.000000000000
         C            0.804323601123     0.532705668516    -0.135881927444    12.000000000000
         C           -0.575925398877     2.489161668516     0.333495072556    12.000000000000
         C            1.006366601123    -0.775559331484    -0.627548927444    12.000000000000
         C            3.350150601123    -0.550916331484    -0.067703927444    12.000000000000
         C           -1.714986398877    -0.600163331484     0.992522072556    12.000000000000
         C           -2.660155398877     0.453120668516    -0.974972927444    12.000000000000
         C            2.283353601123    -1.308667331484    -0.578988927444    12.000000000000
         C            3.041348601123     0.734592668516     0.370279072556    12.000000000000
         C           -2.867706398877    -1.374537331484     1.126140072556    12.000000000000
         C           -3.818494398877    -0.310806331484    -0.825249927444    12.000000000000
         C           -3.924132398877    -1.228454331484     0.222741072556    12.000000000000
         C            4.749361601123    -1.097109331484     0.001061072556    12.000000000000
         H            0.179418601123    -1.341838331484    -1.044881927444     1.007825032230
         H           -0.441244398877     2.506801668516     1.423114072556     1.007825032230
         H           -1.574118398877     2.854773668516     0.085887072556     1.007825032230
         H            0.178403601123     3.135497668516    -0.114778927444     1.007825032230
         H           -0.894754398877    -0.699243331484     1.700240072556     1.007825032230
         H           -2.552637398877     1.154882668516    -1.798908927444     1.007825032230
         H            2.461356601123    -2.315920331484    -0.954281927444     1.007825032230
         H            3.825633601123     1.378846668516     0.769922072556     1.007825032230
         H           -2.948233398877    -2.082946331484     1.947510072556     1.007825032230
         H           -4.634382398877    -0.198118331484    -1.535355927444     1.007825032230
         H            5.105349601123    -1.402241331484    -0.988260927444     1.007825032230
         H            5.441283601123    -0.344847331484     0.390166072556     1.007825032230
         H            4.802676601123    -1.973234331484     0.655626072556     1.007825032230
         H           -4.823116398877    -1.829709331484     0.333237072556     1.007825032230

  Basis Set: AUG-CC-PVTZ
    Blend: AUG-CC-PVTZ
  Basis Set: (AUG-CC-PVTZ AUX)
    Blend: AUG-CC-PVTZ-JKFIT
	 Reference Energy          =    -609.5337263008622131 [Eh]
	 Singles Energy            =      -0.0000000000000000 [Eh]
	 Same-Spin Energy          =      -0.6811347157512171 [Eh]
	 Opposite-Spin Energy      =      -2.1307465287126739 [Eh]
	 Correlation Energy        =      -2.8118812444638910 [Eh]
	 Total Energy              =    -612.3456075453260610 [Eh]

	 ================> DF-SCS-MP2 Energies <==================
	-----------------------------------------------------------
	 SCS Same-Spin Scale       =       0.3333333333333333 [-]
	 SCS Opposite-Spin Scale   =       1.2000000000000000 [-]
	 SCS Same-Spin Energy      =      -0.2270449052504057 [Eh]
	 SCS Opposite-Spin Energy  =      -2.5568958344552084 [Eh]
	 SCS Correlation Energy    =      -2.7839407397056140 [Eh]
	 SCS Total Energy          =    -612.3176670405678124 [Eh]
	-----------------------------------------------------------

  Dipole Moment: [D]
     X:    -0.4934      Y:    -1.4632      Z:    -0.1666     Total:     1.5531

*** Psi4 exiting successfully. Buy a developer a beer!
