                               Psi4 1.4a3.dev225

  ==> Input File <==

--------------------------------------------------------------------------
#psi4
#
memory 32 gb

molecule  {
0 1
  N       -0.4697210     1.1445100    -0.2216410
  N        1.7892250     1.2839290     0.3484630
  C       -1.6240620     0.3182020    -0.0704420
  C        0.7850350     0.5381570    -0.1399480
  C       -0.5952140     2.4946130     0.3294290
  C        0.9870780    -0.7701080    -0.6316150
  C        3.3308620    -0.5454650    -0.0717700
  C       -1.7342750    -0.5947120     0.9884560
  C       -2.6794440     0.4585720    -0.9790390
  C        2.2640650    -1.3032160    -0.5830550
  C        3.0220600     0.7400440     0.3662130
  C       -2.8869950    -1.3690860     1.1220740
  C       -3.8377830    -0.3053550    -0.8293160
  C       -3.9434210    -1.2230030     0.2186750
  C        4.7300730    -1.0916580    -0.0030050
  H        0.1601300    -1.3363870    -1.0489480
  H       -0.4605330     2.5122530     1.4190480
  H       -1.5019555     2.8267287     0.1045061
  H        0.1591150     3.1409490    -0.1188450
  H       -0.9140430    -0.6937920     1.6961740
  H       -2.5719260     1.1603340    -1.8029750
  H        2.4420680    -2.3104690    -0.9583480
  H        3.8063450     1.3842980     0.7658560
  H       -2.9675220    -2.0774950     1.9434440
  H       -4.6536710    -0.1926670    -1.5394220
  H        5.0860610    -1.3967900    -0.9923270
  H        5.4219950    -0.3393960     0.3861000
  H        4.7833880    -1.9677830     0.6515600
  H       -4.8424050    -1.8242580     0.3291710
units angstrom
no_reorient  #important for SAPT in psi4, default
symmetry c1  #important for SAPT in psi4, default
}

set PROPERTIES_ORIGIN ["COM"]
properties('MP2/aug-cc-pvtz', properties = ['dipole'])
--------------------------------------------------------------------------

    Molecular point group: c1
  Charge       = 0
  Multiplicity = 1
  Basis Set: AUG-CC-PVTZ
    Blend: AUG-CC-PVTZ
  Basis Set: (AUG-CC-PVTZ AUX)
    Blend: AUG-CC-PVTZ-JKFIT

    Orbital Energies [Eh]
    ---------------------

    Doubly Occupied:

       1A    -15.571953     2A    -15.548435     3A    -11.307907
       4A    -11.275395     5A    -11.265163     6A    -11.249889
       7A    -11.242193     8A    -11.241984     9A    -11.238278
      10A    -11.237837    11A    -11.237052    12A    -11.232843
      13A    -11.230007    14A    -11.228495    15A    -11.224916
      16A     -1.289815    17A     -1.217317    18A     -1.142460
      19A     -1.089552    20A     -1.038246    21A     -1.018825
      22A     -1.009993    23A     -0.954365    24A     -0.910799
      25A     -0.848359    26A     -0.839185    27A     -0.829251
      28A     -0.786314    29A     -0.725050    30A     -0.685379
      31A     -0.675211    32A     -0.648106    33A     -0.638777
      34A     -0.622792    35A     -0.611529    36A     -0.595831
      37A     -0.587792    38A     -0.585869    39A     -0.577007
      40A     -0.562090    41A     -0.546540    42A     -0.541337
      43A     -0.523340    44A     -0.514498    45A     -0.507814
      46A     -0.500110    47A     -0.499009    48A     -0.417788
      49A     -0.409788    50A     -0.373220    51A     -0.342882
      52A     -0.339229    53A     -0.286284

  @DF-RHF Final Energy:  -609.52779751219362

   => Energetics <=

    Nuclear Repulsion Energy =            920.1048546588536965
    One-Electron Energy =               -2652.0171060968555139
    Two-Electron Energy =                1122.3844539258084296
    Total Energy =                       -609.5277975121935015
  Basis Set: (AUG-CC-PVTZ AUX)
    Blend: AUG-CC-PVTZ-RI
    Molecular point group: c1

    Geometry (in Angstrom), charge = 0, multiplicity = 1:

       Center              X                  Y                   Z               Mass
    ------------   -----------------  -----------------  -----------------  -----------------
         N           -0.450897617493     1.139229065965    -0.217690327747    14.003074004430
         N            1.808048382507     1.278648065965     0.352413672253    14.003074004430
         C           -1.605238617493     0.312921065965    -0.066491327747    12.000000000000
         C            0.803858382507     0.532876065965    -0.135997327747    12.000000000000
         C           -0.576390617493     2.489332065965     0.333379672253    12.000000000000
         C            1.005901382507    -0.775388934035    -0.627664327747    12.000000000000
         C            3.349685382507    -0.550745934035    -0.067819327747    12.000000000000
         C           -1.715451617493    -0.599992934035     0.992406672253    12.000000000000
         C           -2.660620617493     0.453291065965    -0.975088327747    12.000000000000
         C            2.282888382507    -1.308496934035    -0.579104327747    12.000000000000
         C            3.040883382507     0.734763065965     0.370163672253    12.000000000000
         C           -2.868171617493    -1.374366934035     1.126024672253    12.000000000000
         C           -3.818959617493    -0.310635934035    -0.825365327747    12.000000000000
         C           -3.924597617493    -1.228283934035     0.222625672253    12.000000000000
         C            4.748896382507    -1.096938934035     0.000945672253    12.000000000000
         H            0.178953382507    -1.341667934035    -1.044997327747     1.007825032230
         H           -0.441709617493     2.506972065965     1.422998672253     1.007825032230
         H           -1.483132117493     2.821447765965     0.108456772253     1.007825032230
         H            0.177938382507     3.135668065965    -0.114894327747     1.007825032230
         H           -0.895219617493    -0.699072934035     1.700124672253     1.007825032230
         H           -2.553102617493     1.155053065965    -1.799024327747     1.007825032230
         H            2.460891382507    -2.315749934035    -0.954397327747     1.007825032230
         H            3.825168382507     1.379017065965     0.769806672253     1.007825032230
         H           -2.948698617493    -2.082775934035     1.947394672253     1.007825032230
         H           -4.634847617493    -0.197947934035    -1.535471327747     1.007825032230
         H            5.104884382507    -1.402070934035    -0.988376327747     1.007825032230
         H            5.440818382507    -0.344676934035     0.390050672253     1.007825032230
         H            4.802211382507    -1.973063934035     0.655510672253     1.007825032230
         H           -4.823581617493    -1.829538934035     0.333121672253     1.007825032230

  Basis Set: AUG-CC-PVTZ
    Blend: AUG-CC-PVTZ
  Basis Set: (AUG-CC-PVTZ AUX)
    Blend: AUG-CC-PVTZ-JKFIT
	 Reference Energy          =    -609.5277975121936151 [Eh]
	 Singles Energy            =      -0.0000000000000000 [Eh]
	 Same-Spin Energy          =      -0.6810413942375324 [Eh]
	 Opposite-Spin Energy      =      -2.1300854177448465 [Eh]
	 Correlation Energy        =      -2.8111268119823789 [Eh]
	 Total Energy              =    -612.3389243241759914 [Eh]

	 ================> DF-SCS-MP2 Energies <==================
	-----------------------------------------------------------
	 SCS Same-Spin Scale       =       0.3333333333333333 [-]
	 SCS Opposite-Spin Scale   =       1.2000000000000000 [-]
	 SCS Same-Spin Energy      =      -0.2270137980791775 [Eh]
	 SCS Opposite-Spin Energy  =      -2.5561025012938159 [Eh]
	 SCS Correlation Energy    =      -2.7831162993729932 [Eh]
	 SCS Total Energy          =    -612.3109138115665928 [Eh]
	-----------------------------------------------------------

  Dipole Moment: [D]
     X:    -0.5405      Y:    -1.4371      Z:    -0.1685     Total:     1.5446

*** Psi4 exiting successfully. Buy a developer a beer!
