                               Psi4 1.4a3.dev225

  ==> Input File <==

--------------------------------------------------------------------------
#psi4
#
memory 32 gb

molecule  {
0 1
  N       -0.4697210     1.1445100    -0.2216410
  N        1.7892250     1.2839290     0.3484630
  C       -1.6240620     0.3182020    -0.0704420
  C        0.7850350     0.5381570    -0.1399480
  C       -0.5952140     2.4946130     0.3294290
  C        0.9870780    -0.7701080    -0.6316150
  C        3.3308620    -0.5454650    -0.0717700
  C       -1.7342750    -0.5947120     0.9884560
  C       -2.6794440     0.4585720    -0.9790390
  C        2.2640650    -1.3032160    -0.5830550
  C        3.0220600     0.7400440     0.3662130
  C       -2.9684104    -1.4705326     1.1890302
  C       -3.8377830    -0.3053550    -0.8293160
  C       -3.9434210    -1.2230030     0.2186750
  C        4.7300730    -1.0916580    -0.0030050
  H        0.1601300    -1.3363870    -1.0489480
  H       -0.4605330     2.5122530     1.4190480
  H       -1.5934070     2.8602250     0.0818210
  H        0.1591150     3.1409490    -0.1188450
  H       -0.9140430    -0.6937920     1.6961740
  H       -2.5719260     1.1603340    -1.8029750
  H        2.4420680    -2.3104690    -0.9583480
  H        3.8063450     1.3842980     0.7658560
  H       -2.9675220    -2.0774950     1.9434440
  H       -4.6536710    -0.1926670    -1.5394220
  H        5.0860610    -1.3967900    -0.9923270
  H        5.4219950    -0.3393960     0.3861000
  H        4.7833880    -1.9677830     0.6515600
  H       -4.8424050    -1.8242580     0.3291710
units angstrom
no_reorient  #important for SAPT in psi4, default
symmetry c1  #important for SAPT in psi4, default
}

set PROPERTIES_ORIGIN ["COM"]
properties('MP2/aug-cc-pvtz', properties = ['dipole'])
--------------------------------------------------------------------------

    Molecular point group: c1
  Charge       = 0
  Multiplicity = 1
  Basis Set: AUG-CC-PVTZ
    Blend: AUG-CC-PVTZ
  Basis Set: (AUG-CC-PVTZ AUX)
    Blend: AUG-CC-PVTZ-JKFIT

    Orbital Energies [Eh]
    ---------------------

    Doubly Occupied:

       1A    -15.573089     2A    -15.548617     3A    -11.308320
       4A    -11.274954     5A    -11.265106     6A    -11.250566
       7A    -11.249742     8A    -11.246390     9A    -11.245096
      10A    -11.243180    11A    -11.241836    12A    -11.240809
      13A    -11.229969    14A    -11.228380    15A    -11.224896
      16A     -1.289821    17A     -1.216590    18A     -1.133471
      19A     -1.089447    20A     -1.037804    21A     -1.015069
      22A     -1.005436    23A     -0.949104    24A     -0.905470
      25A     -0.848191    26A     -0.845750    27A     -0.831178
      28A     -0.786678    29A     -0.727837    30A     -0.680898
      31A     -0.673618    32A     -0.657919    33A     -0.640891
      34A     -0.626981    35A     -0.612520    36A     -0.599203
      37A     -0.588247    38A     -0.578811    39A     -0.574967
      40A     -0.558957    41A     -0.542522    42A     -0.532888
      43A     -0.524534    44A     -0.519983    45A     -0.509121
      46A     -0.495623    47A     -0.483027    48A     -0.418121
      49A     -0.410078    50A     -0.373052    51A     -0.345034
      52A     -0.330046    53A     -0.286451

  @DF-RHF Final Energy:  -609.50461537449462

   => Energetics <=

    Nuclear Repulsion Energy =            916.7880999298001825
    One-Electron Energy =               -2645.3528516135070277
    Two-Electron Energy =                1119.0601363092121119
    Total Energy =                       -609.5046153744947333
  Basis Set: (AUG-CC-PVTZ AUX)
    Blend: AUG-CC-PVTZ-RI
    Molecular point group: c1

    Geometry (in Angstrom), charge = 0, multiplicity = 1:

       Center              X                  Y                   Z               Mass
    ------------   -----------------  -----------------  -----------------  -----------------
         N           -0.445501013795     1.145203356743    -0.221630509138    14.003074004430
         N            1.813444986205     1.284622356743     0.348473490862    14.003074004430
         C           -1.599842013795     0.318895356743    -0.070431509138    12.000000000000
         C            0.809254986205     0.538850356743    -0.139937509138    12.000000000000
         C           -0.570994013795     2.495306356743     0.329439490862    12.000000000000
         C            1.011297986205    -0.769414643257    -0.631604509138    12.000000000000
         C            3.355081986205    -0.544771643257    -0.071759509138    12.000000000000
         C           -1.710055013795    -0.594018643257     0.988466490862    12.000000000000
         C           -2.655224013795     0.459265356743    -0.979028509138    12.000000000000
         C            2.288284986205    -1.302522643257    -0.583044509138    12.000000000000
         C            3.046279986205     0.740737356743     0.366223490862    12.000000000000
         C           -2.944190413795    -1.469839243257     1.189040690862    12.000000000000
         C           -3.813563013795    -0.304661643257    -0.829305509138    12.000000000000
         C           -3.919201013795    -1.222309643257     0.218685490862    12.000000000000
         C            4.754292986205    -1.090964643257    -0.002994509138    12.000000000000
         H            0.184349986205    -1.335693643257    -1.048937509138     1.007825032230
         H           -0.436313013795     2.512946356743     1.419058490862     1.007825032230
         H           -1.569187013795     2.860918356743     0.081831490862     1.007825032230
         H            0.183334986205     3.141642356743    -0.118834509138     1.007825032230
         H           -0.889823013795    -0.693098643257     1.696184490862     1.007825032230
         H           -2.547706013795     1.161027356743    -1.802964509138     1.007825032230
         H            2.466287986205    -2.309775643257    -0.958337509138     1.007825032230
         H            3.830564986205     1.384991356743     0.765866490862     1.007825032230
         H           -2.943302013795    -2.076801643257     1.943454490862     1.007825032230
         H           -4.629451013795    -0.191973643257    -1.539411509138     1.007825032230
         H            5.110280986205    -1.396096643257    -0.992316509138     1.007825032230
         H            5.446214986205    -0.338702643257     0.386110490862     1.007825032230
         H            4.807607986205    -1.967089643257     0.651570490862     1.007825032230
         H           -4.818185013795    -1.823564643257     0.329181490862     1.007825032230

  Basis Set: AUG-CC-PVTZ
    Blend: AUG-CC-PVTZ
  Basis Set: (AUG-CC-PVTZ AUX)
    Blend: AUG-CC-PVTZ-JKFIT
	 Reference Energy          =    -609.5046153744946196 [Eh]
	 Singles Energy            =      -0.0000000000000000 [Eh]
	 Same-Spin Energy          =      -0.6812901780951979 [Eh]
	 Opposite-Spin Energy      =      -2.1330097577952065 [Eh]
	 Correlation Energy        =      -2.8142999358904044 [Eh]
	 Total Energy              =    -612.3189153103850231 [Eh]

	 ================> DF-SCS-MP2 Energies <==================
	-----------------------------------------------------------
	 SCS Same-Spin Scale       =       0.3333333333333333 [-]
	 SCS Opposite-Spin Scale   =       1.2000000000000000 [-]
	 SCS Same-Spin Energy      =      -0.2270967260317326 [Eh]
	 SCS Opposite-Spin Energy  =      -2.5596117093542476 [Eh]
	 SCS Correlation Energy    =      -2.7867084353859801 [Eh]
	 SCS Total Energy          =    -612.2913238098806232 [Eh]
	-----------------------------------------------------------

  Dipole Moment: [D]
     X:    -0.5005      Y:    -1.4785      Z:    -0.1499     Total:     1.5681

*** Psi4 exiting successfully. Buy a developer a beer!
