                               Psi4 1.4a3.dev225

  ==> Input File <==

--------------------------------------------------------------------------
#psi4
#
memory 32 gb

molecule  {
0 1
  N       -0.4697210     1.1445100    -0.2216410
  N        1.7892250     1.2839290     0.3484630
  C       -1.6240620     0.3182020    -0.0704420
  C        0.7850350     0.5381570    -0.1399480
  C       -0.5952140     2.4946130     0.3294290
  C        0.9870780    -0.7701080    -0.6316150
  C        3.3308620    -0.5454650    -0.0717700
  C       -1.7746034    -0.5544244     0.9095094
  C       -2.6794440     0.4585720    -0.9790390
  C        2.2640650    -1.3032160    -0.5830550
  C        3.0220600     0.7400440     0.3662130
  C       -2.8869950    -1.3690860     1.1220740
  C       -3.8377830    -0.3053550    -0.8293160
  C       -3.9434210    -1.2230030     0.2186750
  C        4.7300730    -1.0916580    -0.0030050
  H        0.1601300    -1.3363870    -1.0489480
  H       -0.4605330     2.5122530     1.4190480
  H       -1.5934070     2.8602250     0.0818210
  H        0.1591150     3.1409490    -0.1188450
  H       -0.9140430    -0.6937920     1.6961740
  H       -2.5719260     1.1603340    -1.8029750
  H        2.4420680    -2.3104690    -0.9583480
  H        3.8063450     1.3842980     0.7658560
  H       -2.9675220    -2.0774950     1.9434440
  H       -4.6536710    -0.1926670    -1.5394220
  H        5.0860610    -1.3967900    -0.9923270
  H        5.4219950    -0.3393960     0.3861000
  H        4.7833880    -1.9677830     0.6515600
  H       -4.8424050    -1.8242580     0.3291710
units angstrom
no_reorient  #important for SAPT in psi4, default
symmetry c1  #important for SAPT in psi4, default
}

set PROPERTIES_ORIGIN ["COM"]
properties('MP2/aug-cc-pvtz', properties = ['dipole'])
--------------------------------------------------------------------------

    Molecular point group: c1
  Charge       = 0
  Multiplicity = 1
  Basis Set: AUG-CC-PVTZ
    Blend: AUG-CC-PVTZ
  Basis Set: (AUG-CC-PVTZ AUX)
    Blend: AUG-CC-PVTZ-JKFIT

    Orbital Energies [Eh]
    ---------------------

    Doubly Occupied:

       1A    -15.573030     2A    -15.548603     3A    -11.308395
       4A    -11.265450     5A    -11.265176     6A    -11.249917
       7A    -11.245320     8A    -11.242109     9A    -11.240452
      10A    -11.238737    11A    -11.237646    12A    -11.235754
      13A    -11.229999    14A    -11.228701    15A    -11.224890
      16A     -1.290802    17A     -1.219240    18A     -1.149305
      19A     -1.089644    20A     -1.038140    21A     -1.019895
      22A     -1.014250    23A     -0.949243    24A     -0.907524
      25A     -0.846679    26A     -0.837773    27A     -0.833466
      28A     -0.786660    29A     -0.725744    30A     -0.684647
      31A     -0.673623    32A     -0.649591    33A     -0.635768
      34A     -0.621369    35A     -0.613983    36A     -0.593847
      37A     -0.588365    38A     -0.577989    39A     -0.575518
      40A     -0.560809    41A     -0.542953    42A     -0.533878
      43A     -0.522939    44A     -0.517956    45A     -0.510300
      46A     -0.505127    47A     -0.482679    48A     -0.419395
      49A     -0.410217    50A     -0.373166    51A     -0.350414
      52A     -0.337075    53A     -0.288111

  @DF-RHF Final Energy:  -609.52249788107883

   => Energetics <=

    Nuclear Repulsion Energy =            921.1747711295782892
    One-Electron Energy =               -2654.1700103599096110
    Two-Electron Energy =                1123.4727413492523738
    Total Energy =                       -609.5224978810788343
  Basis Set: (AUG-CC-PVTZ AUX)
    Blend: AUG-CC-PVTZ-RI
    Molecular point group: c1

    Geometry (in Angstrom), charge = 0, multiplicity = 1:

       Center              X                  Y                   Z               Mass
    ------------   -----------------  -----------------  -----------------  -----------------
         N           -0.447989680790     1.136618421712    -0.212793079224    14.003074004430
         N            1.810956319210     1.276037421712     0.357310920776    14.003074004430
         C           -1.602330680790     0.310310421712    -0.061594079224    12.000000000000
         C            0.806766319210     0.530265421712    -0.131100079224    12.000000000000
         C           -0.573482680790     2.486721421712     0.338276920776    12.000000000000
         C            1.008809319210    -0.777999578288    -0.622767079224    12.000000000000
         C            3.352593319210    -0.553356578288    -0.062922079224    12.000000000000
         C           -1.752872080790    -0.562315978288     0.918357320776    12.000000000000
         C           -2.657712680790     0.450680421712    -0.970191079224    12.000000000000
         C            2.285796319210    -1.311107578288    -0.574207079224    12.000000000000
         C            3.043791319210     0.732152421712     0.375060920776    12.000000000000
         C           -2.865263680790    -1.376977578288     1.130921920776    12.000000000000
         C           -3.816051680790    -0.313246578288    -0.820468079224    12.000000000000
         C           -3.921689680790    -1.230894578288     0.227522920776    12.000000000000
         C            4.751804319210    -1.099549578288     0.005842920776    12.000000000000
         H            0.181861319210    -1.344278578288    -1.040100079224     1.007825032230
         H           -0.438801680790     2.504361421712     1.427895920776     1.007825032230
         H           -1.571675680790     2.852333421712     0.090668920776     1.007825032230
         H            0.180846319210     3.133057421712    -0.109997079224     1.007825032230
         H           -0.892311680790    -0.701683578288     1.705021920776     1.007825032230
         H           -2.550194680790     1.152442421712    -1.794127079224     1.007825032230
         H            2.463799319210    -2.318360578288    -0.949500079224     1.007825032230
         H            3.828076319210     1.376406421712     0.774703920776     1.007825032230
         H           -2.945790680790    -2.085386578288     1.952291920776     1.007825032230
         H           -4.631939680790    -0.200558578288    -1.530574079224     1.007825032230
         H            5.107792319210    -1.404681578288    -0.983479079224     1.007825032230
         H            5.443726319210    -0.347287578288     0.394947920776     1.007825032230
         H            4.805119319210    -1.975674578288     0.660407920776     1.007825032230
         H           -4.820673680790    -1.832149578288     0.338018920776     1.007825032230

  Basis Set: AUG-CC-PVTZ
    Blend: AUG-CC-PVTZ
  Basis Set: (AUG-CC-PVTZ AUX)
    Blend: AUG-CC-PVTZ-JKFIT
	 Reference Energy          =    -609.5224978810788343 [Eh]
	 Singles Energy            =      -0.0000000000000000 [Eh]
	 Same-Spin Energy          =      -0.6811994525505887 [Eh]
	 Opposite-Spin Energy      =      -2.1308128399938817 [Eh]
	 Correlation Energy        =      -2.8120122925444706 [Eh]
	 Total Energy              =    -612.3345101736233573 [Eh]

	 ================> DF-SCS-MP2 Energies <==================
	-----------------------------------------------------------
	 SCS Same-Spin Scale       =       0.3333333333333333 [-]
	 SCS Opposite-Spin Scale   =       1.2000000000000000 [-]
	 SCS Same-Spin Energy      =      -0.2270664841835295 [Eh]
	 SCS Opposite-Spin Energy  =      -2.5569754079926579 [Eh]
	 SCS Correlation Energy    =      -2.7840418921761874 [Eh]
	 SCS Total Energy          =    -612.3065397732550537 [Eh]
	-----------------------------------------------------------

  Dipole Moment: [D]
     X:    -0.5527      Y:    -1.4973      Z:    -0.1546     Total:     1.6035

*** Psi4 exiting successfully. Buy a developer a beer!
