                               Psi4 1.4a3.dev225

  ==> Input File <==

--------------------------------------------------------------------------
#psi4
#
memory 32 gb

molecule  {
0 1
  N       -0.4697210     1.1445100    -0.2216410
  N        1.7892250     1.2839290     0.3484630
  C       -1.6240620     0.3182020    -0.0704420
  C        0.7850350     0.5381570    -0.1399480
  C       -0.5952140     2.4946130     0.3294290
  C        0.9870780    -0.7701080    -0.6316150
  C        3.3308620    -0.5454650    -0.0717700
  C       -1.7342750    -0.5947120     0.9884560
  C       -2.6794440     0.4585720    -0.9790390
  C        2.2640650    -1.3032160    -0.5830550
  C        3.0220600     0.7400440     0.3662130
  C       -2.8869950    -1.3690860     1.1220740
  C       -3.8377830    -0.3053550    -0.8293160
  C       -3.8613479    -1.1227307     0.1507597
  C        4.7300730    -1.0916580    -0.0030050
  H        0.1601300    -1.3363870    -1.0489480
  H       -0.4605330     2.5122530     1.4190480
  H       -1.5934070     2.8602250     0.0818210
  H        0.1591150     3.1409490    -0.1188450
  H       -0.9140430    -0.6937920     1.6961740
  H       -2.5719260     1.1603340    -1.8029750
  H        2.4420680    -2.3104690    -0.9583480
  H        3.8063450     1.3842980     0.7658560
  H       -2.9675220    -2.0774950     1.9434440
  H       -4.6536710    -0.1926670    -1.5394220
  H        5.0860610    -1.3967900    -0.9923270
  H        5.4219950    -0.3393960     0.3861000
  H        4.7833880    -1.9677830     0.6515600
  H       -4.8424050    -1.8242580     0.3291710
units angstrom
no_reorient  #important for SAPT in psi4, default
symmetry c1  #important for SAPT in psi4, default
}

set PROPERTIES_ORIGIN ["COM"]
properties('MP2/aug-cc-pvtz', properties = ['dipole'])
--------------------------------------------------------------------------

    Molecular point group: c1
  Charge       = 0
  Multiplicity = 1
  Basis Set: AUG-CC-PVTZ
    Blend: AUG-CC-PVTZ
  Basis Set: (AUG-CC-PVTZ AUX)
    Blend: AUG-CC-PVTZ-JKFIT

    Orbital Energies [Eh]
    ---------------------

    Doubly Occupied:

       1A    -15.572228     2A    -15.548868     3A    -11.308434
       4A    -11.272807     5A    -11.265643     6A    -11.250372
       7A    -11.244606     8A    -11.242430     9A    -11.238985
      10A    -11.237586    11A    -11.235909    12A    -11.230349
      13A    -11.228897    14A    -11.226362    15A    -11.225205
      16A     -1.289870    17A     -1.217968    18A     -1.158310
      19A     -1.090272    20A     -1.038017    21A     -1.031379
      22A     -1.007311    23A     -0.949318    24A     -0.906457
      25A     -0.847158    26A     -0.842294    27A     -0.830256
      28A     -0.784247    29A     -0.727580    30A     -0.677961
      31A     -0.671253    32A     -0.652052    33A     -0.636267
      34A     -0.624355    35A     -0.614323    36A     -0.603570
      37A     -0.586108    38A     -0.583124    39A     -0.576584
      40A     -0.558183    41A     -0.542643    42A     -0.531491
      43A     -0.523682    44A     -0.518514    45A     -0.512732
      46A     -0.508101    47A     -0.469006    48A     -0.419119
      49A     -0.410277    50A     -0.373792    51A     -0.355608
      52A     -0.335696    53A     -0.287336

  @DF-RHF Final Energy:  -609.50568526138829

   => Energetics <=

    Nuclear Repulsion Energy =            922.4488767685496668
    One-Electron Energy =               -2656.6673281604789736
    Two-Electron Energy =                1124.7127661305410129
    Total Energy =                       -609.5056852613881802
  Basis Set: (AUG-CC-PVTZ AUX)
    Blend: AUG-CC-PVTZ-RI
    Molecular point group: c1

    Geometry (in Angstrom), charge = 0, multiplicity = 1:

       Center              X                  Y                   Z               Mass
    ------------   -----------------  -----------------  -----------------  -----------------
         N           -0.455403621288     1.132985108422    -0.213461252423    14.003074004430
         N            1.803542378712     1.272404108422     0.356642747577    14.003074004430
         C           -1.609744621288     0.306677108422    -0.062262252423    12.000000000000
         C            0.799352378712     0.526632108422    -0.131768252423    12.000000000000
         C           -0.580896621288     2.483088108422     0.337608747577    12.000000000000
         C            1.001395378712    -0.781632891578    -0.623435252423    12.000000000000
         C            3.345179378712    -0.556989891578    -0.063590252423    12.000000000000
         C           -1.719957621288    -0.606236891578     0.996635747577    12.000000000000
         C           -2.665126621288     0.447047108422    -0.970859252423    12.000000000000
         C            2.278382378712    -1.314740891578    -0.574875252423    12.000000000000
         C            3.036377378712     0.728519108422     0.374392747577    12.000000000000
         C           -2.872677621288    -1.380610891578     1.130253747577    12.000000000000
         C           -3.823465621288    -0.316879891578    -0.821136252423    12.000000000000
         C           -3.847030521288    -1.134255591578     0.158939447577    12.000000000000
         C            4.744390378712    -1.103182891578     0.005174747577    12.000000000000
         H            0.174447378712    -1.347911891578    -1.040768252423     1.007825032230
         H           -0.446215621288     2.500728108422     1.427227747577     1.007825032230
         H           -1.579089621288     2.848700108422     0.090000747577     1.007825032230
         H            0.173432378712     3.129424108422    -0.110665252423     1.007825032230
         H           -0.899725621288    -0.705316891578     1.704353747577     1.007825032230
         H           -2.557608621288     1.148809108422    -1.794795252423     1.007825032230
         H            2.456385378712    -2.321993891578    -0.950168252423     1.007825032230
         H            3.820662378712     1.372773108422     0.774035747577     1.007825032230
         H           -2.953204621288    -2.089019891578     1.951623747577     1.007825032230
         H           -4.639353621288    -0.204191891578    -1.531242252423     1.007825032230
         H            5.100378378712    -1.408314891578    -0.984147252423     1.007825032230
         H            5.436312378712    -0.350920891578     0.394279747577     1.007825032230
         H            4.797705378712    -1.979307891578     0.659739747577     1.007825032230
         H           -4.828087621288    -1.835782891578     0.337350747577     1.007825032230

  Basis Set: AUG-CC-PVTZ
    Blend: AUG-CC-PVTZ
  Basis Set: (AUG-CC-PVTZ AUX)
    Blend: AUG-CC-PVTZ-JKFIT
	 Reference Energy          =    -609.5056852613882938 [Eh]
	 Singles Energy            =      -0.0000000000000000 [Eh]
	 Same-Spin Energy          =      -0.6815260423844157 [Eh]
	 Opposite-Spin Energy      =      -2.1315696832814766 [Eh]
	 Correlation Energy        =      -2.8130957256658924 [Eh]
	 Total Energy              =    -612.3187809870541969 [Eh]

	 ================> DF-SCS-MP2 Energies <==================
	-----------------------------------------------------------
	 SCS Same-Spin Scale       =       0.3333333333333333 [-]
	 SCS Opposite-Spin Scale   =       1.2000000000000000 [-]
	 SCS Same-Spin Energy      =      -0.2271753474614719 [Eh]
	 SCS Opposite-Spin Energy  =      -2.5578836199377717 [Eh]
	 SCS Correlation Energy    =      -2.7850589673992436 [Eh]
	 SCS Total Energy          =    -612.2907442287875028 [Eh]
	-----------------------------------------------------------

  Dipole Moment: [D]
     X:    -0.4200      Y:    -1.4174      Z:    -0.1594     Total:     1.4869

*** Psi4 exiting successfully. Buy a developer a beer!
