                               Psi4 1.4a3.dev225

  ==> Input File <==

--------------------------------------------------------------------------
#psi4
#
memory 32 gb

molecule  {
0 1
  N       -0.4697210     1.1445100    -0.2216410
  N        1.7892250     1.2839290     0.3484630
  C       -1.6240620     0.3182020    -0.0704420
  C        0.7850350     0.5381570    -0.1399480
  C       -0.5952140     2.4946130     0.3294290
  C        0.9870780    -0.7701080    -0.6316150
  C        3.3308620    -0.5454650    -0.0717700
  C       -1.7342750    -0.5947120     0.9884560
  C       -2.7434573     0.5187989    -1.0957223
  C        2.2640650    -1.3032160    -0.5830550
  C        3.0220600     0.7400440     0.3662130
  C       -2.8869950    -1.3690860     1.1220740
  C       -3.8377830    -0.3053550    -0.8293160
  C       -3.9434210    -1.2230030     0.2186750
  C        4.7300730    -1.0916580    -0.0030050
  H        0.1601300    -1.3363870    -1.0489480
  H       -0.4605330     2.5122530     1.4190480
  H       -1.5934070     2.8602250     0.0818210
  H        0.1591150     3.1409490    -0.1188450
  H       -0.9140430    -0.6937920     1.6961740
  H       -2.5719260     1.1603340    -1.8029750
  H        2.4420680    -2.3104690    -0.9583480
  H        3.8063450     1.3842980     0.7658560
  H       -2.9675220    -2.0774950     1.9434440
  H       -4.6536710    -0.1926670    -1.5394220
  H        5.0860610    -1.3967900    -0.9923270
  H        5.4219950    -0.3393960     0.3861000
  H        4.7833880    -1.9677830     0.6515600
  H       -4.8424050    -1.8242580     0.3291710
units angstrom
no_reorient  #important for SAPT in psi4, default
symmetry c1  #important for SAPT in psi4, default
}

set PROPERTIES_ORIGIN ["COM"]
properties('MP2/aug-cc-pvtz', properties = ['dipole'])
--------------------------------------------------------------------------

    Molecular point group: c1
  Charge       = 0
  Multiplicity = 1
  Basis Set: AUG-CC-PVTZ
    Blend: AUG-CC-PVTZ
  Basis Set: (AUG-CC-PVTZ AUX)
    Blend: AUG-CC-PVTZ-JKFIT

    Orbital Energies [Eh]
    ---------------------

    Doubly Occupied:

       1A    -15.573279     2A    -15.549045     3A    -11.308522
       4A    -11.288745     5A    -11.265469     6A    -11.250103
       7A    -11.245733     8A    -11.245179     9A    -11.244374
      10A    -11.241047    11A    -11.237985    12A    -11.237071
      13A    -11.230405    14A    -11.228784    15A    -11.225192
      16A     -1.289555    17A     -1.215454    18A     -1.134846
      19A     -1.089843    20A     -1.037176    21A     -1.022656
      22A     -0.999621    23A     -0.949459    24A     -0.908227
      25A     -0.846917    26A     -0.839913    27A     -0.833971
      28A     -0.781301    29A     -0.720248    30A     -0.700879
      31A     -0.674690    32A     -0.654273    33A     -0.636468
      34A     -0.619520    35A     -0.610220    36A     -0.599086
      37A     -0.590607    38A     -0.580126    39A     -0.576601
      40A     -0.560532    41A     -0.543435    42A     -0.535905
      43A     -0.525406    44A     -0.522442    45A     -0.509679
      46A     -0.494347    47A     -0.483238    48A     -0.415717
      49A     -0.409650    50A     -0.373561    51A     -0.347922
      52A     -0.329262    53A     -0.284100

  @DF-RHF Final Energy:  -609.50418421986819

   => Energetics <=

    Nuclear Repulsion Energy =            916.8243397408764395
    One-Electron Energy =               -2645.4214787730556964
    Two-Electron Energy =                1119.0929548123110635
    Total Energy =                       -609.5041842198681934
  Basis Set: (AUG-CC-PVTZ AUX)
    Blend: AUG-CC-PVTZ-RI
    Molecular point group: c1

    Geometry (in Angstrom), charge = 0, multiplicity = 1:

       Center              X                  Y                   Z               Mass
    ------------   -----------------  -----------------  -----------------  -----------------
         N           -0.446555070599     1.135410685011    -0.210507342134    14.003074004430
         N            1.812390929401     1.274829685011     0.359596657866    14.003074004430
         C           -1.600896070599     0.309102685011    -0.059308342134    12.000000000000
         C            0.808200929401     0.529057685011    -0.128814342134    12.000000000000
         C           -0.572048070599     2.485513685011     0.340562657866    12.000000000000
         C            1.010243929401    -0.779207314989    -0.620481342134    12.000000000000
         C            3.354027929401    -0.554564314989    -0.060636342134    12.000000000000
         C           -1.711109070599    -0.603811314989     0.999589657866    12.000000000000
         C           -2.720291370599     0.509699585011    -1.084588642134    12.000000000000
         C            2.287230929401    -1.312315314989    -0.571921342134    12.000000000000
         C            3.045225929401     0.730944685011     0.377346657866    12.000000000000
         C           -2.863829070599    -1.378185314989     1.133207657866    12.000000000000
         C           -3.814617070599    -0.314454314989    -0.818182342134    12.000000000000
         C           -3.920255070599    -1.232102314989     0.229808657866    12.000000000000
         C            4.753238929401    -1.100757314989     0.008128657866    12.000000000000
         H            0.183295929401    -1.345486314989    -1.037814342134     1.007825032230
         H           -0.437367070599     2.503153685011     1.430181657866     1.007825032230
         H           -1.570241070599     2.851125685011     0.092954657866     1.007825032230
         H            0.182280929401     3.131849685011    -0.107711342134     1.007825032230
         H           -0.890877070599    -0.702891314989     1.707307657866     1.007825032230
         H           -2.548760070599     1.151234685011    -1.791841342134     1.007825032230
         H            2.465233929401    -2.319568314989    -0.947214342134     1.007825032230
         H            3.829510929401     1.375198685011     0.776989657866     1.007825032230
         H           -2.944356070599    -2.086594314989     1.954577657866     1.007825032230
         H           -4.630505070599    -0.201766314989    -1.528288342134     1.007825032230
         H            5.109226929401    -1.405889314989    -0.981193342134     1.007825032230
         H            5.445160929401    -0.348495314989     0.397233657866     1.007825032230
         H            4.806553929401    -1.976882314989     0.662693657866     1.007825032230
         H           -4.819239070599    -1.833357314989     0.340304657866     1.007825032230

  Basis Set: AUG-CC-PVTZ
    Blend: AUG-CC-PVTZ
  Basis Set: (AUG-CC-PVTZ AUX)
    Blend: AUG-CC-PVTZ-JKFIT
	 Reference Energy          =    -609.5041842198681934 [Eh]
	 Singles Energy            =      -0.0000000000000000 [Eh]
	 Same-Spin Energy          =      -0.6814695925665826 [Eh]
	 Opposite-Spin Energy      =      -2.1330849181375315 [Eh]
	 Correlation Energy        =      -2.8145545107041139 [Eh]
	 Total Energy              =    -612.3187387305723632 [Eh]

	 ================> DF-SCS-MP2 Energies <==================
	-----------------------------------------------------------
	 SCS Same-Spin Scale       =       0.3333333333333333 [-]
	 SCS Opposite-Spin Scale   =       1.2000000000000000 [-]
	 SCS Same-Spin Energy      =      -0.2271565308555275 [Eh]
	 SCS Opposite-Spin Energy  =      -2.5597019017650378 [Eh]
	 SCS Correlation Energy    =      -2.7868584326205652 [Eh]
	 SCS Total Energy          =    -612.2910426524887271 [Eh]
	-----------------------------------------------------------

  Dipole Moment: [D]
     X:    -0.4311      Y:    -1.4405      Z:    -0.1550     Total:     1.5116

*** Psi4 exiting successfully. Buy a developer a beer!
