                               Psi4 1.4a3.dev225

  ==> Input File <==

--------------------------------------------------------------------------
#psi4
#
memory 32 gb

molecule  {
0 1
  N       -0.4697210     1.1445100    -0.2216410
  N        1.7892250     1.2839290     0.3484630
  C       -1.6240620     0.3182020    -0.0704420
  C        0.7850350     0.5381570    -0.1399480
  C       -0.5952140     2.4946130     0.3294290
  C        0.9870780    -0.7701080    -0.6316150
  C        3.3308620    -0.5454650    -0.0717700
  C       -1.7342750    -0.5947120     0.9884560
  C       -2.6794440     0.4585720    -0.9790390
  C        2.2640650    -1.3032160    -0.5830550
  C        3.0220600     0.7400440     0.3662130
  C       -2.8869950    -1.3690860     1.1220740
  C       -3.8792821    -0.3327238    -0.8239520
  C       -3.9434210    -1.2230030     0.2186750
  C        4.7300730    -1.0916580    -0.0030050
  H        0.1601300    -1.3363870    -1.0489480
  H       -0.4605330     2.5122530     1.4190480
  H       -1.5934070     2.8602250     0.0818210
  H        0.1591150     3.1409490    -0.1188450
  H       -0.9140430    -0.6937920     1.6961740
  H       -2.5719260     1.1603340    -1.8029750
  H        2.4420680    -2.3104690    -0.9583480
  H        3.8063450     1.3842980     0.7658560
  H       -2.9675220    -2.0774950     1.9434440
  H       -4.6536710    -0.1926670    -1.5394220
  H        5.0860610    -1.3967900    -0.9923270
  H        5.4219950    -0.3393960     0.3861000
  H        4.7833880    -1.9677830     0.6515600
  H       -4.8424050    -1.8242580     0.3291710
units angstrom
no_reorient  #important for SAPT in psi4, default
symmetry c1  #important for SAPT in psi4, default
}

set PROPERTIES_ORIGIN ["COM"]
properties('MP2/aug-cc-pvtz', properties = ['dipole'])
--------------------------------------------------------------------------

    Molecular point group: c1
  Charge       = 0
  Multiplicity = 1
  Basis Set: AUG-CC-PVTZ
    Blend: AUG-CC-PVTZ
  Basis Set: (AUG-CC-PVTZ AUX)
    Blend: AUG-CC-PVTZ-JKFIT

    Orbital Energies [Eh]
    ---------------------

    Doubly Occupied:

       1A    -15.572675     2A    -15.549010     3A    -11.308571
       4A    -11.275018     5A    -11.265623     6A    -11.250308
       7A    -11.244913     8A    -11.242566     9A    -11.242272
      10A    -11.241348    11A    -11.238696    12A    -11.236104
      13A    -11.230413    14A    -11.228909    15A    -11.225194
      16A     -1.290063    17A     -1.217150    18A     -1.140621
      19A     -1.089997    20A     -1.038026    21A     -1.016627
      22A     -1.008857    23A     -0.949338    24A     -0.907144
      25A     -0.847048    26A     -0.840359    27A     -0.829612
      28A     -0.785061    29A     -0.725255    30A     -0.684742
      31A     -0.674257    32A     -0.648964    33A     -0.638395
      34A     -0.623415    35A     -0.612568    36A     -0.595270
      37A     -0.586535    38A     -0.582473    39A     -0.576474
      40A     -0.561436    41A     -0.543164    42A     -0.533367
      43A     -0.523314    44A     -0.511866    45A     -0.510211
      46A     -0.501988    47A     -0.495878    48A     -0.418339
      49A     -0.410339    50A     -0.373597    51A     -0.345343
      52A     -0.334304    53A     -0.287192

  @DF-RHF Final Energy:  -609.53062959090289

   => Energetics <=

    Nuclear Repulsion Energy =            918.9276037316707288
    One-Electron Energy =               -2649.6960489355396930
    Two-Electron Energy =                1121.2378156129659601
    Total Energy =                       -609.5306295909028904
  Basis Set: (AUG-CC-PVTZ AUX)
    Blend: AUG-CC-PVTZ-RI
    Molecular point group: c1

    Geometry (in Angstrom), charge = 0, multiplicity = 1:

       Center              X                  Y                   Z               Mass
    ------------   -----------------  -----------------  -----------------  -----------------
         N           -0.447918770710     1.140716414987    -0.217899828501    14.003074004430
         N            1.811027229290     1.280135414987     0.352204171499    14.003074004430
         C           -1.602259770710     0.314408414987    -0.066700828501    12.000000000000
         C            0.806837229290     0.534363414987    -0.136206828501    12.000000000000
         C           -0.573411770710     2.490819414987     0.333170171499    12.000000000000
         C            1.008880229290    -0.773901585013    -0.627873828501    12.000000000000
         C            3.352664229290    -0.549258585013    -0.068028828501    12.000000000000
         C           -1.712472770710    -0.598505585013     0.992197171499    12.000000000000
         C           -2.657641770710     0.454778414987    -0.975297828501    12.000000000000
         C            2.285867229290    -1.307009585013    -0.579313828501    12.000000000000
         C            3.043862229290     0.736250414987     0.369954171499    12.000000000000
         C           -2.865192770710    -1.372879585013     1.125815171499    12.000000000000
         C           -3.857479870710    -0.336517385013    -0.820210828501    12.000000000000
         C           -3.921618770710    -1.226796585013     0.222416171499    12.000000000000
         C            4.751875229290    -1.095451585013     0.000736171499    12.000000000000
         H            0.181932229290    -1.340180585013    -1.045206828501     1.007825032230
         H           -0.438730770710     2.508459414987     1.422789171499     1.007825032230
         H           -1.571604770710     2.856431414987     0.085562171499     1.007825032230
         H            0.180917229290     3.137155414987    -0.115103828501     1.007825032230
         H           -0.892240770710    -0.697585585013     1.699915171499     1.007825032230
         H           -2.550123770710     1.156540414987    -1.799233828501     1.007825032230
         H            2.463870229290    -2.314262585013    -0.954606828501     1.007825032230
         H            3.828147229290     1.380504414987     0.769597171499     1.007825032230
         H           -2.945719770710    -2.081288585013     1.947185171499     1.007825032230
         H           -4.631868770710    -0.196460585013    -1.535680828501     1.007825032230
         H            5.107863229290    -1.400583585013    -0.988585828501     1.007825032230
         H            5.443797229290    -0.343189585013     0.389841171499     1.007825032230
         H            4.805190229290    -1.971576585013     0.655301171499     1.007825032230
         H           -4.820602770710    -1.828051585013     0.332912171499     1.007825032230

  Basis Set: AUG-CC-PVTZ
    Blend: AUG-CC-PVTZ
  Basis Set: (AUG-CC-PVTZ AUX)
    Blend: AUG-CC-PVTZ-JKFIT
	 Reference Energy          =    -609.5306295909028904 [Eh]
	 Singles Energy            =      -0.0000000000000000 [Eh]
	 Same-Spin Energy          =      -0.6810411016763871 [Eh]
	 Opposite-Spin Energy      =      -2.1309840744801543 [Eh]
	 Correlation Energy        =      -2.8120251761565411 [Eh]
	 Total Energy              =    -612.3426547670594573 [Eh]

	 ================> DF-SCS-MP2 Energies <==================
	-----------------------------------------------------------
	 SCS Same-Spin Scale       =       0.3333333333333333 [-]
	 SCS Opposite-Spin Scale   =       1.2000000000000000 [-]
	 SCS Same-Spin Energy      =      -0.2270137005587957 [Eh]
	 SCS Opposite-Spin Energy  =      -2.5571808893761849 [Eh]
	 SCS Correlation Energy    =      -2.7841945899349807 [Eh]
	 SCS Total Energy          =    -612.3148241808378316 [Eh]
	-----------------------------------------------------------

  Dipole Moment: [D]
     X:    -0.4964      Y:    -1.4602      Z:    -0.1753     Total:     1.5522

*** Psi4 exiting successfully. Buy a developer a beer!
