                               Psi4 1.4a3.dev225

  ==> Input File <==

--------------------------------------------------------------------------
#psi4
#
memory 32 gb

molecule  {
0 1
  N       -0.4697210     1.1445100    -0.2216410
  N        1.7892250     1.2839290     0.3484630
  C       -1.6240620     0.3182020    -0.0704420
  C        0.7850350     0.5381570    -0.1399480
  C       -0.5952140     2.4946130     0.3294290
  C        0.9870780    -0.7701080    -0.6316150
  C        3.3308620    -0.5454650    -0.0717700
  C       -1.7342750    -0.5947120     0.9884560
  C       -2.6794440     0.4585720    -0.9790390
  C        2.3101772    -1.3224666    -0.5813015
  C        3.0220600     0.7400440     0.3662130
  C       -2.8869950    -1.3690860     1.1220740
  C       -3.8377830    -0.3053550    -0.8293160
  C       -3.9434210    -1.2230030     0.2186750
  C        4.7300730    -1.0916580    -0.0030050
  H        0.1601300    -1.3363870    -1.0489480
  H       -0.4605330     2.5122530     1.4190480
  H       -1.5934070     2.8602250     0.0818210
  H        0.1591150     3.1409490    -0.1188450
  H       -0.9140430    -0.6937920     1.6961740
  H       -2.5719260     1.1603340    -1.8029750
  H        2.4420680    -2.3104690    -0.9583480
  H        3.8063450     1.3842980     0.7658560
  H       -2.9675220    -2.0774950     1.9434440
  H       -4.6536710    -0.1926670    -1.5394220
  H        5.0860610    -1.3967900    -0.9923270
  H        5.4219950    -0.3393960     0.3861000
  H        4.7833880    -1.9677830     0.6515600
  H       -4.8424050    -1.8242580     0.3291710
units angstrom
no_reorient  #important for SAPT in psi4, default
symmetry c1  #important for SAPT in psi4, default
}

set PROPERTIES_ORIGIN ["COM"]
properties('MP2/aug-cc-pvtz', properties = ['dipole'])
--------------------------------------------------------------------------

    Molecular point group: c1
  Charge       = 0
  Multiplicity = 1
  Basis Set: AUG-CC-PVTZ
    Blend: AUG-CC-PVTZ
  Basis Set: (AUG-CC-PVTZ AUX)
    Blend: AUG-CC-PVTZ-JKFIT

    Orbital Energies [Eh]
    ---------------------

    Doubly Occupied:

       1A    -15.571327     2A    -15.551296     3A    -11.307161
       4A    -11.274570     5A    -11.268635     6A    -11.251437
       7A    -11.244739     8A    -11.241332     9A    -11.241122
      10A    -11.237398    11A    -11.236895    12A    -11.236090
      13A    -11.232263    14A    -11.230028    15A    -11.224822
      16A     -1.289490    17A     -1.217488    18A     -1.141677
      19A     -1.091680    20A     -1.032900    21A     -1.017716
      22A     -1.008005    23A     -0.948224    24A     -0.907558
      25A     -0.851838    26A     -0.838214    27A     -0.828569
      28A     -0.785529    29A     -0.724811    30A     -0.684880
      31A     -0.672930    32A     -0.647563    33A     -0.636837
      34A     -0.623801    35A     -0.610649    36A     -0.593687
      37A     -0.588124    38A     -0.584782    39A     -0.577676
      40A     -0.562948    41A     -0.543854    42A     -0.535891
      43A     -0.522417    44A     -0.512652    45A     -0.505969
      46A     -0.499194    47A     -0.496989    48A     -0.418779
      49A     -0.412443    50A     -0.369161    51A     -0.342714
      52A     -0.338328    53A     -0.286319

  @DF-RHF Final Energy:  -609.52967760110266

   => Energetics <=

    Nuclear Repulsion Energy =            919.0145365975295135
    One-Electron Energy =               -2649.8856230992632845
    Two-Electron Energy =                1121.3414089006309950
    Total Energy =                       -609.5296776011027760
  Basis Set: (AUG-CC-PVTZ AUX)
    Blend: AUG-CC-PVTZ-RI
    Molecular point group: c1

    Geometry (in Angstrom), charge = 0, multiplicity = 1:

       Center              X                  Y                   Z               Mass
    ------------   -----------------  -----------------  -----------------  -----------------
         N           -0.453225445589     1.140224690198    -0.217681138108    14.003074004430
         N            1.805720554411     1.279643690198     0.352422861892    14.003074004430
         C           -1.607566445589     0.313916690198    -0.066482138108    12.000000000000
         C            0.801530554411     0.533871690198    -0.135988138108    12.000000000000
         C           -0.578718445589     2.490327690198     0.333388861892    12.000000000000
         C            1.003573554411    -0.774393309802    -0.627655138108    12.000000000000
         C            3.347357554411    -0.549750309802    -0.067810138108    12.000000000000
         C           -1.717779445589    -0.598997309802     0.992415861892    12.000000000000
         C           -2.662948445589     0.454286690198    -0.975079138108    12.000000000000
         C            2.326672754411    -1.326751909802    -0.577341638108    12.000000000000
         C            3.038555554411     0.735758690198     0.370172861892    12.000000000000
         C           -2.870499445589    -1.373371309802     1.126033861892    12.000000000000
         C           -3.821287445589    -0.309640309802    -0.825356138108    12.000000000000
         C           -3.926925445589    -1.227288309802     0.222634861892    12.000000000000
         C            4.746568554411    -1.095943309802     0.000954861892    12.000000000000
         H            0.176625554411    -1.340672309802    -1.044988138108     1.007825032230
         H           -0.444037445589     2.507967690198     1.423007861892     1.007825032230
         H           -1.576911445589     2.855939690198     0.085780861892     1.007825032230
         H            0.175610554411     3.136663690198    -0.114885138108     1.007825032230
         H           -0.897547445589    -0.698077309802     1.700133861892     1.007825032230
         H           -2.555430445589     1.156048690198    -1.799015138108     1.007825032230
         H            2.458563554411    -2.314754309802    -0.954388138108     1.007825032230
         H            3.822840554411     1.380012690198     0.769815861892     1.007825032230
         H           -2.951026445589    -2.081780309802     1.947403861892     1.007825032230
         H           -4.637175445589    -0.196952309802    -1.535462138108     1.007825032230
         H            5.102556554411    -1.401075309802    -0.988367138108     1.007825032230
         H            5.438490554411    -0.343681309802     0.390059861892     1.007825032230
         H            4.799883554411    -1.972068309802     0.655519861892     1.007825032230
         H           -4.825909445589    -1.828543309802     0.333130861892     1.007825032230

  Basis Set: AUG-CC-PVTZ
    Blend: AUG-CC-PVTZ
  Basis Set: (AUG-CC-PVTZ AUX)
    Blend: AUG-CC-PVTZ-JKFIT
	 Reference Energy          =    -609.5296776011026623 [Eh]
	 Singles Energy            =      -0.0000000000000000 [Eh]
	 Same-Spin Energy          =      -0.6815100298246368 [Eh]
	 Opposite-Spin Energy      =      -2.1313411292935065 [Eh]
	 Correlation Energy        =      -2.8128511591181433 [Eh]
	 Total Energy              =    -612.3425287602208300 [Eh]

	 ================> DF-SCS-MP2 Energies <==================
	-----------------------------------------------------------
	 SCS Same-Spin Scale       =       0.3333333333333333 [-]
	 SCS Opposite-Spin Scale   =       1.2000000000000000 [-]
	 SCS Same-Spin Energy      =      -0.2271700099415456 [Eh]
	 SCS Opposite-Spin Energy  =      -2.5576093551522079 [Eh]
	 SCS Correlation Energy    =      -2.7847793650937533 [Eh]
	 SCS Total Energy          =    -612.3144569661964169 [Eh]
	-----------------------------------------------------------

  Dipole Moment: [D]
     X:    -0.4382      Y:    -1.4635      Z:    -0.1635     Total:     1.5364

*** Psi4 exiting successfully. Buy a developer a beer!
