                               Psi4 1.4a3.dev225

  ==> Input File <==

--------------------------------------------------------------------------
#psi4
#
memory 32 gb

molecule  {
0 1
  N       -0.4697210     1.1445100    -0.2216410
  N        1.7892250     1.2839290     0.3484630
  C       -1.6240620     0.3182020    -0.0704420
  C        0.7850350     0.5381570    -0.1399480
  C       -0.5952140     2.4946130     0.3294290
  C        0.9870780    -0.7701080    -0.6316150
  C        3.3308620    -0.5454650    -0.0717700
  C       -1.7342750    -0.5947120     0.9884560
  C       -2.6794440     0.4585720    -0.9790390
  C        2.2640650    -1.3032160    -0.5830550
  C        3.0220600     0.7400440     0.3662130
  C       -2.8869950    -1.3690860     1.1220740
  C       -3.8377830    -0.3053550    -0.8293160
  C       -3.9434210    -1.2230030     0.2186750
  C        4.7300730    -1.0916580    -0.0030050
  H        0.1601300    -1.3363870    -1.0489480
  H       -0.4605330     2.5122530     1.4190480
  H       -1.5934070     2.8602250     0.0818210
  H        0.1591150     3.1409490    -0.1188450
  H       -0.9140430    -0.6937920     1.6961740
  H       -2.5719260     1.1603340    -1.8029750
  H        2.4747430    -2.4953648    -1.0272384
  H        3.8063450     1.3842980     0.7658560
  H       -2.9675220    -2.0774950     1.9434440
  H       -4.6536710    -0.1926670    -1.5394220
  H        5.0860610    -1.3967900    -0.9923270
  H        5.4219950    -0.3393960     0.3861000
  H        4.7833880    -1.9677830     0.6515600
  H       -4.8424050    -1.8242580     0.3291710
units angstrom
no_reorient  #important for SAPT in psi4, default
symmetry c1  #important for SAPT in psi4, default
}

set PROPERTIES_ORIGIN ["COM"]
properties('MP2/aug-cc-pvtz', properties = ['dipole'])
--------------------------------------------------------------------------

    Molecular point group: c1
  Charge       = 0
  Multiplicity = 1
  Basis Set: AUG-CC-PVTZ
    Blend: AUG-CC-PVTZ
  Basis Set: (AUG-CC-PVTZ AUX)
    Blend: AUG-CC-PVTZ-JKFIT

    Orbital Energies [Eh]
    ---------------------

    Doubly Occupied:

       1A    -15.573803     2A    -15.550108     3A    -11.310329
       4A    -11.275811     5A    -11.271777     6A    -11.267450
       7A    -11.245881     8A    -11.242348     9A    -11.242128
      10A    -11.238430    11A    -11.238099    12A    -11.237232
      13A    -11.232909    14A    -11.231152    15A    -11.225203
      16A     -1.291289    17A     -1.218525    18A     -1.142681
      19A     -1.087946    20A     -1.038789    21A     -1.019015
      22A     -1.009284    23A     -0.948810    24A     -0.908010
      25A     -0.843110    26A     -0.838871    27A     -0.827883
      28A     -0.780762    29A     -0.720966    30A     -0.683021
      31A     -0.675378    32A     -0.648790    33A     -0.637622
      34A     -0.621764    35A     -0.605735    36A     -0.593117
      37A     -0.588758    38A     -0.582244    39A     -0.576275
      40A     -0.550049    41A     -0.542860    42A     -0.524912
      43A     -0.520382    44A     -0.515062    45A     -0.508665
      46A     -0.500476    47A     -0.499415    48A     -0.418929
      49A     -0.410135    50A     -0.375147    51A     -0.343309
      52A     -0.339437    53A     -0.287686

  @DF-RHF Final Energy:  -609.51173265937825

   => Energetics <=

    Nuclear Repulsion Energy =            918.6131291418737419
    One-Electron Energy =               -2649.0341757184487506
    Two-Electron Energy =                1120.9093139171966413
    Total Energy =                       -609.5117326593783673
  Basis Set: (AUG-CC-PVTZ AUX)
    Blend: AUG-CC-PVTZ-RI
    Molecular point group: c1

    Geometry (in Angstrom), charge = 0, multiplicity = 1:

       Center              X                  Y                   Z               Mass
    ------------   -----------------  -----------------  -----------------  -----------------
         N           -0.450598618330     1.139999243226    -0.217224478337    14.003074004430
         N            1.808347381670     1.279418243226     0.352879521663    14.003074004430
         C           -1.604939618330     0.313691243226    -0.066025478337    12.000000000000
         C            0.804157381670     0.533646243226    -0.135531478337    12.000000000000
         C           -0.576091618330     2.490102243226     0.333845521663    12.000000000000
         C            1.006200381670    -0.774618756774    -0.627198478337    12.000000000000
         C            3.349984381670    -0.549975756774    -0.067353478337    12.000000000000
         C           -1.715152618330    -0.599222756774     0.992872521663    12.000000000000
         C           -2.660321618330     0.454061243226    -0.974622478337    12.000000000000
         C            2.283187381670    -1.307726756774    -0.578638478337    12.000000000000
         C            3.041182381670     0.735533243226     0.370629521663    12.000000000000
         C           -2.867872618330    -1.373596756774     1.126490521663    12.000000000000
         C           -3.818660618330    -0.309865756774    -0.824899478337    12.000000000000
         C           -3.924298618330    -1.227513756774     0.223091521663    12.000000000000
         C            4.749195381670    -1.096168756774     0.001411521663    12.000000000000
         H            0.179252381670    -1.340897756774    -1.044531478337     1.007825032230
         H           -0.441410618330     2.507742243226     1.423464521663     1.007825032230
         H           -1.574284618330     2.855714243226     0.086237521663     1.007825032230
         H            0.178237381670     3.136438243226    -0.114428478337     1.007825032230
         H           -0.894920618330    -0.698302756774     1.700590521663     1.007825032230
         H           -2.552803618330     1.155823243226    -1.798558478337     1.007825032230
         H            2.493865381670    -2.499875556774    -1.022821878337     1.007825032230
         H            3.825467381670     1.379787243226     0.770272521663     1.007825032230
         H           -2.948399618330    -2.082005756774     1.947860521663     1.007825032230
         H           -4.634548618330    -0.197177756774    -1.535005478337     1.007825032230
         H            5.105183381670    -1.401300756774    -0.987910478337     1.007825032230
         H            5.441117381670    -0.343906756774     0.390516521663     1.007825032230
         H            4.802510381670    -1.972293756774     0.655976521663     1.007825032230
         H           -4.823282618330    -1.828768756774     0.333587521663     1.007825032230

  Basis Set: AUG-CC-PVTZ
    Blend: AUG-CC-PVTZ
  Basis Set: (AUG-CC-PVTZ AUX)
    Blend: AUG-CC-PVTZ-JKFIT
	 Reference Energy          =    -609.5117326593782536 [Eh]
	 Singles Energy            =      -0.0000000000000000 [Eh]
	 Same-Spin Energy          =      -0.6816740445508755 [Eh]
	 Opposite-Spin Energy      =      -2.1328942191918006 [Eh]
	 Correlation Energy        =      -2.8145682637426761 [Eh]
	 Total Energy              =    -612.3263009231209253 [Eh]

	 ================> DF-SCS-MP2 Energies <==================
	-----------------------------------------------------------
	 SCS Same-Spin Scale       =       0.3333333333333333 [-]
	 SCS Opposite-Spin Scale   =       1.2000000000000000 [-]
	 SCS Same-Spin Energy      =      -0.2272246815169585 [Eh]
	 SCS Opposite-Spin Energy  =      -2.5594730630301608 [Eh]
	 SCS Correlation Energy    =      -2.7866977445471193 [Eh]
	 SCS Total Energy          =    -612.2984304039254084 [Eh]
	-----------------------------------------------------------

  Dipole Moment: [D]
     X:    -0.5398      Y:    -1.3566      Z:    -0.1245     Total:     1.4654

*** Psi4 exiting successfully. Buy a developer a beer!
