                               Psi4 1.4a3.dev225

  ==> Input File <==

--------------------------------------------------------------------------
#psi4
#
memory 32 gb

molecule  {
0 1
  N       -0.4697210     1.1445100    -0.2216410
  N        1.7892250     1.2839290     0.3484630
  C       -1.6240620     0.3182020    -0.0704420
  C        0.7850350     0.5381570    -0.1399480
  C       -0.5952140     2.4946130     0.3294290
  C        0.9870780    -0.7701080    -0.6316150
  C        3.3308620    -0.5454650    -0.0717700
  C       -1.7342750    -0.5947120     0.9884560
  C       -2.6794440     0.4585720    -0.9790390
  C        2.2640650    -1.3032160    -0.5830550
  C        3.0220600     0.7400440     0.3662130
  C       -2.8869950    -1.3690860     1.1220740
  C       -3.8211833    -0.2944075    -0.8314616
  C       -3.9434210    -1.2230030     0.2186750
  C        4.7300730    -1.0916580    -0.0030050
  H        0.1601300    -1.3363870    -1.0489480
  H       -0.4605330     2.5122530     1.4190480
  H       -1.5934070     2.8602250     0.0818210
  H        0.1591150     3.1409490    -0.1188450
  H       -0.9140430    -0.6937920     1.6961740
  H       -2.5719260     1.1603340    -1.8029750
  H        2.4420680    -2.3104690    -0.9583480
  H        3.8063450     1.3842980     0.7658560
  H       -2.9675220    -2.0774950     1.9434440
  H       -4.6536710    -0.1926670    -1.5394220
  H        5.0860610    -1.3967900    -0.9923270
  H        5.4219950    -0.3393960     0.3861000
  H        4.7833880    -1.9677830     0.6515600
  H       -4.8424050    -1.8242580     0.3291710
units angstrom
no_reorient  #important for SAPT in psi4, default
symmetry c1  #important for SAPT in psi4, default
}

set PROPERTIES_ORIGIN ["COM"]
properties('MP2/aug-cc-pvtz', properties = ['dipole'])
--------------------------------------------------------------------------

    Molecular point group: c1
  Charge       = 0
  Multiplicity = 1
  Basis Set: AUG-CC-PVTZ
    Blend: AUG-CC-PVTZ
  Basis Set: (AUG-CC-PVTZ AUX)
    Blend: AUG-CC-PVTZ-JKFIT

    Orbital Energies [Eh]
    ---------------------

    Doubly Occupied:

       1A    -15.572898     2A    -15.549017     3A    -11.308634
       4A    -11.275519     5A    -11.265568     6A    -11.250255
       7A    -11.245306     8A    -11.241948     9A    -11.241542
      10A    -11.238860    11A    -11.237372    12A    -11.234779
      13A    -11.230386    14A    -11.228919    15A    -11.225179
      16A     -1.290235    17A     -1.217546    18A     -1.143118
      19A     -1.089921    20A     -1.038017    21A     -1.020735
      22A     -1.007778    23A     -0.949409    24A     -0.907640
      25A     -0.847000    26A     -0.839314    27A     -0.828477
      28A     -0.785842    29A     -0.724327    30A     -0.685731
      31A     -0.674418    32A     -0.648561    33A     -0.638082
      34A     -0.622496    35A     -0.608502    36A     -0.593307
      37A     -0.588960    38A     -0.583919    39A     -0.576717
      40A     -0.561661    41A     -0.543317    42A     -0.534623
      43A     -0.523407    44A     -0.516062    45A     -0.508040
      46A     -0.499652    47A     -0.497219    48A     -0.417951
      49A     -0.410344    50A     -0.373679    51A     -0.343935
      52A     -0.339059    53A     -0.286230

  @DF-RHF Final Energy:  -609.53327188260528

   => Energetics <=

    Nuclear Repulsion Energy =            919.8869182237648374
    One-Electron Energy =               -2651.6175580206900122
    Two-Electron Energy =                1122.1973679143197842
    Total Energy =                       -609.5332718826052769
  Basis Set: (AUG-CC-PVTZ AUX)
    Blend: AUG-CC-PVTZ-RI
    Molecular point group: c1

    Geometry (in Angstrom), charge = 0, multiplicity = 1:

       Center              X                  Y                   Z               Mass
    ------------   -----------------  -----------------  -----------------  -----------------
         N           -0.451437853779     1.138395571139    -0.217444967020    14.003074004430
         N            1.807508146221     1.277814571139     0.352659032980    14.003074004430
         C           -1.605778853779     0.312087571139    -0.066245967020    12.000000000000
         C            0.803318146221     0.532042571139    -0.135751967020    12.000000000000
         C           -0.576930853779     2.488498571139     0.333625032980    12.000000000000
         C            1.005361146221    -0.776222428861    -0.627418967020    12.000000000000
         C            3.349145146221    -0.551579428861    -0.067573967020    12.000000000000
         C           -1.715991853779    -0.600826428861     0.992652032980    12.000000000000
         C           -2.661160853779     0.452457571139    -0.974842967020    12.000000000000
         C            2.282348146221    -1.309330428861    -0.578858967020    12.000000000000
         C            3.040343146221     0.733929571139     0.370409032980    12.000000000000
         C           -2.868711853779    -1.375200428861     1.126270032980    12.000000000000
         C           -3.802900153779    -0.300521928861    -0.827265567020    12.000000000000
         C           -3.925137853779    -1.229117428861     0.222871032980    12.000000000000
         C            4.748356146221    -1.097772428861     0.001191032980    12.000000000000
         H            0.178413146221    -1.342501428861    -1.044751967020     1.007825032230
         H           -0.442249853779     2.506138571139     1.423244032980     1.007825032230
         H           -1.575123853779     2.854110571139     0.086017032980     1.007825032230
         H            0.177398146221     3.134834571139    -0.114648967020     1.007825032230
         H           -0.895759853779    -0.699906428861     1.700370032980     1.007825032230
         H           -2.553642853779     1.154219571139    -1.798778967020     1.007825032230
         H            2.460351146221    -2.316583428861    -0.954151967020     1.007825032230
         H            3.824628146221     1.378183571139     0.770052032980     1.007825032230
         H           -2.949238853779    -2.083609428861     1.947640032980     1.007825032230
         H           -4.635387853779    -0.198781428861    -1.535225967020     1.007825032230
         H            5.104344146221    -1.402904428861    -0.988130967020     1.007825032230
         H            5.440278146221    -0.345510428861     0.390296032980     1.007825032230
         H            4.801671146221    -1.973897428861     0.655756032980     1.007825032230
         H           -4.824121853779    -1.830372428861     0.333367032980     1.007825032230

  Basis Set: AUG-CC-PVTZ
    Blend: AUG-CC-PVTZ
  Basis Set: (AUG-CC-PVTZ AUX)
    Blend: AUG-CC-PVTZ-JKFIT
	 Reference Energy          =    -609.5332718826052769 [Eh]
	 Singles Energy            =      -0.0000000000000000 [Eh]
	 Same-Spin Energy          =      -0.6811514508497967 [Eh]
	 Opposite-Spin Energy      =      -2.1307335065845705 [Eh]
	 Correlation Energy        =      -2.8118849574343674 [Eh]
	 Total Energy              =    -612.3451568400396354 [Eh]

	 ================> DF-SCS-MP2 Energies <==================
	-----------------------------------------------------------
	 SCS Same-Spin Scale       =       0.3333333333333333 [-]
	 SCS Opposite-Spin Scale   =       1.2000000000000000 [-]
	 SCS Same-Spin Energy      =      -0.2270504836165989 [Eh]
	 SCS Opposite-Spin Energy  =      -2.5568802079014845 [Eh]
	 SCS Correlation Energy    =      -2.7839306915180835 [Eh]
	 SCS Total Energy          =    -612.3172025741233711 [Eh]
	-----------------------------------------------------------

  Dipole Moment: [D]
     X:    -0.4914      Y:    -1.4646      Z:    -0.1623     Total:     1.5533

*** Psi4 exiting successfully. Buy a developer a beer!
