                               Psi4 1.4a3.dev225

  ==> Input File <==

--------------------------------------------------------------------------
#psi4
#
memory 32 gb

molecule  {
0 1
  N       -0.4697210     1.1445100    -0.2216410
  N        1.7892250     1.2839290     0.3484630
  C       -1.6240620     0.3182020    -0.0704420
  C        0.9346013     0.6492339    -0.0672030
  C       -0.5952140     2.4946130     0.3294290
  C        0.9870780    -0.7701080    -0.6316150
  C        3.3308620    -0.5454650    -0.0717700
  C       -1.7342750    -0.5947120     0.9884560
  C       -2.6794440     0.4585720    -0.9790390
  C        2.2640650    -1.3032160    -0.5830550
  C        3.0220600     0.7400440     0.3662130
  C       -2.8869950    -1.3690860     1.1220740
  C       -3.8377830    -0.3053550    -0.8293160
  C       -3.9434210    -1.2230030     0.2186750
  C        4.7300730    -1.0916580    -0.0030050
  H        0.1601300    -1.3363870    -1.0489480
  H       -0.4605330     2.5122530     1.4190480
  H       -1.5934070     2.8602250     0.0818210
  H        0.1591150     3.1409490    -0.1188450
  H       -0.9140430    -0.6937920     1.6961740
  H       -2.5719260     1.1603340    -1.8029750
  H        2.4420680    -2.3104690    -0.9583480
  H        3.8063450     1.3842980     0.7658560
  H       -2.9675220    -2.0774950     1.9434440
  H       -4.6536710    -0.1926670    -1.5394220
  H        5.0860610    -1.3967900    -0.9923270
  H        5.4219950    -0.3393960     0.3861000
  H        4.7833880    -1.9677830     0.6515600
  H       -4.8424050    -1.8242580     0.3291710
units angstrom
no_reorient  #important for SAPT in psi4, default
symmetry c1  #important for SAPT in psi4, default
}

set PROPERTIES_ORIGIN ["COM"]
properties('MP2/aug-cc-pvtz', properties = ['dipole'])
--------------------------------------------------------------------------

    Molecular point group: c1
  Charge       = 0
  Multiplicity = 1
  Basis Set: AUG-CC-PVTZ
    Blend: AUG-CC-PVTZ
  Basis Set: (AUG-CC-PVTZ AUX)
    Blend: AUG-CC-PVTZ-JKFIT

    Orbital Energies [Eh]
    ---------------------

    Doubly Occupied:

       1A    -15.557309     2A    -15.542595     3A    -11.303484
       4A    -11.271898     5A    -11.269109     6A    -11.248335
       7A    -11.244186     8A    -11.241944     9A    -11.238648
      10A    -11.238503    11A    -11.235755    12A    -11.233974
      13A    -11.232975    14A    -11.232407    15A    -11.230877
      16A     -1.335073    17A     -1.221951    18A     -1.135788
      19A     -1.108666    20A     -1.026793    21A     -1.014701
      22A     -1.003506    23A     -0.952560    24A     -0.905573
      25A     -0.850289    26A     -0.834089    27A     -0.823005
      28A     -0.784165    29A     -0.721935    30A     -0.691847
      31A     -0.677411    32A     -0.644703    33A     -0.641064
      34A     -0.621671    35A     -0.607439    36A     -0.596839
      37A     -0.586147    38A     -0.578789    39A     -0.573559
      40A     -0.566143    41A     -0.551067    42A     -0.548580
      43A     -0.527378    44A     -0.512862    45A     -0.504299
      46A     -0.496185    47A     -0.495272    48A     -0.416458
      49A     -0.402127    50A     -0.383594    51A     -0.339535
      52A     -0.332610    53A     -0.293354

  @DF-RHF Final Energy:  -609.47850075778763

   => Energetics <=

    Nuclear Repulsion Energy =            919.8303529142270918
    One-Electron Energy =               -2651.3596613013423848
    Two-Electron Energy =                1122.0508076293276645
    Total Energy =                       -609.4785007577875149
  Basis Set: (AUG-CC-PVTZ AUX)
    Blend: AUG-CC-PVTZ-RI
    Molecular point group: c1

    Geometry (in Angstrom), charge = 0, multiplicity = 1:

       Center              X                  Y                   Z               Mass
    ------------   -----------------  -----------------  -----------------  -----------------
         N           -0.459491729430     1.132330666594    -0.221981140615    14.003074004430
         N            1.799454270570     1.271749666594     0.348122859385    14.003074004430
         C           -1.613832729430     0.306022666594    -0.070782140615    12.000000000000
         C            0.944830570570     0.637054566594    -0.067543140615    12.000000000000
         C           -0.584984729430     2.482433666594     0.329088859385    12.000000000000
         C            0.997307270570    -0.782287333406    -0.631955140615    12.000000000000
         C            3.341091270570    -0.557644333406    -0.072110140615    12.000000000000
         C           -1.724045729430    -0.606891333406     0.988115859385    12.000000000000
         C           -2.669214729430     0.446392666594    -0.979379140615    12.000000000000
         C            2.274294270570    -1.315395333406    -0.583395140615    12.000000000000
         C            3.032289270570     0.727864666594     0.365872859385    12.000000000000
         C           -2.876765729430    -1.381265333406     1.121733859385    12.000000000000
         C           -3.827553729430    -0.317534333406    -0.829656140615    12.000000000000
         C           -3.933191729430    -1.235182333406     0.218334859385    12.000000000000
         C            4.740302270570    -1.103837333406    -0.003345140615    12.000000000000
         H            0.170359270570    -1.348566333406    -1.049288140615     1.007825032230
         H           -0.450303729430     2.500073666594     1.418707859385     1.007825032230
         H           -1.583177729430     2.848045666594     0.081480859385     1.007825032230
         H            0.169344270570     3.128769666594    -0.119185140615     1.007825032230
         H           -0.903813729430    -0.705971333406     1.695833859385     1.007825032230
         H           -2.561696729430     1.148154666594    -1.803315140615     1.007825032230
         H            2.452297270570    -2.322648333406    -0.958688140615     1.007825032230
         H            3.816574270570     1.372118666594     0.765515859385     1.007825032230
         H           -2.957292729430    -2.089674333406     1.943103859385     1.007825032230
         H           -4.643441729430    -0.204846333406    -1.539762140615     1.007825032230
         H            5.096290270570    -1.408969333406    -0.992667140615     1.007825032230
         H            5.432224270570    -0.351575333406     0.385759859385     1.007825032230
         H            4.793617270570    -1.979962333406     0.651219859385     1.007825032230
         H           -4.832175729430    -1.836437333406     0.328830859385     1.007825032230

  Basis Set: AUG-CC-PVTZ
    Blend: AUG-CC-PVTZ
  Basis Set: (AUG-CC-PVTZ AUX)
    Blend: AUG-CC-PVTZ-JKFIT
	 Reference Energy          =    -609.4785007577876286 [Eh]
	 Singles Energy            =      -0.0000000000000000 [Eh]
	 Same-Spin Energy          =      -0.6777780704828564 [Eh]
	 Opposite-Spin Energy      =      -2.1285665450953721 [Eh]
	 Correlation Energy        =      -2.8063446155782286 [Eh]
	 Total Energy              =    -612.2848453733658971 [Eh]

	 ================> DF-SCS-MP2 Energies <==================
	-----------------------------------------------------------
	 SCS Same-Spin Scale       =       0.3333333333333333 [-]
	 SCS Opposite-Spin Scale   =       1.2000000000000000 [-]
	 SCS Same-Spin Energy      =      -0.2259260234942855 [Eh]
	 SCS Opposite-Spin Energy  =      -2.5542798541144465 [Eh]
	 SCS Correlation Energy    =      -2.7802058776087319 [Eh]
	 SCS Total Energy          =    -612.2587066353963792 [Eh]
	-----------------------------------------------------------

  Dipole Moment: [D]
     X:     0.4752      Y:    -1.5661      Z:    -0.0860     Total:     1.6389

*** Psi4 exiting successfully. Buy a developer a beer!
