                               Psi4 1.4a3.dev225

  ==> Input File <==

--------------------------------------------------------------------------
#psi4
#
memory 32 gb

molecule  {
0 1
  N       -0.4697210     1.1445100    -0.2216410
  N        1.7892250     1.2839290     0.3484630
  C       -1.6240620     0.3182020    -0.0704420
  C        0.7850350     0.5381570    -0.1399480
  C       -0.5952140     2.4946130     0.3294290
  C        0.9870780    -0.7701080    -0.6316150
  C        3.3308620    -0.5454650    -0.0717700
  C       -1.7342750    -0.5947120     0.9884560
  C       -2.6794440     0.4585720    -0.9790390
  C        2.2640650    -1.3032160    -0.5830550
  C        3.0220600     0.7400440     0.3662130
  C       -2.8869950    -1.3690860     1.1220740
  C       -3.8377830    -0.3053550    -0.8293160
  C       -3.9434210    -1.2230030     0.2186750
  C        4.7300730    -1.0916580    -0.0030050
  H        0.1601300    -1.3363870    -1.0489480
  H       -0.4605330     2.5122530     1.4190480
  H       -1.5934070     2.8602250     0.0818210
  H        0.1591150     3.1409490    -0.1188450
  H       -0.9140430    -0.6937920     1.6961740
  H       -2.5719260     1.1603340    -1.8029750
  H        2.4420680    -2.3104690    -0.9583480
  H        3.8063450     1.3842980     0.7658560
  H       -2.9675220    -2.0774950     1.9434440
  H       -4.6536710    -0.1926670    -1.5394220
  H        5.0860610    -1.3967900    -0.9923270
  H        5.4219950    -0.3393960     0.3861000
  H        4.7882572    -2.0477988     0.7113409
  H       -4.8424050    -1.8242580     0.3291710
units angstrom
no_reorient  #important for SAPT in psi4, default
symmetry c1  #important for SAPT in psi4, default
}

set PROPERTIES_ORIGIN ["COM"]
properties('MP2/aug-cc-pvtz', properties = ['dipole'])
--------------------------------------------------------------------------

    Molecular point group: c1
  Charge       = 0
  Multiplicity = 1
  Basis Set: AUG-CC-PVTZ
    Blend: AUG-CC-PVTZ
  Basis Set: (AUG-CC-PVTZ AUX)
    Blend: AUG-CC-PVTZ-JKFIT

    Orbital Energies [Eh]
    ---------------------

    Doubly Occupied:

       1A    -15.573279     2A    -15.549446     3A    -11.309207
       4A    -11.275616     5A    -11.266370     6A    -11.250699
       7A    -11.245483     8A    -11.242231     9A    -11.242011
      10A    -11.238302    11A    -11.237935    12A    -11.237071
      13A    -11.236990    14A    -11.231182    15A    -11.229292
      16A     -1.290623    17A     -1.217867    18A     -1.142498
      19A     -1.089695    20A     -1.037690    21A     -1.018867
      22A     -1.008781    23A     -0.946256    24A     -0.905606
      25A     -0.847283    26A     -0.838673    27A     -0.828964
      28A     -0.785483    29A     -0.724856    30A     -0.685601
      31A     -0.674761    32A     -0.648526    33A     -0.637948
      34A     -0.623133    35A     -0.609922    36A     -0.593779
      37A     -0.588426    38A     -0.583406    39A     -0.568597
      40A     -0.561826    41A     -0.538680    42A     -0.534558
      43A     -0.519051    44A     -0.515084    45A     -0.508278
      46A     -0.500129    47A     -0.499073    48A     -0.417744
      49A     -0.410835    50A     -0.373870    51A     -0.342971
      52A     -0.339141    53A     -0.286698

  @DF-RHF Final Energy:  -609.52736884745286

   => Energetics <=

    Nuclear Repulsion Energy =            919.1910891028122705
    One-Electron Energy =               -2650.2163316709688843
    Two-Electron Energy =                1121.4978737207036374
    Total Energy =                       -609.5273688474528626
  Basis Set: (AUG-CC-PVTZ AUX)
    Blend: AUG-CC-PVTZ-RI
    Molecular point group: c1

    Geometry (in Angstrom), charge = 0, multiplicity = 1:

       Center              X                  Y                   Z               Mass
    ------------   -----------------  -----------------  -----------------  -----------------
         N           -0.450457168755     1.139465713121    -0.217879036042    14.003074004430
         N            1.808488831245     1.278884713121     0.352224963958    14.003074004430
         C           -1.604798168755     0.313157713121    -0.066680036042    12.000000000000
         C            0.804298831245     0.533112713121    -0.136186036042    12.000000000000
         C           -0.575950168755     2.489568713121     0.333190963958    12.000000000000
         C            1.006341831245    -0.775152286879    -0.627853036042    12.000000000000
         C            3.350125831245    -0.550509286879    -0.068008036042    12.000000000000
         C           -1.715011168755    -0.599756286879     0.992217963958    12.000000000000
         C           -2.660180168755     0.453527713121    -0.975277036042    12.000000000000
         C            2.283328831245    -1.308260286879    -0.579293036042    12.000000000000
         C            3.041323831245     0.734999713121     0.369974963958    12.000000000000
         C           -2.867731168755    -1.374130286879     1.125835963958    12.000000000000
         C           -3.818519168755    -0.310399286879    -0.825554036042    12.000000000000
         C           -3.924157168755    -1.228047286879     0.222436963958    12.000000000000
         C            4.749336831245    -1.096702286879     0.000756963958    12.000000000000
         H            0.179393831245    -1.341431286879    -1.045186036042     1.007825032230
         H           -0.441269168755     2.507208713121     1.422809963958     1.007825032230
         H           -1.574143168755     2.855180713121     0.085582963958     1.007825032230
         H            0.178378831245     3.135904713121    -0.115083036042     1.007825032230
         H           -0.894779168755    -0.698836286879     1.699935963958     1.007825032230
         H           -2.552662168755     1.155289713121    -1.799213036042     1.007825032230
         H            2.461331831245    -2.315513286879    -0.954586036042     1.007825032230
         H            3.825608831245     1.379253713121     0.769617963958     1.007825032230
         H           -2.948258168755    -2.082539286879     1.947205963958     1.007825032230
         H           -4.634407168755    -0.197711286879    -1.535660036042     1.007825032230
         H            5.105324831245    -1.401834286879    -0.988565036042     1.007825032230
         H            5.441258831245    -0.344440286879     0.389861963958     1.007825032230
         H            4.807521031245    -2.052843086879     0.715102863958     1.007825032230
         H           -4.823141168755    -1.829302286879     0.332932963958     1.007825032230

  Basis Set: AUG-CC-PVTZ
    Blend: AUG-CC-PVTZ
  Basis Set: (AUG-CC-PVTZ AUX)
    Blend: AUG-CC-PVTZ-JKFIT
	 Reference Energy          =    -609.5273688474528626 [Eh]
	 Singles Energy            =      -0.0000000000000000 [Eh]
	 Same-Spin Energy          =      -0.6810910509827580 [Eh]
	 Opposite-Spin Energy      =      -2.1313808248370427 [Eh]
	 Correlation Energy        =      -2.8124718758198006 [Eh]
	 Total Energy              =    -612.3398407232726868 [Eh]

	 ================> DF-SCS-MP2 Energies <==================
	-----------------------------------------------------------
	 SCS Same-Spin Scale       =       0.3333333333333333 [-]
	 SCS Opposite-Spin Scale   =       1.2000000000000000 [-]
	 SCS Same-Spin Energy      =      -0.2270303503275860 [Eh]
	 SCS Opposite-Spin Energy  =      -2.5576569898044510 [Eh]
	 SCS Correlation Energy    =      -2.7846873401320371 [Eh]
	 SCS Total Energy          =    -612.3120561875848580 [Eh]
	-----------------------------------------------------------

  Dipole Moment: [D]
     X:    -0.5470      Y:    -1.4094      Z:    -0.1948     Total:     1.5243

*** Psi4 exiting successfully. Buy a developer a beer!
