                               Psi4 1.4a3.dev225

  ==> Input File <==

--------------------------------------------------------------------------
#psi4
#
memory 32 gb

molecule  {
0 1
  N       -0.4697210     1.1445100    -0.2216410
  N        1.7892250     1.2839290     0.3484630
  C       -1.6240620     0.3182020    -0.0704420
  C        0.7850350     0.5381570    -0.1399480
  C       -0.5952140     2.4946130     0.3294290
  C        0.9842165    -0.7515791    -0.6246515
  C        3.3308620    -0.5454650    -0.0717700
  C       -1.7342750    -0.5947120     0.9884560
  C       -2.6794440     0.4585720    -0.9790390
  C        2.2640650    -1.3032160    -0.5830550
  C        3.0220600     0.7400440     0.3662130
  C       -2.8869950    -1.3690860     1.1220740
  C       -3.8377830    -0.3053550    -0.8293160
  C       -3.9434210    -1.2230030     0.2186750
  C        4.7300730    -1.0916580    -0.0030050
  H        0.1601300    -1.3363870    -1.0489480
  H       -0.4605330     2.5122530     1.4190480
  H       -1.5934070     2.8602250     0.0818210
  H        0.1591150     3.1409490    -0.1188450
  H       -0.9140430    -0.6937920     1.6961740
  H       -2.5719260     1.1603340    -1.8029750
  H        2.4420680    -2.3104690    -0.9583480
  H        3.8063450     1.3842980     0.7658560
  H       -2.9675220    -2.0774950     1.9434440
  H       -4.6536710    -0.1926670    -1.5394220
  H        5.0860610    -1.3967900    -0.9923270
  H        5.4219950    -0.3393960     0.3861000
  H        4.7833880    -1.9677830     0.6515600
  H       -4.8424050    -1.8242580     0.3291710
units angstrom
no_reorient  #important for SAPT in psi4, default
symmetry c1  #important for SAPT in psi4, default
}

set PROPERTIES_ORIGIN ["COM"]
properties('MP2/aug-cc-pvtz', properties = ['dipole'])
--------------------------------------------------------------------------

    Molecular point group: c1
  Charge       = 0
  Multiplicity = 1
  Basis Set: AUG-CC-PVTZ
    Blend: AUG-CC-PVTZ
  Basis Set: (AUG-CC-PVTZ AUX)
    Blend: AUG-CC-PVTZ-JKFIT

    Orbital Energies [Eh]
    ---------------------

    Doubly Occupied:

       1A    -15.571626     2A    -15.549528     3A    -11.305885
       4A    -11.274850     5A    -11.266262     6A    -11.251820
       7A    -11.244727     8A    -11.241637     9A    -11.241408
      10A    -11.237653    11A    -11.237221    12A    -11.236333
      13A    -11.231155    14A    -11.228311    15A    -11.225617
      16A     -1.290497    17A     -1.217564    18A     -1.141843
      19A     -1.089518    20A     -1.039190    21A     -1.018257
      22A     -1.008399    23A     -0.949522    24A     -0.907446
      25A     -0.848516    26A     -0.838626    27A     -0.828922
      28A     -0.785609    29A     -0.724561    30A     -0.685179
      31A     -0.675035    32A     -0.647920    33A     -0.637044
      34A     -0.620603    35A     -0.610194    36A     -0.593754
      37A     -0.588378    38A     -0.583771    39A     -0.576979
      40A     -0.561634    41A     -0.543928    42A     -0.534753
      43A     -0.524226    44A     -0.513591    45A     -0.506878
      46A     -0.499563    47A     -0.497833    48A     -0.418056
      49A     -0.411179    50A     -0.372207    51A     -0.342570
      52A     -0.338803    53A     -0.287465

  @DF-RHF Final Energy:  -609.53306879598597

   => Energetics <=

    Nuclear Repulsion Energy =            919.9212684199426349
    One-Electron Energy =               -2651.7005813931023113
    Two-Electron Energy =                1122.2462441771738213
    Total Energy =                       -609.5330687959858551
  Basis Set: (AUG-CC-PVTZ AUX)
    Blend: AUG-CC-PVTZ-RI
    Molecular point group: c1

    Geometry (in Angstrom), charge = 0, multiplicity = 1:

       Center              X                  Y                   Z               Mass
    ------------   -----------------  -----------------  -----------------  -----------------
         N           -0.450259075914     1.137936360684    -0.217996711283    14.003074004430
         N            1.808686924086     1.277355360684     0.352107288717    14.003074004430
         C           -1.604600075914     0.311628360684    -0.066797711283    12.000000000000
         C            0.804496924086     0.531583360684    -0.136303711283    12.000000000000
         C           -0.575752075914     2.488039360684     0.333073288717    12.000000000000
         C            1.003678424086    -0.758152739316    -0.621007211283    12.000000000000
         C            3.350323924086    -0.552038639316    -0.068125711283    12.000000000000
         C           -1.714813075914    -0.601285639316     0.992100288717    12.000000000000
         C           -2.659982075914     0.451998360684    -0.975394711283    12.000000000000
         C            2.283526924086    -1.309789639316    -0.579410711283    12.000000000000
         C            3.041521924086     0.733470360684     0.369857288717    12.000000000000
         C           -2.867533075914    -1.375659639316     1.125718288717    12.000000000000
         C           -3.818321075914    -0.311928639316    -0.825671711283    12.000000000000
         C           -3.923959075914    -1.229576639316     0.222319288717    12.000000000000
         C            4.749534924086    -1.098231639316     0.000639288717    12.000000000000
         H            0.179591924086    -1.342960639316    -1.045303711283     1.007825032230
         H           -0.441071075914     2.505679360684     1.422692288717     1.007825032230
         H           -1.573945075914     2.853651360684     0.085465288717     1.007825032230
         H            0.178576924086     3.134375360684    -0.115200711283     1.007825032230
         H           -0.894581075914    -0.700365639316     1.699818288717     1.007825032230
         H           -2.552464075914     1.153760360684    -1.799330711283     1.007825032230
         H            2.461529924086    -2.317042639316    -0.954703711283     1.007825032230
         H            3.825806924086     1.377724360684     0.769500288717     1.007825032230
         H           -2.948060075914    -2.084068639316     1.947088288717     1.007825032230
         H           -4.634209075914    -0.199240639316    -1.535777711283     1.007825032230
         H            5.105522924086    -1.403363639316    -0.988682711283     1.007825032230
         H            5.441456924086    -0.345969639316     0.389744288717     1.007825032230
         H            4.802849924086    -1.974356639316     0.655204288717     1.007825032230
         H           -4.822943075914    -1.830831639316     0.332815288717     1.007825032230

  Basis Set: AUG-CC-PVTZ
    Blend: AUG-CC-PVTZ
  Basis Set: (AUG-CC-PVTZ AUX)
    Blend: AUG-CC-PVTZ-JKFIT
	 Reference Energy          =    -609.5330687959859688 [Eh]
	 Singles Energy            =      -0.0000000000000000 [Eh]
	 Same-Spin Energy          =      -0.6813130627403221 [Eh]
	 Opposite-Spin Energy      =      -2.1308602017864193 [Eh]
	 Correlation Energy        =      -2.8121732645267414 [Eh]
	 Total Energy              =    -612.3452420605127600 [Eh]

	 ================> DF-SCS-MP2 Energies <==================
	-----------------------------------------------------------
	 SCS Same-Spin Scale       =       0.3333333333333333 [-]
	 SCS Opposite-Spin Scale   =       1.2000000000000000 [-]
	 SCS Same-Spin Energy      =      -0.2271043542467740 [Eh]
	 SCS Opposite-Spin Energy  =      -2.5570322421437033 [Eh]
	 SCS Correlation Energy    =      -2.7841365963904772 [Eh]
	 SCS Total Energy          =    -612.3172053923764224 [Eh]
	-----------------------------------------------------------

  Dipole Moment: [D]
     X:    -0.4315      Y:    -1.4793      Z:    -0.1673     Total:     1.5500

*** Psi4 exiting successfully. Buy a developer a beer!
