                               Psi4 1.4a3.dev225

  ==> Input File <==

--------------------------------------------------------------------------
#psi4
#
memory 32 gb

molecule  {
0 1
  N       -0.4697210     1.1445100    -0.2216410
  N        1.7892250     1.2839290     0.3484630
  C       -1.6240620     0.3182020    -0.0704420
  C        0.7850350     0.5381570    -0.1399480
  C       -0.5952140     2.4946130     0.3294290
  C        0.9870780    -0.7701080    -0.6316150
  C        3.3480142    -0.5081629    -0.1044633
  C       -1.7342750    -0.5947120     0.9884560
  C       -2.6794440     0.4585720    -0.9790390
  C        2.2640650    -1.3032160    -0.5830550
  C        3.0220600     0.7400440     0.3662130
  C       -2.8869950    -1.3690860     1.1220740
  C       -3.8377830    -0.3053550    -0.8293160
  C       -3.9434210    -1.2230030     0.2186750
  C        4.7300730    -1.0916580    -0.0030050
  H        0.1601300    -1.3363870    -1.0489480
  H       -0.4605330     2.5122530     1.4190480
  H       -1.5934070     2.8602250     0.0818210
  H        0.1591150     3.1409490    -0.1188450
  H       -0.9140430    -0.6937920     1.6961740
  H       -2.5719260     1.1603340    -1.8029750
  H        2.4420680    -2.3104690    -0.9583480
  H        3.8063450     1.3842980     0.7658560
  H       -2.9675220    -2.0774950     1.9434440
  H       -4.6536710    -0.1926670    -1.5394220
  H        5.0860610    -1.3967900    -0.9923270
  H        5.4219950    -0.3393960     0.3861000
  H        4.7833880    -1.9677830     0.6515600
  H       -4.8424050    -1.8242580     0.3291710
units angstrom
no_reorient  #important for SAPT in psi4, default
symmetry c1  #important for SAPT in psi4, default
}

set PROPERTIES_ORIGIN ["COM"]
properties('MP2/aug-cc-pvtz', properties = ['dipole'])
--------------------------------------------------------------------------

    Molecular point group: c1
  Charge       = 0
  Multiplicity = 1
  Basis Set: AUG-CC-PVTZ
    Blend: AUG-CC-PVTZ
  Basis Set: (AUG-CC-PVTZ AUX)
    Blend: AUG-CC-PVTZ-JKFIT

    Orbital Energies [Eh]
    ---------------------

    Doubly Occupied:

       1A    -15.573560     2A    -15.547567     3A    -11.309438
       4A    -11.275750     5A    -11.261963     6A    -11.253014
       7A    -11.245368     8A    -11.242378     9A    -11.242149
      10A    -11.238451    11A    -11.238094    12A    -11.237210
      13A    -11.229896    14A    -11.229852    15A    -11.224949
      16A     -1.290380    17A     -1.217456    18A     -1.142622
      19A     -1.087586    20A     -1.039468    21A     -1.019064
      22A     -1.009115    23A     -0.949160    24A     -0.908965
      25A     -0.845139    26A     -0.839576    27A     -0.830166
      28A     -0.785975    29A     -0.724764    30A     -0.685656
      31A     -0.673926    32A     -0.648578    33A     -0.638332
      34A     -0.622657    35A     -0.609920    36A     -0.594060
      37A     -0.588551    38A     -0.583841    39A     -0.576754
      40A     -0.562809    41A     -0.544417    42A     -0.534526
      43A     -0.522998    44A     -0.513101    45A     -0.505707
      46A     -0.500221    47A     -0.497663    48A     -0.419076
      49A     -0.410151    50A     -0.372077    51A     -0.343068
      52A     -0.339578    53A     -0.288318

  @DF-RHF Final Energy:  -609.53260639048983

   => Energetics <=

    Nuclear Repulsion Energy =            919.5309999744276865
    One-Electron Energy =               -2650.8970897697736291
    Two-Electron Energy =                1121.8334834048562243
    Total Energy =                       -609.5326063904897183
  Basis Set: (AUG-CC-PVTZ AUX)
    Blend: AUG-CC-PVTZ-RI
    Molecular point group: c1

    Geometry (in Angstrom), charge = 0, multiplicity = 1:

       Center              X                  Y                   Z               Mass
    ------------   -----------------  -----------------  -----------------  -----------------
         N           -0.451471319072     1.136799255438    -0.215594672456    14.003074004430
         N            1.807474680928     1.276218255438     0.354509327544    14.003074004430
         C           -1.605812319072     0.310491255438    -0.064395672456    12.000000000000
         C            0.803284680928     0.530446255438    -0.133901672456    12.000000000000
         C           -0.576964319072     2.486902255438     0.335475327544    12.000000000000
         C            1.005327680928    -0.777818744562    -0.625568672456    12.000000000000
         C            3.366263880928    -0.515873644562    -0.098416972456    12.000000000000
         C           -1.716025319072    -0.602422744562     0.994502327544    12.000000000000
         C           -2.661194319072     0.450861255438    -0.972992672456    12.000000000000
         C            2.282314680928    -1.310926744562    -0.577008672456    12.000000000000
         C            3.040309680928     0.732333255438     0.372259327544    12.000000000000
         C           -2.868745319072    -1.376796744562     1.128120327544    12.000000000000
         C           -3.819533319072    -0.313065744562    -0.823269672456    12.000000000000
         C           -3.925171319072    -1.230713744562     0.224721327544    12.000000000000
         C            4.748322680928    -1.099368744562     0.003041327544    12.000000000000
         H            0.178379680928    -1.344097744562    -1.042901672456     1.007825032230
         H           -0.442283319072     2.504542255438     1.425094327544     1.007825032230
         H           -1.575157319072     2.852514255438     0.087867327544     1.007825032230
         H            0.177364680928     3.133238255438    -0.112798672456     1.007825032230
         H           -0.895793319072    -0.701502744562     1.702220327544     1.007825032230
         H           -2.553676319072     1.152623255438    -1.796928672456     1.007825032230
         H            2.460317680928    -2.318179744562    -0.952301672456     1.007825032230
         H            3.824594680928     1.376587255438     0.771902327544     1.007825032230
         H           -2.949272319072    -2.085205744562     1.949490327544     1.007825032230
         H           -4.635421319072    -0.200377744562    -1.533375672456     1.007825032230
         H            5.104310680928    -1.404500744562    -0.986280672456     1.007825032230
         H            5.440244680928    -0.347106744562     0.392146327544     1.007825032230
         H            4.801637680928    -1.975493744562     0.657606327544     1.007825032230
         H           -4.824155319072    -1.831968744562     0.335217327544     1.007825032230

  Basis Set: AUG-CC-PVTZ
    Blend: AUG-CC-PVTZ
  Basis Set: (AUG-CC-PVTZ AUX)
    Blend: AUG-CC-PVTZ-JKFIT
	 Reference Energy          =    -609.5326063904898319 [Eh]
	 Singles Energy            =      -0.0000000000000000 [Eh]
	 Same-Spin Energy          =      -0.6808971389498499 [Eh]
	 Opposite-Spin Energy      =      -2.1306543813045069 [Eh]
	 Correlation Energy        =      -2.8115515202543566 [Eh]
	 Total Energy              =    -612.3441579107442294 [Eh]

	 ================> DF-SCS-MP2 Energies <==================
	-----------------------------------------------------------
	 SCS Same-Spin Scale       =       0.3333333333333333 [-]
	 SCS Opposite-Spin Scale   =       1.2000000000000000 [-]
	 SCS Same-Spin Energy      =      -0.2269657129832833 [Eh]
	 SCS Opposite-Spin Energy  =      -2.5567852575654082 [Eh]
	 SCS Correlation Energy    =      -2.7837509705486916 [Eh]
	 SCS Total Energy          =    -612.3163573610385129 [Eh]
	-----------------------------------------------------------

  Dipole Moment: [D]
     X:    -0.5516      Y:    -1.4855      Z:    -0.1643     Total:     1.5931

*** Psi4 exiting successfully. Buy a developer a beer!
