                               Psi4 1.4a3.dev225

  ==> Input File <==

--------------------------------------------------------------------------
#psi4
#
memory 32 gb

molecule  {
0 1
  N       -0.4697210     1.1445100    -0.2216410
  N        1.7892250     1.2839290     0.3484630
  C       -1.6240620     0.3182020    -0.0704420
  C        0.7850350     0.5381570    -0.1399480
  C       -0.5952140     2.4946130     0.3294290
  C        0.9870780    -0.7701080    -0.6316150
  C        3.3308620    -0.5454650    -0.0717700
  C       -1.7342750    -0.5947120     0.9884560
  C       -2.6794440     0.4585720    -0.9790390
  C        2.2640650    -1.3032160    -0.5830550
  C        3.0220600     0.7400440     0.3662130
  C       -2.8869950    -1.3690860     1.1220740
  C       -3.8377830    -0.3053550    -0.8293160
  C       -3.7922524    -1.2439067     0.3479463
  C        4.7300730    -1.0916580    -0.0030050
  H        0.1601300    -1.3363870    -1.0489480
  H       -0.4605330     2.5122530     1.4190480
  H       -1.5934070     2.8602250     0.0818210
  H        0.1591150     3.1409490    -0.1188450
  H       -0.9140430    -0.6937920     1.6961740
  H       -2.5719260     1.1603340    -1.8029750
  H        2.4420680    -2.3104690    -0.9583480
  H        3.8063450     1.3842980     0.7658560
  H       -2.9675220    -2.0774950     1.9434440
  H       -4.6536710    -0.1926670    -1.5394220
  H        5.0860610    -1.3967900    -0.9923270
  H        5.4219950    -0.3393960     0.3861000
  H        4.7833880    -1.9677830     0.6515600
  H       -4.8424050    -1.8242580     0.3291710
units angstrom
no_reorient  #important for SAPT in psi4, default
symmetry c1  #important for SAPT in psi4, default
}

set PROPERTIES_ORIGIN ["COM"]
properties('MP2/aug-cc-pvtz', properties = ['dipole'])
--------------------------------------------------------------------------

    Molecular point group: c1
  Charge       = 0
  Multiplicity = 1
  Basis Set: AUG-CC-PVTZ
    Blend: AUG-CC-PVTZ
  Basis Set: (AUG-CC-PVTZ AUX)
    Blend: AUG-CC-PVTZ-JKFIT

    Orbital Energies [Eh]
    ---------------------

    Doubly Occupied:

       1A    -15.572667     2A    -15.548571     3A    -11.308401
       4A    -11.273932     5A    -11.265124     6A    -11.251277
       7A    -11.249828     8A    -11.245294     9A    -11.238120
      10A    -11.237630    11A    -11.233106    12A    -11.229925
      13A    -11.228518    14A    -11.224909    15A    -11.213814
      16A     -1.289868    17A     -1.217846    18A     -1.160652
      19A     -1.090087    20A     -1.046488    21A     -1.030757
      22A     -0.999613    23A     -0.949041    24A     -0.907001
      25A     -0.852179    26A     -0.846422    27A     -0.816462
      28A     -0.782782    29A     -0.726733    30A     -0.679772
      31A     -0.672222    32A     -0.653299    33A     -0.635754
      34A     -0.624848    35A     -0.610711    36A     -0.603723
      37A     -0.588319    38A     -0.580758    39A     -0.576511
      40A     -0.558771    41A     -0.542500    42A     -0.534459
      43A     -0.524002    44A     -0.519188    45A     -0.515128
      46A     -0.506017    47A     -0.459273    48A     -0.419578
      49A     -0.409976    50A     -0.373584    51A     -0.366192
      52A     -0.330466    53A     -0.285077

  @DF-RHF Final Energy:  -609.47161357168773

   => Energetics <=

    Nuclear Repulsion Energy =            922.2368259782310815
    One-Electron Energy =               -2656.2025267401077144
    Two-Electron Energy =                1124.4940871901887931
    Total Energy =                       -609.4716135716878398
  Basis Set: (AUG-CC-PVTZ AUX)
    Blend: AUG-CC-PVTZ-RI
    Molecular point group: c1

    Geometry (in Angstrom), charge = 0, multiplicity = 1:

       Center              X                  Y                   Z               Mass
    ------------   -----------------  -----------------  -----------------  -----------------
         N           -0.459588781810     1.140324819568    -0.225404976309    14.003074004430
         N            1.799357218190     1.279743819568     0.344699023691    14.003074004430
         C           -1.613929781810     0.314016819568    -0.074205976309    12.000000000000
         C            0.795167218190     0.533971819568    -0.143711976309    12.000000000000
         C           -0.585081781810     2.490427819568     0.325665023691    12.000000000000
         C            0.997210218190    -0.774293180432    -0.635378976309    12.000000000000
         C            3.340994218190    -0.549650180432    -0.075533976309    12.000000000000
         C           -1.724142781810    -0.598897180432     0.984692023691    12.000000000000
         C           -2.669311781810     0.454386819568    -0.982802976309    12.000000000000
         C            2.274197218190    -1.307401180432    -0.586818976309    12.000000000000
         C            3.032192218190     0.735858819568     0.362449023691    12.000000000000
         C           -2.876862781810    -1.373271180432     1.118310023691    12.000000000000
         C           -3.827650781810    -0.309540180432    -0.833079976309    12.000000000000
         C           -3.782120181810    -1.248091880432     0.344182323691    12.000000000000
         C            4.740205218190    -1.095843180432    -0.006768976309    12.000000000000
         H            0.170262218190    -1.340572180432    -1.052711976309     1.007825032230
         H           -0.450400781810     2.508067819568     1.415284023691     1.007825032230
         H           -1.583274781810     2.856039819568     0.078057023691     1.007825032230
         H            0.169247218190     3.136763819568    -0.122608976309     1.007825032230
         H           -0.903910781810    -0.697977180432     1.692410023691     1.007825032230
         H           -2.561793781810     1.156148819568    -1.806738976309     1.007825032230
         H            2.452200218190    -2.314654180432    -0.962111976309     1.007825032230
         H            3.816477218190     1.380112819568     0.762092023691     1.007825032230
         H           -2.957389781810    -2.081680180432     1.939680023691     1.007825032230
         H           -4.643538781810    -0.196852180432    -1.543185976309     1.007825032230
         H            5.096193218190    -1.400975180432    -0.996090976309     1.007825032230
         H            5.432127218190    -0.343581180432     0.382336023691     1.007825032230
         H            4.793520218190    -1.971968180432     0.647796023691     1.007825032230
         H           -4.832272781810    -1.828443180432     0.325407023691     1.007825032230

  Basis Set: AUG-CC-PVTZ
    Blend: AUG-CC-PVTZ
  Basis Set: (AUG-CC-PVTZ AUX)
    Blend: AUG-CC-PVTZ-JKFIT
	 Reference Energy          =    -609.4716135716877261 [Eh]
	 Singles Energy            =      -0.0000000000000000 [Eh]
	 Same-Spin Energy          =      -0.6806956004524914 [Eh]
	 Opposite-Spin Energy      =      -2.1323095422668796 [Eh]
	 Correlation Energy        =      -2.8130051427193710 [Eh]
	 Total Energy              =    -612.2846187144070882 [Eh]

	 ================> DF-SCS-MP2 Energies <==================
	-----------------------------------------------------------
	 SCS Same-Spin Scale       =       0.3333333333333333 [-]
	 SCS Opposite-Spin Scale   =       1.2000000000000000 [-]
	 SCS Same-Spin Energy      =      -0.2268985334841638 [Eh]
	 SCS Opposite-Spin Energy  =      -2.5587714507202555 [Eh]
	 SCS Correlation Energy    =      -2.7856699842044192 [Eh]
	 SCS Total Energy          =    -612.2572835558921724 [Eh]
	-----------------------------------------------------------

  Dipole Moment: [D]
     X:    -0.4912      Y:    -1.4115      Z:    -0.2051     Total:     1.5085

*** Psi4 exiting successfully. Buy a developer a beer!
