                               Psi4 1.4a3.dev225

  ==> Input File <==

--------------------------------------------------------------------------
#psi4
#
memory 32 gb

molecule  {
0 1
  N       -0.4697210     1.1445100    -0.2216410
  N        1.7892250     1.2839290     0.3484630
  C       -1.6240620     0.3182020    -0.0704420
  C        0.7850350     0.5381570    -0.1399480
  C       -0.5952140     2.4946130     0.3294290
  C        0.9870780    -0.7701080    -0.6316150
  C        3.3308620    -0.5454650    -0.0717700
  C       -1.7342750    -0.5947120     0.9884560
  C       -2.6794440     0.4585720    -0.9790390
  C        2.2640650    -1.3032160    -0.5830550
  C        3.0220600     0.7400440     0.3662130
  C       -2.8869950    -1.3690860     1.1220740
  C       -3.8377830    -0.3053550    -0.8293160
  C       -4.0139197    -1.3248758     0.2964881
  C        4.7300730    -1.0916580    -0.0030050
  H        0.1601300    -1.3363870    -1.0489480
  H       -0.4605330     2.5122530     1.4190480
  H       -1.5934070     2.8602250     0.0818210
  H        0.1591150     3.1409490    -0.1188450
  H       -0.9140430    -0.6937920     1.6961740
  H       -2.5719260     1.1603340    -1.8029750
  H        2.4420680    -2.3104690    -0.9583480
  H        3.8063450     1.3842980     0.7658560
  H       -2.9675220    -2.0774950     1.9434440
  H       -4.6536710    -0.1926670    -1.5394220
  H        5.0860610    -1.3967900    -0.9923270
  H        5.4219950    -0.3393960     0.3861000
  H        4.7833880    -1.9677830     0.6515600
  H       -4.8424050    -1.8242580     0.3291710
units angstrom
no_reorient  #important for SAPT in psi4, default
symmetry c1  #important for SAPT in psi4, default
}

set PROPERTIES_ORIGIN ["COM"]
properties('MP2/aug-cc-pvtz', properties = ['dipole'])
--------------------------------------------------------------------------

    Molecular point group: c1
  Charge       = 0
  Multiplicity = 1
  Basis Set: AUG-CC-PVTZ
    Blend: AUG-CC-PVTZ
  Basis Set: (AUG-CC-PVTZ AUX)
    Blend: AUG-CC-PVTZ-JKFIT

    Orbital Energies [Eh]
    ---------------------

    Doubly Occupied:

       1A    -15.574165     2A    -15.549600     3A    -11.309264
       4A    -11.279052     5A    -11.265894     6A    -11.255386
       7A    -11.250545     8A    -11.246316     9A    -11.244801
      10A    -11.241994    11A    -11.237577    12A    -11.237368
      13A    -11.230821    14A    -11.229374    15A    -11.225430
      16A     -1.291143    17A     -1.217905    18A     -1.132101
      19A     -1.089998    20A     -1.038653    21A     -1.017508
      22A     -1.004127    23A     -0.949883    24A     -0.910173
      25A     -0.847443    26A     -0.845215    27A     -0.823160
      28A     -0.789229    29A     -0.722773    30A     -0.702742
      31A     -0.675767    32A     -0.651539    33A     -0.637539
      34A     -0.621591    35A     -0.607234    36A     -0.592029
      37A     -0.588000    38A     -0.581233    39A     -0.576952
      40A     -0.567584    41A     -0.545544    42A     -0.539808
      43A     -0.525006    44A     -0.523575    45A     -0.507322
      46A     -0.494388    47A     -0.478547    48A     -0.417643
      49A     -0.410815    50A     -0.373983    51A     -0.344423
      52A     -0.332455    53A     -0.285808

  @DF-RHF Final Energy:  -609.50454276204857

   => Energetics <=

    Nuclear Repulsion Energy =            917.1301754221173042
    One-Electron Energy =               -2645.9925929154373989
    Two-Electron Energy =                1119.3578747312715223
    Total Energy =                       -609.5045427620486862
  Basis Set: (AUG-CC-PVTZ AUX)
    Blend: AUG-CC-PVTZ-RI
    Molecular point group: c1

    Geometry (in Angstrom), charge = 0, multiplicity = 1:

       Center              X                  Y                   Z               Mass
    ------------   -----------------  -----------------  -----------------  -----------------
         N           -0.446162245595     1.145229171961    -0.222288118812    14.003074004430
         N            1.812783754405     1.284648171961     0.347815881188    14.003074004430
         C           -1.600503245595     0.318921171961    -0.071089118812    12.000000000000
         C            0.808593754405     0.538876171961    -0.140595118812    12.000000000000
         C           -0.571655245595     2.495332171961     0.328781881188    12.000000000000
         C            1.010636754405    -0.769388828039    -0.632262118812    12.000000000000
         C            3.354420754405    -0.544745828039    -0.072417118812    12.000000000000
         C           -1.710716245595    -0.593992828039     0.987808881188    12.000000000000
         C           -2.655885245595     0.459291171961    -0.979686118812    12.000000000000
         C            2.287623754405    -1.302496828039    -0.583702118812    12.000000000000
         C            3.045618754405     0.740763171961     0.365565881188    12.000000000000
         C           -2.863436245595    -1.368366828039     1.121426881188    12.000000000000
         C           -3.814224245595    -0.304635828039    -0.829963118812    12.000000000000
         C           -3.990360945595    -1.324156628039     0.295840981188    12.000000000000
         C            4.753631754405    -1.090938828039    -0.003652118812    12.000000000000
         H            0.183688754405    -1.335667828039    -1.049595118812     1.007825032230
         H           -0.436974245595     2.512972171961     1.418400881188     1.007825032230
         H           -1.569848245595     2.860944171961     0.081173881188     1.007825032230
         H            0.182673754405     3.141668171961    -0.119492118812     1.007825032230
         H           -0.890484245595    -0.693072828039     1.695526881188     1.007825032230
         H           -2.548367245595     1.161053171961    -1.803622118812     1.007825032230
         H            2.465626754405    -2.309749828039    -0.958995118812     1.007825032230
         H            3.829903754405     1.385017171961     0.765208881188     1.007825032230
         H           -2.943963245595    -2.076775828039     1.942796881188     1.007825032230
         H           -4.630112245595    -0.191947828039    -1.540069118812     1.007825032230
         H            5.109619754405    -1.396070828039    -0.992974118812     1.007825032230
         H            5.445553754405    -0.338676828039     0.385452881188     1.007825032230
         H            4.806946754405    -1.967063828039     0.650912881188     1.007825032230
         H           -4.818846245595    -1.823538828039     0.328523881188     1.007825032230

  Basis Set: AUG-CC-PVTZ
    Blend: AUG-CC-PVTZ
  Basis Set: (AUG-CC-PVTZ AUX)
    Blend: AUG-CC-PVTZ-JKFIT
	 Reference Energy          =    -609.5045427620485725 [Eh]
	 Singles Energy            =      -0.0000000000000000 [Eh]
	 Same-Spin Energy          =      -0.6812661919211968 [Eh]
	 Opposite-Spin Energy      =      -2.1328574972091912 [Eh]
	 Correlation Energy        =      -2.8141236891303878 [Eh]
	 Total Energy              =    -612.3186664511789559 [Eh]

	 ================> DF-SCS-MP2 Energies <==================
	-----------------------------------------------------------
	 SCS Same-Spin Scale       =       0.3333333333333333 [-]
	 SCS Opposite-Spin Scale   =       1.2000000000000000 [-]
	 SCS Same-Spin Energy      =      -0.2270887306403989 [Eh]
	 SCS Opposite-Spin Energy  =      -2.5594289966510293 [Eh]
	 SCS Correlation Energy    =      -2.7865177272914283 [Eh]
	 SCS Total Energy          =    -612.2910604893399977 [Eh]
	-----------------------------------------------------------

  Dipole Moment: [D]
     X:    -0.4551      Y:    -1.4477      Z:    -0.1818     Total:     1.5284

*** Psi4 exiting successfully. Buy a developer a beer!
