                               Psi4 1.4a3.dev225

  ==> Input File <==

--------------------------------------------------------------------------
#psi4
#
memory 32 gb

molecule  {
0 1
  N       -0.4697210     1.1445100    -0.2216410
  N        1.7892250     1.2839290     0.3484630
  C       -1.6240620     0.3182020    -0.0704420
  C        0.7850350     0.5381570    -0.1399480
  C       -0.5952140     2.4946130     0.3294290
  C        0.9870780    -0.7701080    -0.6316150
  C        3.3308620    -0.5454650    -0.0717700
  C       -1.7342750    -0.5947120     0.9884560
  C       -2.6794440     0.4585720    -0.9790390
  C        2.2640650    -1.3032160    -0.5830550
  C        3.0220600     0.7400440     0.3662130
  C       -2.8869950    -1.3690860     1.1220740
  C       -3.8377830    -0.3053550    -0.8293160
  C       -3.9434210    -1.2230030     0.2186750
  C        4.7300730    -1.0916580    -0.0030050
  H        0.1601300    -1.3363870    -1.0489480
  H       -0.4605330     2.5122530     1.4190480
  H       -1.5934070     2.8602250     0.0818210
  H        0.1591150     3.1409490    -0.1188450
  H       -0.9140430    -0.6937920     1.6961740
  H       -2.5719260     1.1603340    -1.8029750
  H        2.4093930    -2.1255732    -0.8894576
  H        3.8063450     1.3842980     0.7658560
  H       -2.9675220    -2.0774950     1.9434440
  H       -4.6536710    -0.1926670    -1.5394220
  H        5.0860610    -1.3967900    -0.9923270
  H        5.4219950    -0.3393960     0.3861000
  H        4.7833880    -1.9677830     0.6515600
  H       -4.8424050    -1.8242580     0.3291710
units angstrom
no_reorient  #important for SAPT in psi4, default
symmetry c1  #important for SAPT in psi4, default
}

set PROPERTIES_ORIGIN ["COM"]
properties('MP2/aug-cc-pvtz', properties = ['dipole'])
--------------------------------------------------------------------------

    Molecular point group: c1
  Charge       = 0
  Multiplicity = 1
  Basis Set: AUG-CC-PVTZ
    Blend: AUG-CC-PVTZ
  Basis Set: (AUG-CC-PVTZ AUX)
    Blend: AUG-CC-PVTZ-JKFIT

    Orbital Energies [Eh]
    ---------------------

    Doubly Occupied:

       1A    -15.572274     2A    -15.548641     3A    -11.307586
       4A    -11.275161     5A    -11.264397     6A    -11.244823
       7A    -11.241910     8A    -11.241684     9A    -11.237956
      10A    -11.237537    11A    -11.236662    12A    -11.229181
      13A    -11.228071    14A    -11.226007    15A    -11.225306
      16A     -1.289606    17A     -1.216963    18A     -1.142153
      19A     -1.096681    20A     -1.038383    21A     -1.018604
      22A     -1.008589    23A     -0.952236    24A     -0.907778
      25A     -0.862925    26A     -0.839105    27A     -0.830483
      28A     -0.792924    29A     -0.730726    30A     -0.689372
      31A     -0.674064    32A     -0.648045    33A     -0.641972
      34A     -0.627390    35A     -0.614725    36A     -0.595215
      37A     -0.587776    38A     -0.586304    39A     -0.577480
      40A     -0.569400    41A     -0.543560    42A     -0.536876
      43A     -0.522823    44A     -0.514079    45A     -0.507388
      46A     -0.499823    47A     -0.498420    48A     -0.417654
      49A     -0.410584    50A     -0.373128    51A     -0.342633
      52A     -0.338727    53A     -0.285792

  @DF-RHF Final Energy:  -609.49956092713080

   => Energetics <=

    Nuclear Repulsion Energy =            920.8423595686184626
    One-Electron Energy =               -2653.3886696087238306
    Two-Electron Energy =                1123.0467491129743394
    Total Energy =                       -609.4995609271309149
  Basis Set: (AUG-CC-PVTZ AUX)
    Blend: AUG-CC-PVTZ-RI
    Molecular point group: c1

    Geometry (in Angstrom), charge = 0, multiplicity = 1:

       Center              X                  Y                   Z               Mass
    ------------   -----------------  -----------------  -----------------  -----------------
         N           -0.450266179425     1.138118093806    -0.217925376551    14.003074004430
         N            1.808679820575     1.277537093806     0.352178623449    14.003074004430
         C           -1.604607179425     0.311810093806    -0.066726376551    12.000000000000
         C            0.804489820575     0.531765093806    -0.136232376551    12.000000000000
         C           -0.575759179425     2.488221093806     0.333144623449    12.000000000000
         C            1.006532820575    -0.776499906194    -0.627899376551    12.000000000000
         C            3.350316820575    -0.551856906194    -0.068054376551    12.000000000000
         C           -1.714820179425    -0.601103906194     0.992171623449    12.000000000000
         C           -2.659989179425     0.452180093806    -0.975323376551    12.000000000000
         C            2.283519820575    -1.309607906194    -0.579339376551    12.000000000000
         C            3.041514820575     0.733652093806     0.369928623449    12.000000000000
         C           -2.867540179425    -1.375477906194     1.125789623449    12.000000000000
         C           -3.818328179425    -0.311746906194    -0.825600376551    12.000000000000
         C           -3.923966179425    -1.229394906194     0.222390623449    12.000000000000
         C            4.749527820575    -1.098049906194     0.000710623449    12.000000000000
         H            0.179584820575    -1.342778906194    -1.045232376551     1.007825032230
         H           -0.441078179425     2.505861093806     1.422763623449     1.007825032230
         H           -1.573952179425     2.853833093806     0.085536623449     1.007825032230
         H            0.178569820575     3.134557093806    -0.115129376551     1.007825032230
         H           -0.894588179425    -0.700183906194     1.699889623449     1.007825032230
         H           -2.552471179425     1.153942093806    -1.799259376551     1.007825032230
         H            2.428847820575    -2.131965106194    -0.885741976551     1.007825032230
         H            3.825799820575     1.377906093806     0.769571623449     1.007825032230
         H           -2.948067179425    -2.083886906194     1.947159623449     1.007825032230
         H           -4.634216179425    -0.199058906194    -1.535706376551     1.007825032230
         H            5.105515820575    -1.403181906194    -0.988611376551     1.007825032230
         H            5.441449820575    -0.345787906194     0.389815623449     1.007825032230
         H            4.802842820575    -1.974174906194     0.655275623449     1.007825032230
         H           -4.822950179425    -1.830649906194     0.332886623449     1.007825032230

  Basis Set: AUG-CC-PVTZ
    Blend: AUG-CC-PVTZ
  Basis Set: (AUG-CC-PVTZ AUX)
    Blend: AUG-CC-PVTZ-JKFIT
	 Reference Energy          =    -609.4995609271308012 [Eh]
	 Singles Energy            =      -0.0000000000000000 [Eh]
	 Same-Spin Energy          =      -0.6809443747077493 [Eh]
	 Opposite-Spin Energy      =      -2.1301830523300507 [Eh]
	 Correlation Energy        =      -2.8111274270377997 [Eh]
	 Total Energy              =    -612.3106883541686329 [Eh]

	 ================> DF-SCS-MP2 Energies <==================
	-----------------------------------------------------------
	 SCS Same-Spin Scale       =       0.3333333333333333 [-]
	 SCS Opposite-Spin Scale   =       1.2000000000000000 [-]
	 SCS Same-Spin Energy      =      -0.2269814582359164 [Eh]
	 SCS Opposite-Spin Energy  =      -2.5562196627960607 [Eh]
	 SCS Correlation Energy    =      -2.7832011210319769 [Eh]
	 SCS Total Energy          =    -612.2827620481627946 [Eh]
	-----------------------------------------------------------

  Dipole Moment: [D]
     X:    -0.4694      Y:    -1.5071      Z:    -0.1842     Total:     1.5892

*** Psi4 exiting successfully. Buy a developer a beer!
