                               Psi4 1.4a3.dev225

  ==> Input File <==

--------------------------------------------------------------------------
#psi4
#
memory 32 gb

molecule  {
0 1
  N       -0.4697210     1.1445100    -0.2216410
  N        1.7892250     1.2839290     0.3484630
  C       -1.6240620     0.3182020    -0.0704420
  C        0.7476434     0.5103878    -0.1581343
  C       -0.5952140     2.4946130     0.3294290
  C        0.9870780    -0.7701080    -0.6316150
  C        3.3308620    -0.5454650    -0.0717700
  C       -1.7342750    -0.5947120     0.9884560
  C       -2.6794440     0.4585720    -0.9790390
  C        2.2640650    -1.3032160    -0.5830550
  C        3.0220600     0.7400440     0.3662130
  C       -2.8869950    -1.3690860     1.1220740
  C       -3.8377830    -0.3053550    -0.8293160
  C       -3.9434210    -1.2230030     0.2186750
  C        4.7300730    -1.0916580    -0.0030050
  H        0.1601300    -1.3363870    -1.0489480
  H       -0.4605330     2.5122530     1.4190480
  H       -1.5934070     2.8602250     0.0818210
  H        0.1591150     3.1409490    -0.1188450
  H       -0.9140430    -0.6937920     1.6961740
  H       -2.5719260     1.1603340    -1.8029750
  H        2.4420680    -2.3104690    -0.9583480
  H        3.8063450     1.3842980     0.7658560
  H       -2.9675220    -2.0774950     1.9434440
  H       -4.6536710    -0.1926670    -1.5394220
  H        5.0860610    -1.3967900    -0.9923270
  H        5.4219950    -0.3393960     0.3861000
  H        4.7833880    -1.9677830     0.6515600
  H       -4.8424050    -1.8242580     0.3291710
units angstrom
no_reorient  #important for SAPT in psi4, default
symmetry c1  #important for SAPT in psi4, default
}

set PROPERTIES_ORIGIN ["COM"]
properties('MP2/aug-cc-pvtz', properties = ['dipole'])
--------------------------------------------------------------------------

    Molecular point group: c1
  Charge       = 0
  Multiplicity = 1
  Basis Set: AUG-CC-PVTZ
    Blend: AUG-CC-PVTZ
  Basis Set: (AUG-CC-PVTZ AUX)
    Blend: AUG-CC-PVTZ-JKFIT

    Orbital Energies [Eh]
    ---------------------

    Doubly Occupied:

       1A    -15.575648     2A    -15.550005     3A    -11.308398
       4A    -11.275857     5A    -11.264979     6A    -11.250376
       7A    -11.247618     8A    -11.242674     9A    -11.242409
      10A    -11.238890    11A    -11.238615    12A    -11.237639
      13A    -11.228402    14A    -11.224469    15A    -11.224138
      16A     -1.290805    17A     -1.210841    18A     -1.143461
      19A     -1.085400    20A     -1.040896    21A     -1.019441
      22A     -1.009888    23A     -0.951446    24A     -0.906512
      25A     -0.847048    26A     -0.840157    27A     -0.830235
      28A     -0.784463    29A     -0.725496    30A     -0.686467
      31A     -0.673109    32A     -0.649708    33A     -0.635108
      34A     -0.622033    35A     -0.610339    36A     -0.595029
      37A     -0.591401    38A     -0.583915    39A     -0.575940
      40A     -0.561056    41A     -0.541794    42A     -0.536973
      43A     -0.519925    44A     -0.514235    45A     -0.507435
      46A     -0.500504    47A     -0.498622    48A     -0.420656
      49A     -0.407899    50A     -0.370956    51A     -0.343234
      52A     -0.340049    53A     -0.284586

  @DF-RHF Final Energy:  -609.52865419557293

   => Energetics <=

    Nuclear Repulsion Energy =            919.6712842385924205
    One-Electron Energy =               -2651.1855166732975704
    Two-Electron Energy =                1121.9855782391323373
    Total Energy =                       -609.5286541955729263
  Basis Set: (AUG-CC-PVTZ AUX)
    Blend: AUG-CC-PVTZ-RI
    Molecular point group: c1

    Geometry (in Angstrom), charge = 0, multiplicity = 1:

       Center              X                  Y                   Z               Mass
    ------------   -----------------  -----------------  -----------------  -----------------
         N           -0.448167564725     1.140740667482    -0.216473371122    14.003074004430
         N            1.810778435275     1.280159667482     0.353630628878    14.003074004430
         C           -1.602508564725     0.314432667482    -0.065274371122    12.000000000000
         C            0.769196835275     0.506618467482    -0.152966671122    12.000000000000
         C           -0.573660564725     2.490843667482     0.334596628878    12.000000000000
         C            1.008631435275    -0.773877332518    -0.626447371122    12.000000000000
         C            3.352415435275    -0.549234332518    -0.066602371122    12.000000000000
         C           -1.712721564725    -0.598481332518     0.993623628878    12.000000000000
         C           -2.657890564725     0.454802667482    -0.973871371122    12.000000000000
         C            2.285618435275    -1.306985332518    -0.577887371122    12.000000000000
         C            3.043613435275     0.736274667482     0.371380628878    12.000000000000
         C           -2.865441564725    -1.372855332518     1.127241628878    12.000000000000
         C           -3.816229564725    -0.309124332518    -0.824148371122    12.000000000000
         C           -3.921867564725    -1.226772332518     0.223842628878    12.000000000000
         C            4.751626435275    -1.095427332518     0.002162628878    12.000000000000
         H            0.181683435275    -1.340156332518    -1.043780371122     1.007825032230
         H           -0.438979564725     2.508483667482     1.424215628878     1.007825032230
         H           -1.571853564725     2.856455667482     0.086988628878     1.007825032230
         H            0.180668435275     3.137179667482    -0.113677371122     1.007825032230
         H           -0.892489564725    -0.697561332518     1.701341628878     1.007825032230
         H           -2.550372564725     1.156564667482    -1.797807371122     1.007825032230
         H            2.463621435275    -2.314238332518    -0.953180371122     1.007825032230
         H            3.827898435275     1.380528667482     0.771023628878     1.007825032230
         H           -2.945968564725    -2.081264332518     1.948611628878     1.007825032230
         H           -4.632117564725    -0.196436332518    -1.534254371122     1.007825032230
         H            5.107614435275    -1.400559332518    -0.987159371122     1.007825032230
         H            5.443548435275    -0.343165332518     0.391267628878     1.007825032230
         H            4.804941435275    -1.971552332518     0.656727628878     1.007825032230
         H           -4.820851564725    -1.828027332518     0.334338628878     1.007825032230

  Basis Set: AUG-CC-PVTZ
    Blend: AUG-CC-PVTZ
  Basis Set: (AUG-CC-PVTZ AUX)
    Blend: AUG-CC-PVTZ-JKFIT
	 Reference Energy          =    -609.5286541955729263 [Eh]
	 Singles Energy            =      -0.0000000000000000 [Eh]
	 Same-Spin Energy          =      -0.6819038067927511 [Eh]
	 Opposite-Spin Energy      =      -2.1320180770665997 [Eh]
	 Correlation Energy        =      -2.8139218838593507 [Eh]
	 Total Energy              =    -612.3425760794323196 [Eh]

	 ================> DF-SCS-MP2 Energies <==================
	-----------------------------------------------------------
	 SCS Same-Spin Scale       =       0.3333333333333333 [-]
	 SCS Opposite-Spin Scale   =       1.2000000000000000 [-]
	 SCS Same-Spin Energy      =      -0.2273012689309170 [Eh]
	 SCS Opposite-Spin Energy  =      -2.5584216924799197 [Eh]
	 SCS Correlation Energy    =      -2.7857229614108365 [Eh]
	 SCS Total Energy          =    -612.3143771569837099 [Eh]
	-----------------------------------------------------------

  Dipole Moment: [D]
     X:    -0.6830      Y:    -1.3981      Z:    -0.1643     Total:     1.5647

*** Psi4 exiting successfully. Buy a developer a beer!
