                               Psi4 1.4a3.dev225

  ==> Input File <==

--------------------------------------------------------------------------
#psi4
#
memory 32 gb

molecule  {
0 1
  N       -0.4697210     1.1445100    -0.2216410
  N        1.7892250     1.2839290     0.3484630
  C       -1.6240620     0.3182020    -0.0704420
  C        0.7850350     0.5381570    -0.1399480
  C       -0.5952140     2.4946130     0.3294290
  C        0.9870780    -0.7701080    -0.6316150
  C        3.3308620    -0.5454650    -0.0717700
  C       -1.7342750    -0.5947120     0.9884560
  C       -2.6794440     0.4585720    -0.9790390
  C        2.2640650    -1.3032160    -0.5830550
  C        3.0220600     0.7400440     0.3662130
  C       -2.8869950    -1.3690860     1.1220740
  C       -3.8377830    -0.3053550    -0.8293160
  C       -3.9434210    -1.2230030     0.2186750
  C        4.7300730    -1.0916580    -0.0030050
  H        0.2362993    -1.2842276    -1.0105079
  H       -0.4605330     2.5122530     1.4190480
  H       -1.5934070     2.8602250     0.0818210
  H        0.1591150     3.1409490    -0.1188450
  H       -0.9140430    -0.6937920     1.6961740
  H       -2.5719260     1.1603340    -1.8029750
  H        2.4420680    -2.3104690    -0.9583480
  H        3.8063450     1.3842980     0.7658560
  H       -2.9675220    -2.0774950     1.9434440
  H       -4.6536710    -0.1926670    -1.5394220
  H        5.0860610    -1.3967900    -0.9923270
  H        5.4219950    -0.3393960     0.3861000
  H        4.7833880    -1.9677830     0.6515600
  H       -4.8424050    -1.8242580     0.3291710
units angstrom
no_reorient  #important for SAPT in psi4, default
symmetry c1  #important for SAPT in psi4, default
}

set PROPERTIES_ORIGIN ["COM"]
properties('MP2/aug-cc-pvtz', properties = ['dipole'])
--------------------------------------------------------------------------

    Molecular point group: c1
  Charge       = 0
  Multiplicity = 1
  Basis Set: AUG-CC-PVTZ
    Blend: AUG-CC-PVTZ
  Basis Set: (AUG-CC-PVTZ AUX)
    Blend: AUG-CC-PVTZ-JKFIT

    Orbital Energies [Eh]
    ---------------------

    Doubly Occupied:

       1A    -15.572862     2A    -15.548327     3A    -11.307841
       4A    -11.275574     5A    -11.265356     6A    -11.249684
       7A    -11.245183     8A    -11.242219     9A    -11.241974
      10A    -11.238293    11A    -11.237983    12A    -11.237068
      13A    -11.229867    14A    -11.224881    15A    -11.217419
      16A     -1.290104    17A     -1.217133    18A     -1.142399
      19A     -1.090577    20A     -1.040990    21A     -1.018932
      22A     -1.009080    23A     -0.949144    24A     -0.907455
      25A     -0.853315    26A     -0.839626    27A     -0.829396
      28A     -0.786486    29A     -0.725584    30A     -0.686165
      31A     -0.674374    32A     -0.649672    33A     -0.648365
      34A     -0.630289    35A     -0.609881    36A     -0.593970
      37A     -0.588023    38A     -0.583784    39A     -0.576469
      40A     -0.561683    41A     -0.543414    42A     -0.534129
      43A     -0.523067    44A     -0.516089    45A     -0.508176
      46A     -0.500247    47A     -0.499795    48A     -0.417950
      49A     -0.410536    50A     -0.373301    51A     -0.343172
      52A     -0.339126    53A     -0.286411

  @DF-RHF Final Energy:  -609.52809250122777

   => Energetics <=

    Nuclear Repulsion Energy =            920.1036296266436239
    One-Electron Energy =               -2651.9977583923291604
    Two-Electron Energy =                1122.3660362644577617
    Total Energy =                       -609.5280925012277748
  Basis Set: (AUG-CC-PVTZ AUX)
    Blend: AUG-CC-PVTZ-RI
    Molecular point group: c1

    Geometry (in Angstrom), charge = 0, multiplicity = 1:

       Center              X                  Y                   Z               Mass
    ------------   -----------------  -----------------  -----------------  -----------------
         N           -0.450819876134     1.138793330890    -0.217770474265    14.003074004430
         N            1.808126123866     1.278212330890     0.352333525735    14.003074004430
         C           -1.605160876134     0.312485330890    -0.066571474265    12.000000000000
         C            0.803936123866     0.532440330890    -0.136077474265    12.000000000000
         C           -0.576312876134     2.488896330890     0.333299525735    12.000000000000
         C            1.005979123866    -0.775824669110    -0.627744474265    12.000000000000
         C            3.349763123866    -0.551181669110    -0.067899474265    12.000000000000
         C           -1.715373876134    -0.600428669110     0.992326525735    12.000000000000
         C           -2.660542876134     0.452855330890    -0.975168474265    12.000000000000
         C            2.282966123866    -1.308932669110    -0.579184474265    12.000000000000
         C            3.040961123866     0.734327330890     0.370083525735    12.000000000000
         C           -2.868093876134    -1.374802669110     1.125944525735    12.000000000000
         C           -3.818881876134    -0.311071669110    -0.825445474265    12.000000000000
         C           -3.924519876134    -1.228719669110     0.222545525735    12.000000000000
         C            4.748974123866    -1.097374669110     0.000865525735    12.000000000000
         H            0.255200423866    -1.289944269110    -1.006637374265     1.007825032230
         H           -0.441631876134     2.506536330890     1.422918525735     1.007825032230
         H           -1.574505876134     2.854508330890     0.085691525735     1.007825032230
         H            0.178016123866     3.135232330890    -0.114974474265     1.007825032230
         H           -0.895141876134    -0.699508669110     1.700044525735     1.007825032230
         H           -2.553024876134     1.154617330890    -1.799104474265     1.007825032230
         H            2.460969123866    -2.316185669110    -0.954477474265     1.007825032230
         H            3.825246123866     1.378581330890     0.769726525735     1.007825032230
         H           -2.948620876134    -2.083211669110     1.947314525735     1.007825032230
         H           -4.634769876134    -0.198383669110    -1.535551474265     1.007825032230
         H            5.104962123866    -1.402506669110    -0.988456474265     1.007825032230
         H            5.440896123866    -0.345112669110     0.389970525735     1.007825032230
         H            4.802289123866    -1.973499669110     0.655430525735     1.007825032230
         H           -4.823503876134    -1.829974669110     0.333041525735     1.007825032230

  Basis Set: AUG-CC-PVTZ
    Blend: AUG-CC-PVTZ
  Basis Set: (AUG-CC-PVTZ AUX)
    Blend: AUG-CC-PVTZ-JKFIT
	 Reference Energy          =    -609.5280925012277748 [Eh]
	 Singles Energy            =      -0.0000000000000000 [Eh]
	 Same-Spin Energy          =      -0.6807933831532247 [Eh]
	 Opposite-Spin Energy      =      -2.1299943229476033 [Eh]
	 Correlation Energy        =      -2.8107877061008280 [Eh]
	 Total Energy              =    -612.3388802073286570 [Eh]

	 ================> DF-SCS-MP2 Energies <==================
	-----------------------------------------------------------
	 SCS Same-Spin Scale       =       0.3333333333333333 [-]
	 SCS Opposite-Spin Scale   =       1.2000000000000000 [-]
	 SCS Same-Spin Energy      =      -0.2269311277177415 [Eh]
	 SCS Opposite-Spin Energy  =      -2.5559931875371240 [Eh]
	 SCS Correlation Energy    =      -2.7829243152548657 [Eh]
	 SCS Total Energy          =    -612.3110168164826064 [Eh]
	-----------------------------------------------------------

  Dipole Moment: [D]
     X:    -0.5112      Y:    -1.4681      Z:    -0.1713     Total:     1.5640

*** Psi4 exiting successfully. Buy a developer a beer!
