                               Psi4 1.4a3.dev225

  ==> Input File <==

--------------------------------------------------------------------------
#psi4
#
memory 32 gb

molecule  {
0 1
  N       -0.4697210     1.1445100    -0.2216410
  N        1.7892250     1.2839290     0.3484630
  C       -1.6240620     0.3182020    -0.0704420
  C        0.7850350     0.5381570    -0.1399480
  C       -0.5952140     2.4946130     0.3294290
  C        0.9870780    -0.7701080    -0.6316150
  C        3.3308620    -0.5454650    -0.0717700
  C       -1.6995625    -0.6387723     1.0680536
  C       -2.6794440     0.4585720    -0.9790390
  C        2.2640650    -1.3032160    -0.5830550
  C        3.0220600     0.7400440     0.3662130
  C       -2.8869950    -1.3690860     1.1220740
  C       -3.8377830    -0.3053550    -0.8293160
  C       -3.9434210    -1.2230030     0.2186750
  C        4.7300730    -1.0916580    -0.0030050
  H        0.1601300    -1.3363870    -1.0489480
  H       -0.4605330     2.5122530     1.4190480
  H       -1.5934070     2.8602250     0.0818210
  H        0.1591150     3.1409490    -0.1188450
  H       -0.9140430    -0.6937920     1.6961740
  H       -2.5719260     1.1603340    -1.8029750
  H        2.4420680    -2.3104690    -0.9583480
  H        3.8063450     1.3842980     0.7658560
  H       -2.9675220    -2.0774950     1.9434440
  H       -4.6536710    -0.1926670    -1.5394220
  H        5.0860610    -1.3967900    -0.9923270
  H        5.4219950    -0.3393960     0.3861000
  H        4.7833880    -1.9677830     0.6515600
  H       -4.8424050    -1.8242580     0.3291710
units angstrom
no_reorient  #important for SAPT in psi4, default
symmetry c1  #important for SAPT in psi4, default
}

set PROPERTIES_ORIGIN ["COM"]
properties('MP2/aug-cc-pvtz', properties = ['dipole'])
--------------------------------------------------------------------------

    Molecular point group: c1
  Charge       = 0
  Multiplicity = 1
  Basis Set: AUG-CC-PVTZ
    Blend: AUG-CC-PVTZ
  Basis Set: (AUG-CC-PVTZ AUX)
    Blend: AUG-CC-PVTZ-JKFIT

    Orbital Energies [Eh]
    ---------------------

    Doubly Occupied:

       1A    -15.572904     2A    -15.549456     3A    -11.308788
       4A    -11.284525     5A    -11.265951     6A    -11.250577
       7A    -11.245191     8A    -11.243798     9A    -11.243222
      10A    -11.240199    11A    -11.237851    12A    -11.236365
      13A    -11.230805    14A    -11.229155    15A    -11.225458
      16A     -1.289752    17A     -1.216192    18A     -1.136956
      19A     -1.090236    20A     -1.038218    21A     -1.020735
      22A     -1.002311    23A     -0.949552    24A     -0.907919
      25A     -0.847538    26A     -0.844594    27A     -0.825147
      28A     -0.783168    29A     -0.723381    30A     -0.692114
      31A     -0.675083    32A     -0.647143    33A     -0.642475
      34A     -0.624393    35A     -0.607227    36A     -0.596301
      37A     -0.587107    38A     -0.584539    39A     -0.576772
      40A     -0.562289    41A     -0.543675    42A     -0.535052
      43A     -0.524203    44A     -0.518298    45A     -0.506291
      46A     -0.501054    47A     -0.491826    48A     -0.416169
      49A     -0.410098    50A     -0.374038    51A     -0.343214
      52A     -0.334964    53A     -0.284783

  @DF-RHF Final Energy:  -609.52007724586565

   => Energetics <=

    Nuclear Repulsion Energy =            918.0572300934940131
    One-Electron Energy =               -2647.9165127589872100
    Two-Electron Energy =                1120.3392054196274330
    Total Energy =                       -609.5200772458656502
  Basis Set: (AUG-CC-PVTZ AUX)
    Blend: AUG-CC-PVTZ-RI
    Molecular point group: c1

    Geometry (in Angstrom), charge = 0, multiplicity = 1:

       Center              X                  Y                   Z               Mass
    ------------   -----------------  -----------------  -----------------  -----------------
         N           -0.452534958156     1.141727430275    -0.222396207168    14.003074004430
         N            1.806411041844     1.281146430275     0.347707792832    14.003074004430
         C           -1.606875958156     0.315419430275    -0.071197207168    12.000000000000
         C            0.802221041844     0.535374430275    -0.140703207168    12.000000000000
         C           -0.578027958156     2.491830430275     0.328673792832    12.000000000000
         C            1.004264041844    -0.772890569725    -0.632370207168    12.000000000000
         C            3.348048041844    -0.548247569725    -0.072525207168    12.000000000000
         C           -1.682376458156    -0.641554869725     1.067298392832    12.000000000000
         C           -2.662257958156     0.455789430275    -0.979794207168    12.000000000000
         C            2.281251041844    -1.305998569725    -0.583810207168    12.000000000000
         C            3.039246041844     0.737261430275     0.365457792832    12.000000000000
         C           -2.869808958156    -1.371868569725     1.121318792832    12.000000000000
         C           -3.820596958156    -0.308137569725    -0.830071207168    12.000000000000
         C           -3.926234958156    -1.225785569725     0.217919792832    12.000000000000
         C            4.747259041844    -1.094440569725    -0.003760207168    12.000000000000
         H            0.177316041844    -1.339169569725    -1.049703207168     1.007825032230
         H           -0.443346958156     2.509470430275     1.418292792832     1.007825032230
         H           -1.576220958156     2.857442430275     0.081065792832     1.007825032230
         H            0.176301041844     3.138166430275    -0.119600207168     1.007825032230
         H           -0.896856958156    -0.696574569725     1.695418792832     1.007825032230
         H           -2.554739958156     1.157551430275    -1.803730207168     1.007825032230
         H            2.459254041844    -2.313251569725    -0.959103207168     1.007825032230
         H            3.823531041844     1.381515430275     0.765100792832     1.007825032230
         H           -2.950335958156    -2.080277569725     1.942688792832     1.007825032230
         H           -4.636484958156    -0.195449569725    -1.540177207168     1.007825032230
         H            5.103247041844    -1.399572569725    -0.993082207168     1.007825032230
         H            5.439181041844    -0.342178569725     0.385344792832     1.007825032230
         H            4.800574041844    -1.970565569725     0.650804792832     1.007825032230
         H           -4.825218958156    -1.827040569725     0.328415792832     1.007825032230

  Basis Set: AUG-CC-PVTZ
    Blend: AUG-CC-PVTZ
  Basis Set: (AUG-CC-PVTZ AUX)
    Blend: AUG-CC-PVTZ-JKFIT
	 Reference Energy          =    -609.5200772458656502 [Eh]
	 Singles Energy            =      -0.0000000000000000 [Eh]
	 Same-Spin Energy          =      -0.6812934267682137 [Eh]
	 Opposite-Spin Energy      =      -2.1320392084088784 [Eh]
	 Correlation Energy        =      -2.8133326351770922 [Eh]
	 Total Energy              =    -612.3334098810427122 [Eh]

	 ================> DF-SCS-MP2 Energies <==================
	-----------------------------------------------------------
	 SCS Same-Spin Scale       =       0.3333333333333333 [-]
	 SCS Opposite-Spin Scale   =       1.2000000000000000 [-]
	 SCS Same-Spin Energy      =      -0.2270978089227379 [Eh]
	 SCS Opposite-Spin Energy  =      -2.5584470500906540 [Eh]
	 SCS Correlation Energy    =      -2.7855448590133918 [Eh]
	 SCS Total Energy          =    -612.3056221048790349 [Eh]
	-----------------------------------------------------------

  Dipole Moment: [D]
     X:    -0.4559      Y:    -1.4294      Z:    -0.1976     Total:     1.5133

*** Psi4 exiting successfully. Buy a developer a beer!
