                               Psi4 1.4a3.dev225

  ==> Input File <==

--------------------------------------------------------------------------
#psi4
#
memory 32 gb

molecule  {
0 1
  N       -0.4697210     1.1445100    -0.2216410
  N        1.7892250     1.2839290     0.3484630
  C       -1.6240620     0.3182020    -0.0704420
  C        0.7850350     0.5381570    -0.1399480
  C       -0.5952140     2.4946130     0.3294290
  C        0.9870780    -0.7701080    -0.6316150
  C        3.3308620    -0.5454650    -0.0717700
  C       -1.7250633    -0.6053815     1.0083095
  C       -2.6794440     0.4585720    -0.9790390
  C        2.2640650    -1.3032160    -0.5830550
  C        3.0220600     0.7400440     0.3662130
  C       -2.8869950    -1.3690860     1.1220740
  C       -3.8377830    -0.3053550    -0.8293160
  C       -3.9434210    -1.2230030     0.2186750
  C        4.7300730    -1.0916580    -0.0030050
  H        0.1601300    -1.3363870    -1.0489480
  H       -0.4605330     2.5122530     1.4190480
  H       -1.5934070     2.8602250     0.0818210
  H        0.1591150     3.1409490    -0.1188450
  H       -0.9140430    -0.6937920     1.6961740
  H       -2.5719260     1.1603340    -1.8029750
  H        2.4420680    -2.3104690    -0.9583480
  H        3.8063450     1.3842980     0.7658560
  H       -2.9675220    -2.0774950     1.9434440
  H       -4.6536710    -0.1926670    -1.5394220
  H        5.0860610    -1.3967900    -0.9923270
  H        5.4219950    -0.3393960     0.3861000
  H        4.7833880    -1.9677830     0.6515600
  H       -4.8424050    -1.8242580     0.3291710
units angstrom
no_reorient  #important for SAPT in psi4, default
symmetry c1  #important for SAPT in psi4, default
}

set PROPERTIES_ORIGIN ["COM"]
properties('MP2/aug-cc-pvtz', properties = ['dipole'])
--------------------------------------------------------------------------

    Molecular point group: c1
  Charge       = 0
  Multiplicity = 1
  Basis Set: AUG-CC-PVTZ
    Blend: AUG-CC-PVTZ
  Basis Set: (AUG-CC-PVTZ AUX)
    Blend: AUG-CC-PVTZ-JKFIT

    Orbital Energies [Eh]
    ---------------------

    Doubly Occupied:

       1A    -15.572827     2A    -15.549123     3A    -11.308664
       4A    -11.277776     5A    -11.265679     6A    -11.250351
       7A    -11.245180     8A    -11.242344     9A    -11.242147
      10A    -11.238339    11A    -11.237962    12A    -11.236706
      13A    -11.230495    14A    -11.228973    15A    -11.225253
      16A     -1.290061    17A     -1.217069    18A     -1.140790
      19A     -1.090014    20A     -1.038023    21A     -1.019117
      22A     -1.007055    23A     -0.949427    24A     -0.907574
      25A     -0.847099    26A     -0.840418    27A     -0.827945
      28A     -0.785084    29A     -0.724290    30A     -0.686531
      31A     -0.674589    32A     -0.647871    33A     -0.639247
      34A     -0.623136    35A     -0.608826    36A     -0.594350
      37A     -0.587753    38A     -0.584741    39A     -0.576739
      40A     -0.561796    41A     -0.543361    42A     -0.534388
      43A     -0.523533    44A     -0.515034    45A     -0.506644
      46A     -0.502078    47A     -0.497372    48A     -0.417652
      49A     -0.410339    50A     -0.373754    51A     -0.341898
      52A     -0.338822    53A     -0.286100

  @DF-RHF Final Energy:  -609.53260505368132

   => Energetics <=

    Nuclear Repulsion Energy =            919.2162995789933575
    One-Electron Energy =               -2650.2731358260120942
    Two-Electron Energy =                1121.5242311933375277
    Total Energy =                       -609.5326050536812090
  Basis Set: (AUG-CC-PVTZ AUX)
    Blend: AUG-CC-PVTZ-RI
    Molecular point group: c1

    Geometry (in Angstrom), charge = 0, multiplicity = 1:

       Center              X                  Y                   Z               Mass
    ------------   -----------------  -----------------  -----------------  -----------------
         N           -0.450990357691     1.139704927247    -0.218777467181    14.003074004430
         N            1.807955642309     1.279123927247     0.351326532819    14.003074004430
         C           -1.605331357691     0.313396927247    -0.067578467181    12.000000000000
         C            0.803765642309     0.533351927247    -0.137084467181    12.000000000000
         C           -0.576483357691     2.489807927247     0.332292532819    12.000000000000
         C            1.005808642309    -0.774913072753    -0.628751467181    12.000000000000
         C            3.349592642309    -0.550270072753    -0.068906467181    12.000000000000
         C           -1.706332657691    -0.610186572753     1.011173032819    12.000000000000
         C           -2.660713357691     0.453766927247    -0.976175467181    12.000000000000
         C            2.282795642309    -1.308021072753    -0.580191467181    12.000000000000
         C            3.040790642309     0.735238927247     0.369076532819    12.000000000000
         C           -2.868264357691    -1.373891072753     1.124937532819    12.000000000000
         C           -3.819052357691    -0.310160072753    -0.826452467181    12.000000000000
         C           -3.924690357691    -1.227808072753     0.221538532819    12.000000000000
         C            4.748803642309    -1.096463072753    -0.000141467181    12.000000000000
         H            0.178860642309    -1.341192072753    -1.046084467181     1.007825032230
         H           -0.441802357691     2.507447927247     1.421911532819     1.007825032230
         H           -1.574676357691     2.855419927247     0.084684532819     1.007825032230
         H            0.177845642309     3.136143927247    -0.115981467181     1.007825032230
         H           -0.895312357691    -0.698597072753     1.699037532819     1.007825032230
         H           -2.553195357691     1.155528927247    -1.800111467181     1.007825032230
         H            2.460798642309    -2.315274072753    -0.955484467181     1.007825032230
         H            3.825075642309     1.379492927247     0.768719532819     1.007825032230
         H           -2.948791357691    -2.082300072753     1.946307532819     1.007825032230
         H           -4.634940357691    -0.197472072753    -1.536558467181     1.007825032230
         H            5.104791642309    -1.401595072753    -0.989463467181     1.007825032230
         H            5.440725642309    -0.344201072753     0.388963532819     1.007825032230
         H            4.802118642309    -1.972588072753     0.654423532819     1.007825032230
         H           -4.823674357691    -1.829063072753     0.332034532819     1.007825032230

  Basis Set: AUG-CC-PVTZ
    Blend: AUG-CC-PVTZ
  Basis Set: (AUG-CC-PVTZ AUX)
    Blend: AUG-CC-PVTZ-JKFIT
	 Reference Energy          =    -609.5326050536813227 [Eh]
	 Singles Energy            =      -0.0000000000000000 [Eh]
	 Same-Spin Energy          =      -0.6811540838685034 [Eh]
	 Opposite-Spin Energy      =      -2.1309388605548141 [Eh]
	 Correlation Energy        =      -2.8120929444233176 [Eh]
	 Total Energy              =    -612.3446979981046070 [Eh]

	 ================> DF-SCS-MP2 Energies <==================
	-----------------------------------------------------------
	 SCS Same-Spin Scale       =       0.3333333333333333 [-]
	 SCS Opposite-Spin Scale   =       1.2000000000000000 [-]
	 SCS Same-Spin Energy      =      -0.2270513612895011 [Eh]
	 SCS Opposite-Spin Energy  =      -2.5571266326657769 [Eh]
	 SCS Correlation Energy    =      -2.7841779939552782 [Eh]
	 SCS Total Energy          =    -612.3167830476365907 [Eh]
	-----------------------------------------------------------

  Dipole Moment: [D]
     X:    -0.4822      Y:    -1.4546      Z:    -0.1730     Total:     1.5421

*** Psi4 exiting successfully. Buy a developer a beer!
