                               Psi4 1.4a3.dev225

  ==> Input File <==

--------------------------------------------------------------------------
#psi4
#
memory 32 gb

molecule  {
0 1
  N       -0.4697210     1.1445100    -0.2216410
  N        1.7892250     1.2839290     0.3484630
  C       -1.6240620     0.3182020    -0.0704420
  C        0.7850350     0.5381570    -0.1399480
  C       -0.5952140     2.4946130     0.3294290
  C        0.9870780    -0.7701080    -0.6316150
  C        3.3308620    -0.5454650    -0.0717700
  C       -1.7342750    -0.5947120     0.9884560
  C       -2.6794440     0.4585720    -0.9790390
  C        2.2640650    -1.3032160    -0.5830550
  C        3.0220600     0.7400440     0.3662130
  C       -2.8869950    -1.3690860     1.1220740
  C       -3.8377830    -0.3053550    -0.8293160
  C       -3.9434210    -1.2230030     0.2186750
  C        4.7300730    -1.0916580    -0.0030050
  H        0.1601300    -1.3363870    -1.0489480
  H       -0.4605330     2.5122530     1.4190480
  H       -1.6391328     2.8769732     0.0704784
  H        0.1591150     3.1409490    -0.1188450
  H       -0.9140430    -0.6937920     1.6961740
  H       -2.5719260     1.1603340    -1.8029750
  H        2.4420680    -2.3104690    -0.9583480
  H        3.8063450     1.3842980     0.7658560
  H       -2.9675220    -2.0774950     1.9434440
  H       -4.6536710    -0.1926670    -1.5394220
  H        5.0860610    -1.3967900    -0.9923270
  H        5.4219950    -0.3393960     0.3861000
  H        4.7833880    -1.9677830     0.6515600
  H       -4.8424050    -1.8242580     0.3291710
units angstrom
no_reorient  #important for SAPT in psi4, default
symmetry c1  #important for SAPT in psi4, default
}

set PROPERTIES_ORIGIN ["COM"]
properties('MP2/aug-cc-pvtz', properties = ['dipole'])
--------------------------------------------------------------------------

    Molecular point group: c1
  Charge       = 0
  Multiplicity = 1
  Basis Set: AUG-CC-PVTZ
    Blend: AUG-CC-PVTZ
  Basis Set: (AUG-CC-PVTZ AUX)
    Blend: AUG-CC-PVTZ-JKFIT

    Orbital Energies [Eh]
    ---------------------

    Doubly Occupied:

       1A    -15.573363     2A    -15.549359     3A    -11.309039
       4A    -11.275374     5A    -11.265834     6A    -11.251167
       7A    -11.250498     8A    -11.241969     9A    -11.241732
      10A    -11.238027    11A    -11.237666    12A    -11.236745
      13A    -11.230626    14A    -11.229168    15A    -11.225343
      16A     -1.290464    17A     -1.217561    18A     -1.142212
      19A     -1.090173    20A     -1.037994    21A     -1.018621
      22A     -1.008466    23A     -0.947738    24A     -0.906111
      25A     -0.846467    26A     -0.839244    27A     -0.829238
      28A     -0.785308    29A     -0.724417    30A     -0.685522
      31A     -0.674180    32A     -0.648387    33A     -0.638188
      34A     -0.622778    35A     -0.609206    36A     -0.593269
      37A     -0.588313    38A     -0.583068    39A     -0.576545
      40A     -0.561575    41A     -0.543199    42A     -0.528827
      43A     -0.522389    44A     -0.514631    45A     -0.507824
      46A     -0.499990    47A     -0.498534    48A     -0.418233
      49A     -0.410679    50A     -0.373902    51A     -0.342836
      52A     -0.338829    53A     -0.286683

  @DF-RHF Final Energy:  -609.53148486907321

   => Energetics <=

    Nuclear Repulsion Energy =            919.3771383289102914
    One-Electron Energy =               -2650.6022242471303798
    Two-Electron Energy =                1121.6936010491467641
    Total Energy =                       -609.5314848690732106
  Basis Set: (AUG-CC-PVTZ AUX)
    Blend: AUG-CC-PVTZ-RI
    Molecular point group: c1

    Geometry (in Angstrom), charge = 0, multiplicity = 1:

       Center              X                  Y                   Z               Mass
    ------------   -----------------  -----------------  -----------------  -----------------
         N           -0.450199789315     1.138973469537    -0.217517227038    14.003074004430
         N            1.808746210685     1.278392469537     0.352586772962    14.003074004430
         C           -1.604540789315     0.312665469537    -0.066318227038    12.000000000000
         C            0.804556210685     0.532620469537    -0.135824227038    12.000000000000
         C           -0.575692789315     2.489076469537     0.333552772962    12.000000000000
         C            1.006599210685    -0.775644530463    -0.627491227038    12.000000000000
         C            3.350383210685    -0.551001530463    -0.067646227038    12.000000000000
         C           -1.714753789315    -0.600248530463     0.992579772962    12.000000000000
         C           -2.659922789315     0.453035469537    -0.974915227038    12.000000000000
         C            2.283586210685    -1.308752530463    -0.578931227038    12.000000000000
         C            3.041581210685     0.734507469537     0.370336772962    12.000000000000
         C           -2.867473789315    -1.374622530463     1.126197772962    12.000000000000
         C           -3.818261789315    -0.310891530463    -0.825192227038    12.000000000000
         C           -3.923899789315    -1.228539530463     0.222798772962    12.000000000000
         C            4.749594210685    -1.097194530463     0.001118772962    12.000000000000
         H            0.179651210685    -1.341923530463    -1.044824227038     1.007825032230
         H           -0.441011789315     2.506716469537     1.423171772962     1.007825032230
         H           -1.619611589315     2.871436669537     0.074602172962     1.007825032230
         H            0.178636210685     3.135412469537    -0.114721227038     1.007825032230
         H           -0.894521789315    -0.699328530463     1.700297772962     1.007825032230
         H           -2.552404789315     1.154797469537    -1.798851227038     1.007825032230
         H            2.461589210685    -2.316005530463    -0.954224227038     1.007825032230
         H            3.825866210685     1.378761469537     0.769979772962     1.007825032230
         H           -2.948000789315    -2.083031530463     1.947567772962     1.007825032230
         H           -4.634149789315    -0.198203530463    -1.535298227038     1.007825032230
         H            5.105582210685    -1.402326530463    -0.988203227038     1.007825032230
         H            5.441516210685    -0.344932530463     0.390223772962     1.007825032230
         H            4.802909210685    -1.973319530463     0.655683772962     1.007825032230
         H           -4.822883789315    -1.829794530463     0.333294772962     1.007825032230

  Basis Set: AUG-CC-PVTZ
    Blend: AUG-CC-PVTZ
  Basis Set: (AUG-CC-PVTZ AUX)
    Blend: AUG-CC-PVTZ-JKFIT
	 Reference Energy          =    -609.5314848690732106 [Eh]
	 Singles Energy            =      -0.0000000000000000 [Eh]
	 Same-Spin Energy          =      -0.6811972232800739 [Eh]
	 Opposite-Spin Energy      =      -2.1311799079525420 [Eh]
	 Correlation Energy        =      -2.8123771312326160 [Eh]
	 Total Energy              =    -612.3438620003058759 [Eh]

	 ================> DF-SCS-MP2 Energies <==================
	-----------------------------------------------------------
	 SCS Same-Spin Scale       =       0.3333333333333333 [-]
	 SCS Opposite-Spin Scale   =       1.2000000000000000 [-]
	 SCS Same-Spin Energy      =      -0.2270657410933580 [Eh]
	 SCS Opposite-Spin Energy  =      -2.5574158895430501 [Eh]
	 SCS Correlation Energy    =      -2.7844816306364080 [Eh]
	 SCS Total Energy          =    -612.3159664997095888 [Eh]
	-----------------------------------------------------------

  Dipole Moment: [D]
     X:    -0.4646      Y:    -1.4803      Z:    -0.1651     Total:     1.5603

*** Psi4 exiting successfully. Buy a developer a beer!
