                               Psi4 1.4a3.dev225

  ==> Input File <==

--------------------------------------------------------------------------
#psi4
#
memory 32 gb

molecule  {
0 1
  N       -0.4697210     1.1445100    -0.2216410
  N        1.7892250     1.2839290     0.3484630
  C       -1.6240620     0.3182020    -0.0704420
  C        0.7850350     0.5381570    -0.1399480
  C       -0.5952140     2.4946130     0.3294290
  C        0.9870780    -0.7701080    -0.6316150
  C        3.3308620    -0.5454650    -0.0717700
  C       -1.7342750    -0.5947120     0.9884560
  C       -2.6794440     0.4585720    -0.9790390
  C        2.2640650    -1.3032160    -0.5830550
  C        3.0220600     0.7400440     0.3662130
  C       -2.8869950    -1.3690860     1.1220740
  C       -3.8377830    -0.3053550    -0.8293160
  C       -3.9434210    -1.2230030     0.2186750
  C        4.7300730    -1.0916580    -0.0030050
  H        0.1601300    -1.3363870    -1.0489480
  H       -0.4605330     2.5122530     1.4190480
  H       -1.5934070     2.8602250     0.0818210
  H        0.1591150     3.1409490    -0.1188450
  H       -0.9140430    -0.6937920     1.6961740
  H       -2.5719260     1.1603340    -1.8029750
  H        2.4420680    -2.3104690    -0.9583480
  H        3.8063450     1.3842980     0.7658560
  H       -2.9675220    -2.0774950     1.9434440
  H       -4.6536710    -0.1926670    -1.5394220
  H        5.0734453    -1.3252321    -1.0159856
  H        5.4219950    -0.3393960     0.3861000
  H        4.7833880    -1.9677830     0.6515600
  H       -4.8424050    -1.8242580     0.3291710
units angstrom
no_reorient  #important for SAPT in psi4, default
symmetry c1  #important for SAPT in psi4, default
}

set PROPERTIES_ORIGIN ["COM"]
properties('MP2/aug-cc-pvtz', properties = ['dipole'])
--------------------------------------------------------------------------

    Molecular point group: c1
  Charge       = 0
  Multiplicity = 1
  Basis Set: AUG-CC-PVTZ
    Blend: AUG-CC-PVTZ
  Basis Set: (AUG-CC-PVTZ AUX)
    Blend: AUG-CC-PVTZ-JKFIT

    Orbital Energies [Eh]
    ---------------------

    Doubly Occupied:

       1A    -15.572691     2A    -15.548846     3A    -11.308404
       4A    -11.275298     5A    -11.265237     6A    -11.250069
       7A    -11.245105     8A    -11.241987     9A    -11.241764
      10A    -11.238046    11A    -11.237647    12A    -11.236780
      13A    -11.229939    14A    -11.228805    15A    -11.225233
      16A     -1.290036    17A     -1.217269    18A     -1.142203
      19A     -1.089977    20A     -1.037992    21A     -1.018629
      22A     -1.008776    23A     -0.949388    24A     -0.907250
      25A     -0.846886    26A     -0.838991    27A     -0.829033
      28A     -0.785322    29A     -0.724442    30A     -0.685323
      31A     -0.674078    32A     -0.648172    33A     -0.637692
      34A     -0.622551    35A     -0.609412    36A     -0.593975
      37A     -0.588175    38A     -0.585544    39A     -0.580728
      40A     -0.561324    41A     -0.537868    42A     -0.533803
      43A     -0.524296    44A     -0.514578    45A     -0.507750
      46A     -0.500010    47A     -0.498639    48A     -0.418181
      49A     -0.409885    50A     -0.373573    51A     -0.342804
      52A     -0.338921    53A     -0.286459

  @DF-RHF Final Energy:  -609.53313646431650

   => Energetics <=

    Nuclear Repulsion Energy =            919.6710619429310327
    One-Electron Energy =               -2651.1968235408353394
    Two-Electron Energy =                1121.9926251335878078
    Total Energy =                       -609.5331364643166125
  Basis Set: (AUG-CC-PVTZ AUX)
    Blend: AUG-CC-PVTZ-RI
    Molecular point group: c1

    Geometry (in Angstrom), charge = 0, multiplicity = 1:

       Center              X                  Y                   Z               Mass
    ------------   -----------------  -----------------  -----------------  -----------------
         N           -0.450368222145     1.138694649695    -0.217454574895    14.003074004430
         N            1.808577777855     1.278113649695     0.352649425105    14.003074004430
         C           -1.604709222145     0.312386649695    -0.066255574895    12.000000000000
         C            0.804387777855     0.532341649695    -0.135761574895    12.000000000000
         C           -0.575861222145     2.488797649695     0.333615425105    12.000000000000
         C            1.006430777855    -0.775923350305    -0.627428574895    12.000000000000
         C            3.350214777855    -0.551280350305    -0.067583574895    12.000000000000
         C           -1.714922222145    -0.600527350305     0.992642425105    12.000000000000
         C           -2.660091222145     0.452756649695    -0.974852574895    12.000000000000
         C            2.283417777855    -1.309031350305    -0.578868574895    12.000000000000
         C            3.041412777855     0.734228649695     0.370399425105    12.000000000000
         C           -2.867642222145    -1.374901350305     1.126260425105    12.000000000000
         C           -3.818430222145    -0.311170350305    -0.825129574895    12.000000000000
         C           -3.924068222145    -1.228818350305     0.222861425105    12.000000000000
         C            4.749425777855    -1.097473350305     0.001181425105    12.000000000000
         H            0.179482777855    -1.342202350305    -1.044761574895     1.007825032230
         H           -0.441180222145     2.506437649695     1.423234425105     1.007825032230
         H           -1.574054222145     2.854409649695     0.086007425105     1.007825032230
         H            0.178467777855     3.135133649695    -0.114658574895     1.007825032230
         H           -0.894690222145    -0.699607350305     1.700360425105     1.007825032230
         H           -2.552573222145     1.154518649695    -1.798788574895     1.007825032230
         H            2.461420777855    -2.316284350305    -0.954161574895     1.007825032230
         H            3.825697777855     1.378482649695     0.770042425105     1.007825032230
         H           -2.948169222145    -2.083310350305     1.947630425105     1.007825032230
         H           -4.634318222145    -0.198482350305    -1.535235574895     1.007825032230
         H            5.092798077855    -1.331047450305    -1.011799174895     1.007825032230
         H            5.441347777855    -0.345211350305     0.390286425105     1.007825032230
         H            4.802740777855    -1.973598350305     0.655746425105     1.007825032230
         H           -4.823052222145    -1.830073350305     0.333357425105     1.007825032230

  Basis Set: AUG-CC-PVTZ
    Blend: AUG-CC-PVTZ
  Basis Set: (AUG-CC-PVTZ AUX)
    Blend: AUG-CC-PVTZ-JKFIT
	 Reference Energy          =    -609.5331364643164989 [Eh]
	 Singles Energy            =      -0.0000000000000000 [Eh]
	 Same-Spin Energy          =      -0.6811852868771394 [Eh]
	 Opposite-Spin Energy      =      -2.1308484814115247 [Eh]
	 Correlation Energy        =      -2.8120337682886642 [Eh]
	 Total Energy              =    -612.3451702326051418 [Eh]

	 ================> DF-SCS-MP2 Energies <==================
	-----------------------------------------------------------
	 SCS Same-Spin Scale       =       0.3333333333333333 [-]
	 SCS Opposite-Spin Scale   =       1.2000000000000000 [-]
	 SCS Same-Spin Energy      =      -0.2270617622923798 [Eh]
	 SCS Opposite-Spin Energy  =      -2.5570181776938297 [Eh]
	 SCS Correlation Energy    =      -2.7840799399862095 [Eh]
	 SCS Total Energy          =    -612.3172164043027124 [Eh]
	-----------------------------------------------------------

  Dipole Moment: [D]
     X:    -0.4802      Y:    -1.4417      Z:    -0.1681     Total:     1.5289

*** Psi4 exiting successfully. Buy a developer a beer!
