                               Psi4 1.4a3.dev225

  ==> Input File <==

--------------------------------------------------------------------------
#psi4
#
memory 32 gb

molecule  {
0 1
  N       -0.4697210     1.1445100    -0.2216410
  N        1.7892250     1.2839290     0.3484630
  C       -1.6240620     0.3182020    -0.0704420
  C        0.7850350     0.5381570    -0.1399480
  C       -0.5952140     2.4946130     0.3294290
  C        0.9870780    -0.7701080    -0.6316150
  C        3.3308620    -0.5454650    -0.0717700
  C       -1.7342750    -0.5947120     0.9884560
  C       -2.6794440     0.4585720    -0.9790390
  C        2.2640650    -1.3032160    -0.5830550
  C        3.0220600     0.7400440     0.3662130
  C       -2.8869950    -1.3690860     1.1220740
  C       -3.8377830    -0.3053550    -0.8293160
  C       -3.9434210    -1.2230030     0.2186750
  C        4.7300730    -1.0916580    -0.0030050
  H        0.1601300    -1.3363870    -1.0489480
  H       -0.4605330     2.5122530     1.4190480
  H       -1.5934070     2.8602250     0.0818210
  H        0.1591150     3.1409490    -0.1188450
  H       -0.9140430    -0.6937920     1.6961740
  H       -2.5719260     1.1603340    -1.8029750
  H        2.4420680    -2.3104690    -0.9583480
  H        3.8063450     1.3842980     0.7658560
  H       -2.9675220    -2.0774950     1.9434440
  H       -4.6536710    -0.1926670    -1.5394220
  H        5.0535448    -1.3689190    -0.9019616
  H        5.4219950    -0.3393960     0.3861000
  H        4.7833880    -1.9677830     0.6515600
  H       -4.8424050    -1.8242580     0.3291710
units angstrom
no_reorient  #important for SAPT in psi4, default
symmetry c1  #important for SAPT in psi4, default
}

set PROPERTIES_ORIGIN ["COM"]
properties('MP2/aug-cc-pvtz', properties = ['dipole'])
--------------------------------------------------------------------------

    Molecular point group: c1
  Charge       = 0
  Multiplicity = 1
  Basis Set: AUG-CC-PVTZ
    Blend: AUG-CC-PVTZ
  Basis Set: (AUG-CC-PVTZ AUX)
    Blend: AUG-CC-PVTZ-JKFIT

    Orbital Energies [Eh]
    ---------------------

    Doubly Occupied:

       1A    -15.572542     2A    -15.548718     3A    -11.308230
       4A    -11.275202     5A    -11.265039     6A    -11.250028
       7A    -11.244993     8A    -11.241903     9A    -11.241683
      10A    -11.237963    11A    -11.237550    12A    -11.236691
      13A    -11.229718    14A    -11.228650    15A    -11.212814
      16A     -1.289892    17A     -1.217129    18A     -1.142121
      19A     -1.090803    20A     -1.038921    21A     -1.018585
      22A     -1.009102    23A     -0.954536    24A     -0.909902
      25A     -0.846970    26A     -0.840072    27A     -0.829605
      28A     -0.785910    29A     -0.724418    30A     -0.685478
      31A     -0.674291    32A     -0.648145    33A     -0.639380
      34A     -0.622537    35A     -0.610261    36A     -0.593784
      37A     -0.590235    38A     -0.587510    39A     -0.582656
      40A     -0.561491    41A     -0.547245    42A     -0.534179
      43A     -0.524185    44A     -0.514272    45A     -0.507499
      46A     -0.499905    47A     -0.498534    48A     -0.418083
      49A     -0.410277    50A     -0.373523    51A     -0.342750
      52A     -0.338842    53A     -0.286433

  @DF-RHF Final Energy:  -609.52768690318635

   => Energetics <=

    Nuclear Repulsion Energy =            920.0805750420199729
    One-Electron Energy =               -2651.9741519614681238
    Two-Electron Energy =                1122.3658900162618011
    Total Energy =                       -609.5276869031863498
  Basis Set: (AUG-CC-PVTZ AUX)
    Blend: AUG-CC-PVTZ-RI
    Molecular point group: c1

    Geometry (in Angstrom), charge = 0, multiplicity = 1:

       Center              X                  Y                   Z               Mass
    ------------   -----------------  -----------------  -----------------  -----------------
         N           -0.450266987249     1.138916887265    -0.218034621011    14.003074004430
         N            1.808679012751     1.278335887265     0.352069378989    14.003074004430
         C           -1.604607987249     0.312608887265    -0.066835621011    12.000000000000
         C            0.804489012751     0.532563887265    -0.136341621011    12.000000000000
         C           -0.575759987249     2.489019887265     0.333035378989    12.000000000000
         C            1.006532012751    -0.775701112735    -0.628008621011    12.000000000000
         C            3.350316012751    -0.551058112735    -0.068163621011    12.000000000000
         C           -1.714820987249    -0.600305112735     0.992062378989    12.000000000000
         C           -2.659989987249     0.452978887265    -0.975432621011    12.000000000000
         C            2.283519012751    -1.308809112735    -0.579448621011    12.000000000000
         C            3.041514012751     0.734450887265     0.369819378989    12.000000000000
         C           -2.867540987249    -1.374679112735     1.125680378989    12.000000000000
         C           -3.818328987249    -0.310948112735    -0.825709621011    12.000000000000
         C           -3.923966987249    -1.228596112735     0.222281378989    12.000000000000
         C            4.749527012751    -1.097251112735     0.000601378989    12.000000000000
         H            0.179584012751    -1.341980112735    -1.045341621011     1.007825032230
         H           -0.441078987249     2.506659887265     1.422654378989     1.007825032230
         H           -1.573952987249     2.854631887265     0.085427378989     1.007825032230
         H            0.178569012751     3.135355887265    -0.115238621011     1.007825032230
         H           -0.894588987249    -0.699385112735     1.699780378989     1.007825032230
         H           -2.552471987249     1.154740887265    -1.799368621011     1.007825032230
         H            2.461522012751    -2.316062112735    -0.954741621011     1.007825032230
         H            3.825799012751     1.378704887265     0.769462378989     1.007825032230
         H           -2.948067987249    -2.083088112735     1.947050378989     1.007825032230
         H           -4.634216987249    -0.198260112735    -1.535815621011     1.007825032230
         H            5.072998812751    -1.374512112735    -0.898355221011     1.007825032230
         H            5.441449012751    -0.344989112735     0.389706378989     1.007825032230
         H            4.802842012751    -1.973376112735     0.655166378989     1.007825032230
         H           -4.822950987249    -1.829851112735     0.332777378989     1.007825032230

  Basis Set: AUG-CC-PVTZ
    Blend: AUG-CC-PVTZ
  Basis Set: (AUG-CC-PVTZ AUX)
    Blend: AUG-CC-PVTZ-JKFIT
	 Reference Energy          =    -609.5276869031863498 [Eh]
	 Singles Energy            =      -0.0000000000000000 [Eh]
	 Same-Spin Energy          =      -0.6811888262199164 [Eh]
	 Opposite-Spin Energy      =      -2.1303059064457788 [Eh]
	 Correlation Energy        =      -2.8114947326656949 [Eh]
	 Total Energy              =    -612.3391816358520146 [Eh]

	 ================> DF-SCS-MP2 Energies <==================
	-----------------------------------------------------------
	 SCS Same-Spin Scale       =       0.3333333333333333 [-]
	 SCS Opposite-Spin Scale   =       1.2000000000000000 [-]
	 SCS Same-Spin Energy      =      -0.2270629420733055 [Eh]
	 SCS Opposite-Spin Energy  =      -2.5563670877349343 [Eh]
	 SCS Correlation Energy    =      -2.7834300298082395 [Eh]
	 SCS Total Energy          =    -612.3111169329945369 [Eh]
	-----------------------------------------------------------

  Dipole Moment: [D]
     X:    -0.4486      Y:    -1.4842      Z:    -0.1940     Total:     1.5626

*** Psi4 exiting successfully. Buy a developer a beer!
