                               Psi4 1.4a3.dev225

  ==> Input File <==

--------------------------------------------------------------------------
#psi4
#
memory 32 gb

molecule  {
0 1
  N       -0.4697210     1.1445100    -0.2216410
  N        1.7892250     1.2839290     0.3484630
  C       -1.6240620     0.3182020    -0.0704420
  C        0.7850350     0.5381570    -0.1399480
  C       -0.5952140     2.4946130     0.3294290
  C        0.9870780    -0.7701080    -0.6316150
  C        3.3308620    -0.5454650    -0.0717700
  C       -1.7342750    -0.5947120     0.9884560
  C       -2.6892488     0.4692100    -0.9986350
  C        2.2640650    -1.3032160    -0.5830550
  C        3.0220600     0.7400440     0.3662130
  C       -2.8869950    -1.3690860     1.1220740
  C       -3.8377830    -0.3053550    -0.8293160
  C       -3.9434210    -1.2230030     0.2186750
  C        4.7300730    -1.0916580    -0.0030050
  H        0.1601300    -1.3363870    -1.0489480
  H       -0.4605330     2.5122530     1.4190480
  H       -1.5934070     2.8602250     0.0818210
  H        0.1591150     3.1409490    -0.1188450
  H       -0.9140430    -0.6937920     1.6961740
  H       -2.5719260     1.1603340    -1.8029750
  H        2.4420680    -2.3104690    -0.9583480
  H        3.8063450     1.3842980     0.7658560
  H       -2.9675220    -2.0774950     1.9434440
  H       -4.6536710    -0.1926670    -1.5394220
  H        5.0860610    -1.3967900    -0.9923270
  H        5.4219950    -0.3393960     0.3861000
  H        4.7833880    -1.9677830     0.6515600
  H       -4.8424050    -1.8242580     0.3291710
units angstrom
no_reorient  #important for SAPT in psi4, default
symmetry c1  #important for SAPT in psi4, default
}

set PROPERTIES_ORIGIN ["COM"]
properties('MP2/aug-cc-pvtz', properties = ['dipole'])
--------------------------------------------------------------------------

    Molecular point group: c1
  Charge       = 0
  Multiplicity = 1
  Basis Set: AUG-CC-PVTZ
    Blend: AUG-CC-PVTZ
  Basis Set: (AUG-CC-PVTZ AUX)
    Blend: AUG-CC-PVTZ-JKFIT

    Orbital Energies [Eh]
    ---------------------

    Doubly Occupied:

       1A    -15.572873     2A    -15.549008     3A    -11.308585
       4A    -11.277803     5A    -11.265554     6A    -11.250230
       7A    -11.245275     8A    -11.242480     9A    -11.242047
      10A    -11.238026    11A    -11.237584    12A    -11.237447
      13A    -11.230385    14A    -11.228878    15A    -11.225177
      16A     -1.290047    17A     -1.217011    18A     -1.140777
      19A     -1.089910    20A     -1.037787    21A     -1.019292
      22A     -1.006986    23A     -0.949392    24A     -0.907549
      25A     -0.846967    26A     -0.838084    27A     -0.830685
      28A     -0.784913    29A     -0.723852    30A     -0.687303
      31A     -0.674395    32A     -0.648322    33A     -0.638384
      34A     -0.622189    35A     -0.609501    36A     -0.594456
      37A     -0.589263    38A     -0.583515    39A     -0.576729
      40A     -0.561446    41A     -0.543274    42A     -0.534352
      43A     -0.523370    44A     -0.515606    45A     -0.508832
      46A     -0.499207    47A     -0.497375    48A     -0.417789
      49A     -0.410282    50A     -0.373620    51A     -0.343526
      52A     -0.337184    53A     -0.286141

  @DF-RHF Final Energy:  -609.53260852785797

   => Energetics <=

    Nuclear Repulsion Energy =            919.1323503011885805
    One-Electron Energy =               -2650.1085848206043920
    Two-Electron Energy =                1121.4436259915578376
    Total Energy =                       -609.5326085278579740
  Basis Set: (AUG-CC-PVTZ AUX)
    Blend: AUG-CC-PVTZ-RI
    Molecular point group: c1

    Geometry (in Angstrom), charge = 0, multiplicity = 1:

       Center              X                  Y                   Z               Mass
    ------------   -----------------  -----------------  -----------------  -----------------
         N           -0.449838515602     1.138414317760    -0.216387984653    14.003074004430
         N            1.809107484398     1.277833317760     0.353716015347    14.003074004430
         C           -1.604179515602     0.312106317760    -0.065188984653    12.000000000000
         C            0.804917484398     0.532061317760    -0.134694984653    12.000000000000
         C           -0.575331515602     2.488517317760     0.334682015347    12.000000000000
         C            1.006960484398    -0.776203682240    -0.626361984653    12.000000000000
         C            3.350744484398    -0.551560682240    -0.066516984653    12.000000000000
         C           -1.714392515602    -0.600807682240     0.993709015347    12.000000000000
         C           -2.669366315602     0.463114317760    -0.993381984653    12.000000000000
         C            2.283947484398    -1.309311682240    -0.577801984653    12.000000000000
         C            3.041942484398     0.733948317760     0.371466015347    12.000000000000
         C           -2.867112515602    -1.375181682240     1.127327015347    12.000000000000
         C           -3.817900515602    -0.311450682240    -0.824062984653    12.000000000000
         C           -3.923538515602    -1.229098682240     0.223928015347    12.000000000000
         C            4.749955484398    -1.097753682240     0.002248015347    12.000000000000
         H            0.180012484398    -1.342482682240    -1.043694984653     1.007825032230
         H           -0.440650515602     2.506157317760     1.424301015347     1.007825032230
         H           -1.573524515602     2.854129317760     0.087074015347     1.007825032230
         H            0.178997484398     3.134853317760    -0.113591984653     1.007825032230
         H           -0.894160515602    -0.699887682240     1.701427015347     1.007825032230
         H           -2.552043515602     1.154238317760    -1.797721984653     1.007825032230
         H            2.461950484398    -2.316564682240    -0.953094984653     1.007825032230
         H            3.826227484398     1.378202317760     0.771109015347     1.007825032230
         H           -2.947639515602    -2.083590682240     1.948697015347     1.007825032230
         H           -4.633788515602    -0.198762682240    -1.534168984653     1.007825032230
         H            5.105943484398    -1.402885682240    -0.987073984653     1.007825032230
         H            5.441877484398    -0.345491682240     0.391353015347     1.007825032230
         H            4.803270484398    -1.973878682240     0.656813015347     1.007825032230
         H           -4.822522515602    -1.830353682240     0.334424015347     1.007825032230

  Basis Set: AUG-CC-PVTZ
    Blend: AUG-CC-PVTZ
  Basis Set: (AUG-CC-PVTZ AUX)
    Blend: AUG-CC-PVTZ-JKFIT
	 Reference Energy          =    -609.5326085278579740 [Eh]
	 Singles Energy            =      -0.0000000000000000 [Eh]
	 Same-Spin Energy          =      -0.6811549613105513 [Eh]
	 Opposite-Spin Energy      =      -2.1309184631963687 [Eh]
	 Correlation Energy        =      -2.8120734245069201 [Eh]
	 Total Energy              =    -612.3446819523649083 [Eh]

	 ================> DF-SCS-MP2 Energies <==================
	-----------------------------------------------------------
	 SCS Same-Spin Scale       =       0.3333333333333333 [-]
	 SCS Opposite-Spin Scale   =       1.2000000000000000 [-]
	 SCS Same-Spin Energy      =      -0.2270516537701838 [Eh]
	 SCS Opposite-Spin Energy  =      -2.5571021558356422 [Eh]
	 SCS Correlation Energy    =      -2.7841538096058258 [Eh]
	 SCS Total Energy          =    -612.3167623374638424 [Eh]
	-----------------------------------------------------------

  Dipole Moment: [D]
     X:    -0.4818      Y:    -1.4561      Z:    -0.1676     Total:     1.5428

*** Psi4 exiting successfully. Buy a developer a beer!
