                               Psi4 1.4a3.dev225

  ==> Input File <==

--------------------------------------------------------------------------
#psi4
#
memory 32 gb

molecule  {
0 1
  N       -0.4697210     1.1445100    -0.2216410
  N        1.7892250     1.2839290     0.3484630
  C       -1.6240620     0.3182020    -0.0704420
  C        0.7850350     0.5381570    -0.1399480
  C       -0.5952140     2.4946130     0.3294290
  C        0.9870780    -0.7701080    -0.6316150
  C        3.3308620    -0.5454650    -0.0717700
  C       -1.7342750    -0.5947120     0.9884560
  C       -2.6437814     0.4137263    -0.9002590
  C        2.2640650    -1.3032160    -0.5830550
  C        3.0220600     0.7400440     0.3662130
  C       -2.8869950    -1.3690860     1.1220740
  C       -3.8377830    -0.3053550    -0.8293160
  C       -3.9434210    -1.2230030     0.2186750
  C        4.7300730    -1.0916580    -0.0030050
  H        0.1601300    -1.3363870    -1.0489480
  H       -0.4605330     2.5122530     1.4190480
  H       -1.5934070     2.8602250     0.0818210
  H        0.1591150     3.1409490    -0.1188450
  H       -0.9140430    -0.6937920     1.6961740
  H       -2.5719260     1.1603340    -1.8029750
  H        2.4420680    -2.3104690    -0.9583480
  H        3.8063450     1.3842980     0.7658560
  H       -2.9675220    -2.0774950     1.9434440
  H       -4.6536710    -0.1926670    -1.5394220
  H        5.0860610    -1.3967900    -0.9923270
  H        5.4219950    -0.3393960     0.3861000
  H        4.7833880    -1.9677830     0.6515600
  H       -4.8424050    -1.8242580     0.3291710
units angstrom
no_reorient  #important for SAPT in psi4, default
symmetry c1  #important for SAPT in psi4, default
}

set PROPERTIES_ORIGIN ["COM"]
properties('MP2/aug-cc-pvtz', properties = ['dipole'])
--------------------------------------------------------------------------

    Molecular point group: c1
  Charge       = 0
  Multiplicity = 1
  Basis Set: AUG-CC-PVTZ
    Blend: AUG-CC-PVTZ
  Basis Set: (AUG-CC-PVTZ AUX)
    Blend: AUG-CC-PVTZ-JKFIT

    Orbital Energies [Eh]
    ---------------------

    Doubly Occupied:

       1A    -15.572868     2A    -15.549108     3A    -11.308830
       4A    -11.265760     5A    -11.265396     6A    -11.250494
       7A    -11.244913     8A    -11.241933     9A    -11.240559
      10A    -11.238832    11A    -11.238397    12A    -11.234771
      13A    -11.230484    14A    -11.229148    15A    -11.225245
      16A     -1.290915    17A     -1.219533    18A     -1.149390
      19A     -1.090132    20A     -1.039303    21A     -1.017799
      22A     -1.015795    23A     -0.949418    24A     -0.907693
      25A     -0.847467    26A     -0.844362    27A     -0.824749
      28A     -0.787591    29A     -0.727535    30A     -0.680820
      31A     -0.674604    32A     -0.651741    33A     -0.636536
      34A     -0.624661    35A     -0.610779    36A     -0.593243
      37A     -0.587845    38A     -0.578863    39A     -0.575123
      40A     -0.562299    41A     -0.543326    42A     -0.534163
      43A     -0.523648    44A     -0.516312    45A     -0.510105
      46A     -0.504401    47A     -0.485339    48A     -0.418888
      49A     -0.410563    50A     -0.373839    51A     -0.347760
      52A     -0.339836    53A     -0.287978

  @DF-RHF Final Energy:  -609.52231527145113

   => Energetics <=

    Nuclear Repulsion Energy =            921.5310877152267039
    One-Electron Energy =               -2654.8646262704965011
    Two-Electron Energy =                1123.8112232838186628
    Total Energy =                       -609.5223152714511343
  Basis Set: (AUG-CC-PVTZ AUX)
    Blend: AUG-CC-PVTZ-RI
    Molecular point group: c1

    Geometry (in Angstrom), charge = 0, multiplicity = 1:

       Center              X                  Y                   Z               Mass
    ------------   -----------------  -----------------  -----------------  -----------------
         N           -0.452592506347     1.141775002477    -0.222346684590    14.003074004430
         N            1.806353493653     1.281194002477     0.347757315410    14.003074004430
         C           -1.606933506347     0.315467002477    -0.071147684590    12.000000000000
         C            0.802163493653     0.535422002477    -0.140653684590    12.000000000000
         C           -0.578085506347     2.491878002477     0.328723315410    12.000000000000
         C            1.004206493653    -0.772842997523    -0.632320684590    12.000000000000
         C            3.347990493653    -0.548199997523    -0.072475684590    12.000000000000
         C           -1.717146506347    -0.597446997523     0.987750315410    12.000000000000
         C           -2.626652906347     0.410991302477    -0.900964684590    12.000000000000
         C            2.281193493653    -1.305950997523    -0.583760684590    12.000000000000
         C            3.039188493653     0.737309002477     0.365507315410    12.000000000000
         C           -2.869866506347    -1.371820997523     1.121368315410    12.000000000000
         C           -3.820654506347    -0.308089997523    -0.830021684590    12.000000000000
         C           -3.926292506347    -1.225737997523     0.217969315410    12.000000000000
         C            4.747201493653    -1.094392997523    -0.003710684590    12.000000000000
         H            0.177258493653    -1.339121997523    -1.049653684590     1.007825032230
         H           -0.443404506347     2.509518002477     1.418342315410     1.007825032230
         H           -1.576278506347     2.857490002477     0.081115315410     1.007825032230
         H            0.176243493653     3.138214002477    -0.119550684590     1.007825032230
         H           -0.896914506347    -0.696526997523     1.695468315410     1.007825032230
         H           -2.554797506347     1.157599002477    -1.803680684590     1.007825032230
         H            2.459196493653    -2.313203997523    -0.959053684590     1.007825032230
         H            3.823473493653     1.381563002477     0.765150315410     1.007825032230
         H           -2.950393506347    -2.080229997523     1.942738315410     1.007825032230
         H           -4.636542506347    -0.195401997523    -1.540127684590     1.007825032230
         H            5.103189493653    -1.399524997523    -0.993032684590     1.007825032230
         H            5.439123493653    -0.342130997523     0.385394315410     1.007825032230
         H            4.800516493653    -1.970517997523     0.650854315410     1.007825032230
         H           -4.825276506347    -1.826992997523     0.328465315410     1.007825032230

  Basis Set: AUG-CC-PVTZ
    Blend: AUG-CC-PVTZ
  Basis Set: (AUG-CC-PVTZ AUX)
    Blend: AUG-CC-PVTZ-JKFIT
	 Reference Energy          =    -609.5223152714511343 [Eh]
	 Singles Energy            =      -0.0000000000000000 [Eh]
	 Same-Spin Energy          =      -0.6812021284967948 [Eh]
	 Opposite-Spin Energy      =      -2.1308731561455287 [Eh]
	 Correlation Energy        =      -2.8120752846423236 [Eh]
	 Total Energy              =    -612.3343905560934672 [Eh]

	 ================> DF-SCS-MP2 Energies <==================
	-----------------------------------------------------------
	 SCS Same-Spin Scale       =       0.3333333333333333 [-]
	 SCS Opposite-Spin Scale   =       1.2000000000000000 [-]
	 SCS Same-Spin Energy      =      -0.2270673761655983 [Eh]
	 SCS Opposite-Spin Energy  =      -2.5570477873746342 [Eh]
	 SCS Correlation Energy    =      -2.7841151635402324 [Eh]
	 SCS Total Energy          =    -612.3064304349913982 [Eh]
	-----------------------------------------------------------

  Dipole Moment: [D]
     X:    -0.5417      Y:    -1.5086      Z:    -0.1443     Total:     1.6094

*** Psi4 exiting successfully. Buy a developer a beer!
