                               Psi4 1.4a3.dev225

  ==> Input File <==

--------------------------------------------------------------------------
#psi4
#
memory 32 gb

molecule  {
0 1
  N       -0.4697210     1.1445100    -0.2216410
  N        1.7892250     1.2839290     0.3484630
  C       -1.6240620     0.3182020    -0.0704420
  C        0.7850350     0.5381570    -0.1399480
  C       -0.5952140     2.4946130     0.3294290
  C        0.9870780    -0.7701080    -0.6316150
  C        3.3308620    -0.5454650    -0.0717700
  C       -1.7342750    -0.5947120     0.9884560
  C       -2.6794440     0.4585720    -0.9790390
  C        2.3562895    -1.3417173    -0.5795480
  C        3.0220600     0.7400440     0.3662130
  C       -2.8869950    -1.3690860     1.1220740
  C       -3.8377830    -0.3053550    -0.8293160
  C       -3.9434210    -1.2230030     0.2186750
  C        4.7300730    -1.0916580    -0.0030050
  H        0.1601300    -1.3363870    -1.0489480
  H       -0.4605330     2.5122530     1.4190480
  H       -1.5934070     2.8602250     0.0818210
  H        0.1591150     3.1409490    -0.1188450
  H       -0.9140430    -0.6937920     1.6961740
  H       -2.5719260     1.1603340    -1.8029750
  H        2.4420680    -2.3104690    -0.9583480
  H        3.8063450     1.3842980     0.7658560
  H       -2.9675220    -2.0774950     1.9434440
  H       -4.6536710    -0.1926670    -1.5394220
  H        5.0860610    -1.3967900    -0.9923270
  H        5.4219950    -0.3393960     0.3861000
  H        4.7833880    -1.9677830     0.6515600
  H       -4.8424050    -1.8242580     0.3291710
units angstrom
no_reorient  #important for SAPT in psi4, default
symmetry c1  #important for SAPT in psi4, default
}

set PROPERTIES_ORIGIN ["COM"]
properties('MP2/aug-cc-pvtz', properties = ['dipole'])
--------------------------------------------------------------------------

    Molecular point group: c1
  Charge       = 0
  Multiplicity = 1
  Basis Set: AUG-CC-PVTZ
    Blend: AUG-CC-PVTZ
  Basis Set: (AUG-CC-PVTZ AUX)
    Blend: AUG-CC-PVTZ-JKFIT

    Orbital Energies [Eh]
    ---------------------

    Doubly Occupied:

       1A    -15.569917     2A    -15.553652     3A    -11.305761
       4A    -11.273803     5A    -11.271658     6A    -11.252274
       7A    -11.244328     8A    -11.240647     9A    -11.240448
      10A    -11.236718    11A    -11.236107    12A    -11.235362
      13A    -11.234916    14A    -11.229770    15A    -11.224455
      16A     -1.288916    17A     -1.217666    18A     -1.141135
      19A     -1.094681    20A     -1.028150    21A     -1.016658
      22A     -1.007080    23A     -0.947068    24A     -0.907731
      25A     -0.856081    26A     -0.837282    27A     -0.827948
      28A     -0.785911    29A     -0.725343    30A     -0.684583
      31A     -0.672217    32A     -0.647008    33A     -0.635881
      34A     -0.625768    35A     -0.610625    36A     -0.593527
      37A     -0.589036    38A     -0.585366    39A     -0.578728
      40A     -0.564259    41A     -0.544416    42A     -0.537261
      43A     -0.521566    44A     -0.510715    45A     -0.503149
      46A     -0.498456    47A     -0.492551    48A     -0.419675
      49A     -0.414205    50A     -0.366195    51A     -0.342564
      52A     -0.337557    53A     -0.285768

  @DF-RHF Final Energy:  -609.52006054266769

   => Energetics <=

    Nuclear Repulsion Energy =            918.4594873579669638
    One-Electron Energy =               -2648.7740144368976871
    Two-Electron Energy =                1120.7944665362629166
    Total Energy =                       -609.5200605426678067
  Basis Set: (AUG-CC-PVTZ AUX)
    Blend: AUG-CC-PVTZ-RI
    Molecular point group: c1

    Geometry (in Angstrom), charge = 0, multiplicity = 1:

       Center              X                  Y                   Z               Mass
    ------------   -----------------  -----------------  -----------------  -----------------
         N           -0.456018498357     1.141390717937    -0.217787348773    14.003074004430
         N            1.802927501643     1.280809717937     0.352316651227    14.003074004430
         C           -1.610359498357     0.315082717937    -0.066588348773    12.000000000000
         C            0.798737501643     0.535037717937    -0.136094348773    12.000000000000
         C           -0.581511498357     2.491493717937     0.333282651227    12.000000000000
         C            1.000780501643    -0.773227282063    -0.627761348773    12.000000000000
         C            3.344564501643    -0.548584282063    -0.067916348773    12.000000000000
         C           -1.720572498357    -0.597831282063     0.992309651227    12.000000000000
         C           -2.665741498357     0.455452717937    -0.975185348773    12.000000000000
         C            2.369992001643    -1.344836582063    -0.575694348773    12.000000000000
         C            3.035762501643     0.736924717937     0.370066651227    12.000000000000
         C           -2.873292498357    -1.372205282063     1.125927651227    12.000000000000
         C           -3.824080498357    -0.308474282063    -0.825462348773    12.000000000000
         C           -3.929718498357    -1.226122282063     0.222528651227    12.000000000000
         C            4.743775501643    -1.094777282063     0.000848651227    12.000000000000
         H            0.173832501643    -1.339506282063    -1.045094348773     1.007825032230
         H           -0.446830498357     2.509133717937     1.422901651227     1.007825032230
         H           -1.579704498357     2.857105717937     0.085674651227     1.007825032230
         H            0.172817501643     3.137829717937    -0.114991348773     1.007825032230
         H           -0.900340498357    -0.696911282063     1.700027651227     1.007825032230
         H           -2.558223498357     1.157214717937    -1.799121348773     1.007825032230
         H            2.455770501643    -2.313588282063    -0.954494348773     1.007825032230
         H            3.820047501643     1.381178717937     0.769709651227     1.007825032230
         H           -2.953819498357    -2.080614282063     1.947297651227     1.007825032230
         H           -4.639968498357    -0.195786282063    -1.535568348773     1.007825032230
         H            5.099763501643    -1.399909282063    -0.988473348773     1.007825032230
         H            5.435697501643    -0.342515282063     0.389953651227     1.007825032230
         H            4.797090501643    -1.970902282063     0.655413651227     1.007825032230
         H           -4.828702498357    -1.827377282063     0.333024651227     1.007825032230

  Basis Set: AUG-CC-PVTZ
    Blend: AUG-CC-PVTZ
  Basis Set: (AUG-CC-PVTZ AUX)
    Blend: AUG-CC-PVTZ-JKFIT
	 Reference Energy          =    -609.5200605426676930 [Eh]
	 Singles Energy            =      -0.0000000000000000 [Eh]
	 Same-Spin Energy          =      -0.6818627564555313 [Eh]
	 Opposite-Spin Energy      =      -2.1321907108293585 [Eh]
	 Correlation Energy        =      -2.8140534672848898 [Eh]
	 Total Energy              =    -612.3341140099526001 [Eh]

	 ================> DF-SCS-MP2 Energies <==================
	-----------------------------------------------------------
	 SCS Same-Spin Scale       =       0.3333333333333333 [-]
	 SCS Opposite-Spin Scale   =       1.2000000000000000 [-]
	 SCS Same-Spin Energy      =      -0.2272875854851771 [Eh]
	 SCS Opposite-Spin Energy  =      -2.5586288529952301 [Eh]
	 SCS Correlation Energy    =      -2.7859164384804074 [Eh]
	 SCS Total Energy          =    -612.3059769811480919 [Eh]
	-----------------------------------------------------------

  Dipole Moment: [D]
     X:    -0.3873      Y:    -1.4616      Z:    -0.1602     Total:     1.5205

*** Psi4 exiting successfully. Buy a developer a beer!
