                               Psi4 1.4a3.dev225

  ==> Input File <==

--------------------------------------------------------------------------
#psi4
#
memory 32 gb

molecule  {
0 1
  N       -0.4697210     1.1445100    -0.2216410
  N        1.7892250     1.2839290     0.3484630
  C       -1.6240620     0.3182020    -0.0704420
  C        0.7850350     0.5381570    -0.1399480
  C       -0.5952140     2.4946130     0.3294290
  C        0.9870780    -0.7701080    -0.6316150
  C        3.3308620    -0.5454650    -0.0717700
  C       -1.7342750    -0.5947120     0.9884560
  C       -2.6794440     0.4585720    -0.9790390
  C        2.0796160    -1.2262135    -0.5900690
  C        3.0220600     0.7400440     0.3662130
  C       -2.8869950    -1.3690860     1.1220740
  C       -3.8377830    -0.3053550    -0.8293160
  C       -3.9434210    -1.2230030     0.2186750
  C        4.7300730    -1.0916580    -0.0030050
  H        0.1601300    -1.3363870    -1.0489480
  H       -0.4605330     2.5122530     1.4190480
  H       -1.5934070     2.8602250     0.0818210
  H        0.1591150     3.1409490    -0.1188450
  H       -0.9140430    -0.6937920     1.6961740
  H       -2.5719260     1.1603340    -1.8029750
  H        2.4420680    -2.3104690    -0.9583480
  H        3.8063450     1.3842980     0.7658560
  H       -2.9675220    -2.0774950     1.9434440
  H       -4.6536710    -0.1926670    -1.5394220
  H        5.0860610    -1.3967900    -0.9923270
  H        5.4219950    -0.3393960     0.3861000
  H        4.7833880    -1.9677830     0.6515600
  H       -4.8424050    -1.8242580     0.3291710
units angstrom
no_reorient  #important for SAPT in psi4, default
symmetry c1  #important for SAPT in psi4, default
}

set PROPERTIES_ORIGIN ["COM"]
properties('MP2/aug-cc-pvtz', properties = ['dipole'])
--------------------------------------------------------------------------

    Molecular point group: c1
  Charge       = 0
  Multiplicity = 1
  Basis Set: AUG-CC-PVTZ
    Blend: AUG-CC-PVTZ
  Basis Set: (AUG-CC-PVTZ AUX)
    Blend: AUG-CC-PVTZ-JKFIT

    Orbital Energies [Eh]
    ---------------------

    Doubly Occupied:

       1A    -15.579396     2A    -15.541446     3A    -11.314940
       4A    -11.278795     5A    -11.254588     6A    -11.247344
       7A    -11.245030     8A    -11.244737     9A    -11.241262
      10A    -11.240970    11A    -11.240790    12A    -11.240015
      13A    -11.232493    14A    -11.226429    15A    -11.208751
      16A     -1.294333    17A     -1.219305    18A     -1.145127
      19A     -1.110241    20A     -1.046555    21A     -1.022189
      22A     -1.011462    23A     -0.954171    24A     -0.907545
      25A     -0.843629    26A     -0.833839    27A     -0.821195
      28A     -0.789973    29A     -0.726864    30A     -0.688879
      31A     -0.679649    32A     -0.651772    33A     -0.646763
      34A     -0.624800    35A     -0.604608    36A     -0.594106
      37A     -0.587225    38A     -0.583107    39A     -0.574048
      40A     -0.561840    41A     -0.540960    42A     -0.538803
      43A     -0.530562    44A     -0.513265    45A     -0.504452
      46A     -0.502919    47A     -0.480391    48A     -0.418941
      49A     -0.403326    50A     -0.397377    51A     -0.344758
      52A     -0.340079    53A     -0.284528

  @DF-RHF Final Energy:  -609.47073743451585

   => Energetics <=

    Nuclear Repulsion Energy =            922.4622939513134270
    One-Electron Energy =               -2656.5449247446026675
    Two-Electron Energy =                1124.6118933587733864
    Total Energy =                       -609.4707374345159678
  Basis Set: (AUG-CC-PVTZ AUX)
    Blend: AUG-CC-PVTZ-RI
    Molecular point group: c1

    Geometry (in Angstrom), charge = 0, multiplicity = 1:

       Center              X                  Y                   Z               Mass
    ------------   -----------------  -----------------  -----------------  -----------------
         N           -0.439260199919     1.134394575730    -0.217150084785    14.003074004430
         N            1.819685800081     1.273813575730     0.352953915215    14.003074004430
         C           -1.593601199919     0.308086575730    -0.065951084785    12.000000000000
         C            0.815495800081     0.528041575730    -0.135457084785    12.000000000000
         C           -0.564753199919     2.484497575730     0.333919915215    12.000000000000
         C            1.017538800081    -0.780223424270    -0.627124084785    12.000000000000
         C            3.361322800081    -0.555580424270    -0.067279084785    12.000000000000
         C           -1.703814199919    -0.604827424270     0.992946915215    12.000000000000
         C           -2.648983199919     0.448456575730    -0.974548084785    12.000000000000
         C            2.110076800081    -1.236328924270    -0.585578084785    12.000000000000
         C            3.052520800081     0.729928575730     0.370703915215    12.000000000000
         C           -2.856534199919    -1.379201424270     1.126564915215    12.000000000000
         C           -3.807322199919    -0.315470424270    -0.824825084785    12.000000000000
         C           -3.912960199919    -1.233118424270     0.223165915215    12.000000000000
         C            4.760533800081    -1.101773424270     0.001485915215    12.000000000000
         H            0.190590800081    -1.346502424270    -1.044457084785     1.007825032230
         H           -0.430072199919     2.502137575730     1.423538915215     1.007825032230
         H           -1.562946199919     2.850109575730     0.086311915215     1.007825032230
         H            0.189575800081     3.130833575730    -0.114354084785     1.007825032230
         H           -0.883582199919    -0.703907424270     1.700664915215     1.007825032230
         H           -2.541465199919     1.150218575730    -1.798484084785     1.007825032230
         H            2.472528800081    -2.320584424270    -0.953857084785     1.007825032230
         H            3.836805800081     1.374182575730     0.770346915215     1.007825032230
         H           -2.937061199919    -2.087610424270     1.947934915215     1.007825032230
         H           -4.623210199919    -0.202782424270    -1.534931084785     1.007825032230
         H            5.116521800081    -1.406905424270    -0.987836084785     1.007825032230
         H            5.452455800081    -0.349511424270     0.390590915215     1.007825032230
         H            4.813848800081    -1.977898424270     0.656050915215     1.007825032230
         H           -4.811944199919    -1.834373424270     0.333661915215     1.007825032230

  Basis Set: AUG-CC-PVTZ
    Blend: AUG-CC-PVTZ
  Basis Set: (AUG-CC-PVTZ AUX)
    Blend: AUG-CC-PVTZ-JKFIT
	 Reference Energy          =    -609.4707374345158541 [Eh]
	 Singles Energy            =      -0.0000000000000000 [Eh]
	 Same-Spin Energy          =      -0.6797737156979211 [Eh]
	 Opposite-Spin Energy      =      -2.1311117851676489 [Eh]
	 Correlation Energy        =      -2.8108855008655702 [Eh]
	 Total Energy              =    -612.2816229353813924 [Eh]

	 ================> DF-SCS-MP2 Energies <==================
	-----------------------------------------------------------
	 SCS Same-Spin Scale       =       0.3333333333333333 [-]
	 SCS Opposite-Spin Scale   =       1.2000000000000000 [-]
	 SCS Same-Spin Energy      =      -0.2265912385659737 [Eh]
	 SCS Opposite-Spin Energy  =      -2.5573341422011784 [Eh]
	 SCS Correlation Energy    =      -2.7839253807671520 [Eh]
	 SCS Total Energy          =    -612.2546628152830408 [Eh]
	-----------------------------------------------------------

  Dipole Moment: [D]
     X:    -0.8014      Y:    -1.4134      Z:    -0.1724     Total:     1.6339

*** Psi4 exiting successfully. Buy a developer a beer!
