                               Psi4 1.4a3.dev225

  ==> Input File <==

--------------------------------------------------------------------------
#psi4
#
memory 32 gb

molecule  {
0 1
  N       -0.4697210     1.1445100    -0.2216410
  N        1.7892250     1.2839290     0.3484630
  C       -1.6240620     0.3182020    -0.0704420
  C        0.7850350     0.5381570    -0.1399480
  C       -0.5952140     2.4946130     0.3294290
  C        0.9870780    -0.7701080    -0.6316150
  C        3.3016906    -0.6220193    -0.0061720
  C       -1.7342750    -0.5947120     0.9884560
  C       -2.6794440     0.4585720    -0.9790390
  C        2.2640650    -1.3032160    -0.5830550
  C        3.0220600     0.7400440     0.3662130
  C       -2.8869950    -1.3690860     1.1220740
  C       -3.8377830    -0.3053550    -0.8293160
  C       -3.9434210    -1.2230030     0.2186750
  C        4.7300730    -1.0916580    -0.0030050
  H        0.1601300    -1.3363870    -1.0489480
  H       -0.4605330     2.5122530     1.4190480
  H       -1.5934070     2.8602250     0.0818210
  H        0.1591150     3.1409490    -0.1188450
  H       -0.9140430    -0.6937920     1.6961740
  H       -2.5719260     1.1603340    -1.8029750
  H        2.4420680    -2.3104690    -0.9583480
  H        3.8063450     1.3842980     0.7658560
  H       -2.9675220    -2.0774950     1.9434440
  H       -4.6536710    -0.1926670    -1.5394220
  H        5.0860610    -1.3967900    -0.9923270
  H        5.4219950    -0.3393960     0.3861000
  H        4.7833880    -1.9677830     0.6515600
  H       -4.8424050    -1.8242580     0.3291710
units angstrom
no_reorient  #important for SAPT in psi4, default
symmetry c1  #important for SAPT in psi4, default
}

set PROPERTIES_ORIGIN ["COM"]
properties('MP2/aug-cc-pvtz', properties = ['dipole'])
--------------------------------------------------------------------------

    Molecular point group: c1
  Charge       = 0
  Multiplicity = 1
  Basis Set: AUG-CC-PVTZ
    Blend: AUG-CC-PVTZ
  Basis Set: (AUG-CC-PVTZ AUX)
    Blend: AUG-CC-PVTZ-JKFIT

    Orbital Energies [Eh]
    ---------------------

    Doubly Occupied:

       1A    -15.571990     2A    -15.551829     3A    -11.307752
       4A    -11.274850     5A    -11.273939     6A    -11.245384
       7A    -11.245103     8A    -11.241519     9A    -11.241308
      10A    -11.237584    11A    -11.237156    12A    -11.236319
      13A    -11.232131    14A    -11.226572    15A    -11.225577
      16A     -1.290077    17A     -1.217304    18A     -1.141719
      19A     -1.094069    20A     -1.035045    21A     -1.018079
      22A     -1.008417    23A     -0.949905    24A     -0.904792
      25A     -0.851483    26A     -0.837373    27A     -0.826800
      28A     -0.784284    29A     -0.724287    30A     -0.685232
      31A     -0.674150    32A     -0.647797    33A     -0.638218
      34A     -0.623194    35A     -0.609085    36A     -0.593517
      37A     -0.587478    38A     -0.583742    39A     -0.576567
      40A     -0.559196    41A     -0.540165    42A     -0.533758
      43A     -0.527492    44A     -0.516498    45A     -0.509201
      46A     -0.499679    47A     -0.498817    48A     -0.416623
      49A     -0.409334    50A     -0.376655    51A     -0.342401
      52A     -0.337854    53A     -0.283152

  @DF-RHF Final Energy:  -609.52717488454277

   => Energetics <=

    Nuclear Repulsion Energy =            919.5262641223287119
    One-Electron Energy =               -2650.9019713257289368
    Two-Electron Energy =                1121.8485323188574512
    Total Energy =                       -609.5271748845427737
  Basis Set: (AUG-CC-PVTZ AUX)
    Blend: AUG-CC-PVTZ-RI
    Molecular point group: c1

    Geometry (in Angstrom), charge = 0, multiplicity = 1:

       Center              X                  Y                   Z               Mass
    ------------   -----------------  -----------------  -----------------  -----------------
         N           -0.448665467722     1.143695613529    -0.221548242058    14.003074004430
         N            1.810280532278     1.283114613529     0.348555757942    14.003074004430
         C           -1.603006467722     0.317387613529    -0.070349242058    12.000000000000
         C            0.806090532278     0.537342613529    -0.139855242058    12.000000000000
         C           -0.574158467722     2.493798613529     0.329521757942    12.000000000000
         C            1.008133532278    -0.770922386471    -0.631522242058    12.000000000000
         C            3.322746132278    -0.622833686471    -0.006079242058    12.000000000000
         C           -1.713219467722    -0.595526386471     0.988548757942    12.000000000000
         C           -2.658388467722     0.457757613529    -0.978946242058    12.000000000000
         C            2.285120532278    -1.304030386471    -0.582962242058    12.000000000000
         C            3.043115532278     0.739229613529     0.366305757942    12.000000000000
         C           -2.865939467722    -1.369900386471     1.122166757942    12.000000000000
         C           -3.816727467722    -0.306169386471    -0.829223242058    12.000000000000
         C           -3.922365467722    -1.223817386471     0.218767757942    12.000000000000
         C            4.751128532278    -1.092472386471    -0.002912242058    12.000000000000
         H            0.181185532278    -1.337201386471    -1.048855242058     1.007825032230
         H           -0.439477467722     2.511438613529     1.419140757942     1.007825032230
         H           -1.572351467722     2.859410613529     0.081913757942     1.007825032230
         H            0.180170532278     3.140134613529    -0.118752242058     1.007825032230
         H           -0.892987467722    -0.694606386471     1.696266757942     1.007825032230
         H           -2.550870467722     1.159519613529    -1.802882242058     1.007825032230
         H            2.463123532278    -2.311283386471    -0.958255242058     1.007825032230
         H            3.827400532278     1.383483613529     0.765948757942     1.007825032230
         H           -2.946466467722    -2.078309386471     1.943536757942     1.007825032230
         H           -4.632615467722    -0.193481386471    -1.539329242058     1.007825032230
         H            5.107116532278    -1.397604386471    -0.992234242058     1.007825032230
         H            5.443050532278    -0.340210386471     0.386192757942     1.007825032230
         H            4.804443532278    -1.968597386471     0.651652757942     1.007825032230
         H           -4.821349467722    -1.825072386471     0.329263757942     1.007825032230

  Basis Set: AUG-CC-PVTZ
    Blend: AUG-CC-PVTZ
  Basis Set: (AUG-CC-PVTZ AUX)
    Blend: AUG-CC-PVTZ-JKFIT
	 Reference Energy          =    -609.5271748845427737 [Eh]
	 Singles Energy            =      -0.0000000000000000 [Eh]
	 Same-Spin Energy          =      -0.6816354918027439 [Eh]
	 Opposite-Spin Energy      =      -2.1314777622726817 [Eh]
	 Correlation Energy        =      -2.8131132540754256 [Eh]
	 Total Energy              =    -612.3402881386182344 [Eh]

	 ================> DF-SCS-MP2 Energies <==================
	-----------------------------------------------------------
	 SCS Same-Spin Scale       =       0.3333333333333333 [-]
	 SCS Opposite-Spin Scale   =       1.2000000000000000 [-]
	 SCS Same-Spin Energy      =      -0.2272118306009146 [Eh]
	 SCS Opposite-Spin Energy  =      -2.5577733147272181 [Eh]
	 SCS Correlation Energy    =      -2.7849851453281329 [Eh]
	 SCS Total Energy          =    -612.3121600298709382 [Eh]
	-----------------------------------------------------------

  Dipole Moment: [D]
     X:    -0.4256      Y:    -1.4002      Z:    -0.1665     Total:     1.4729

*** Psi4 exiting successfully. Buy a developer a beer!
