                               Psi4 1.4a3.dev225

  ==> Input File <==

--------------------------------------------------------------------------
#psi4
#
memory 32 gb

molecule  {
0 1
  N       -0.4697210     1.1445100    -0.2216410
  N        1.7892250     1.2839290     0.3484630
  C       -1.6240620     0.3182020    -0.0704420
  C        0.7850350     0.5381570    -0.1399480
  C       -0.5952140     2.4946130     0.3294290
  C        0.9870780    -0.7701080    -0.6316150
  C        3.3308620    -0.5454650    -0.0717700
  C       -1.7342750    -0.5947120     0.9884560
  C       -2.6794440     0.4585720    -0.9790390
  C        2.2640650    -1.3032160    -0.5830550
  C        3.0220600     0.7400440     0.3662130
  C       -2.8390984    -1.3004963     1.0718879
  C       -3.8377830    -0.3053550    -0.8293160
  C       -3.9434210    -1.2230030     0.2186750
  C        4.7300730    -1.0916580    -0.0030050
  H        0.1601300    -1.3363870    -1.0489480
  H       -0.4605330     2.5122530     1.4190480
  H       -1.5934070     2.8602250     0.0818210
  H        0.1591150     3.1409490    -0.1188450
  H       -0.9140430    -0.6937920     1.6961740
  H       -2.5719260     1.1603340    -1.8029750
  H        2.4420680    -2.3104690    -0.9583480
  H        3.8063450     1.3842980     0.7658560
  H       -2.9675220    -2.0774950     1.9434440
  H       -4.6536710    -0.1926670    -1.5394220
  H        5.0860610    -1.3967900    -0.9923270
  H        5.4219950    -0.3393960     0.3861000
  H        4.7833880    -1.9677830     0.6515600
  H       -4.8424050    -1.8242580     0.3291710
units angstrom
no_reorient  #important for SAPT in psi4, default
symmetry c1  #important for SAPT in psi4, default
}

set PROPERTIES_ORIGIN ["COM"]
properties('MP2/aug-cc-pvtz', properties = ['dipole'])
--------------------------------------------------------------------------

    Molecular point group: c1
  Charge       = 0
  Multiplicity = 1
  Basis Set: AUG-CC-PVTZ
    Blend: AUG-CC-PVTZ
  Basis Set: (AUG-CC-PVTZ AUX)
    Blend: AUG-CC-PVTZ-JKFIT

    Orbital Energies [Eh]
    ---------------------

    Doubly Occupied:

       1A    -15.572901     2A    -15.549476     3A    -11.309012
       4A    -11.276140     5A    -11.266079     6A    -11.250806
       7A    -11.245504     8A    -11.241756     9A    -11.239735
      10A    -11.237245    11A    -11.234687    12A    -11.230848
      13A    -11.229482    14A    -11.228306    15A    -11.225487
      16A     -1.290733    17A     -1.218566    18A     -1.151100
      19A     -1.090450    20A     -1.038508    21A     -1.028297
      22A     -1.007040    23A     -0.949784    24A     -0.909256
      25A     -0.847448    26A     -0.840891    27A     -0.823783
      28A     -0.786247    29A     -0.724204    30A     -0.688908
      31A     -0.675048    32A     -0.652180    33A     -0.635917
      34A     -0.621370    35A     -0.607226    36A     -0.591260
      37A     -0.588460    38A     -0.582107    39A     -0.577237
      40A     -0.563276    41A     -0.544064    42A     -0.536019
      43A     -0.524234    44A     -0.519890    45A     -0.510675
      46A     -0.503704    47A     -0.482508    48A     -0.417669
      49A     -0.410570    50A     -0.374300    51A     -0.351144
      52A     -0.337628    53A     -0.286593

  @DF-RHF Final Energy:  -609.52149630033523

   => Energetics <=

    Nuclear Repulsion Energy =            921.6467149714493416
    One-Electron Energy =               -2655.0849093244737560
    Two-Electron Energy =                1123.9166980526890711
    Total Energy =                       -609.5214963003352295
  Basis Set: (AUG-CC-PVTZ AUX)
    Blend: AUG-CC-PVTZ-RI
    Molecular point group: c1

    Geometry (in Angstrom), charge = 0, multiplicity = 1:

       Center              X                  Y                   Z               Mass
    ------------   -----------------  -----------------  -----------------  -----------------
         N           -0.453333527887     1.134904144637    -0.214535121892    14.003074004430
         N            1.805612472113     1.274323144637     0.355568878108    14.003074004430
         C           -1.607674527887     0.308596144637    -0.063336121892    12.000000000000
         C            0.801422472113     0.528551144637    -0.132842121892    12.000000000000
         C           -0.578826527887     2.485007144637     0.336534878108    12.000000000000
         C            1.003465472113    -0.779713855363    -0.624509121892    12.000000000000
         C            3.347249472113    -0.555070855363    -0.064664121892    12.000000000000
         C           -1.717887527887    -0.604317855363     0.995561878108    12.000000000000
         C           -2.663056527887     0.448966144637    -0.971933121892    12.000000000000
         C            2.280452472113    -1.312821855363    -0.575949121892    12.000000000000
         C            3.038447472113     0.730438144637     0.373318878108    12.000000000000
         C           -2.822710927887    -1.310102155363     1.078993778108    12.000000000000
         C           -3.821395527887    -0.314960855363    -0.822210121892    12.000000000000
         C           -3.927033527887    -1.232608855363     0.225780878108    12.000000000000
         C            4.746460472113    -1.101263855363     0.004100878108    12.000000000000
         H            0.176517472113    -1.345992855363    -1.041842121892     1.007825032230
         H           -0.444145527887     2.502647144637     1.426153878108     1.007825032230
         H           -1.577019527887     2.850619144637     0.088926878108     1.007825032230
         H            0.175502472113     3.131343144637    -0.111739121892     1.007825032230
         H           -0.897655527887    -0.703397855363     1.703279878108     1.007825032230
         H           -2.555538527887     1.150728144637    -1.795869121892     1.007825032230
         H            2.458455472113    -2.320074855363    -0.951242121892     1.007825032230
         H            3.822732472113     1.374692144637     0.772961878108     1.007825032230
         H           -2.951134527887    -2.087100855363     1.950549878108     1.007825032230
         H           -4.637283527887    -0.202272855363    -1.532316121892     1.007825032230
         H            5.102448472113    -1.406395855363    -0.985221121892     1.007825032230
         H            5.438382472113    -0.349001855363     0.393205878108     1.007825032230
         H            4.799775472113    -1.977388855363     0.658665878108     1.007825032230
         H           -4.826017527887    -1.833863855363     0.336276878108     1.007825032230

  Basis Set: AUG-CC-PVTZ
    Blend: AUG-CC-PVTZ
  Basis Set: (AUG-CC-PVTZ AUX)
    Blend: AUG-CC-PVTZ-JKFIT
	 Reference Energy          =    -609.5214963003352295 [Eh]
	 Singles Energy            =      -0.0000000000000000 [Eh]
	 Same-Spin Energy          =      -0.6813549128953360 [Eh]
	 Opposite-Spin Energy      =      -2.1310049328508760 [Eh]
	 Correlation Energy        =      -2.8123598457462120 [Eh]
	 Total Energy              =    -612.3338561460814162 [Eh]

	 ================> DF-SCS-MP2 Energies <==================
	-----------------------------------------------------------
	 SCS Same-Spin Scale       =       0.3333333333333333 [-]
	 SCS Opposite-Spin Scale   =       1.2000000000000000 [-]
	 SCS Same-Spin Energy      =      -0.2271183042984453 [Eh]
	 SCS Opposite-Spin Energy  =      -2.5572059194210510 [Eh]
	 SCS Correlation Energy    =      -2.7843242237194965 [Eh]
	 SCS Total Energy          =    -612.3058205240547522 [Eh]
	-----------------------------------------------------------

  Dipole Moment: [D]
     X:    -0.4768      Y:    -1.4139      Z:    -0.2224     Total:     1.5086

*** Psi4 exiting successfully. Buy a developer a beer!
