                               Psi4 1.4a3.dev225

  ==> Input File <==

--------------------------------------------------------------------------
#psi4
#
memory 32 gb

molecule  {
0 1
  N       -0.4697210     1.1445100    -0.2216410
  N        1.7892250     1.2839290     0.3484630
  C       -1.6240620     0.3182020    -0.0704420
  C        0.7850350     0.5381570    -0.1399480
  C       -0.5952140     2.4946130     0.3294290
  C        0.9942318    -0.8164304    -0.6490237
  C        3.3308620    -0.5454650    -0.0717700
  C       -1.7342750    -0.5947120     0.9884560
  C       -2.6794440     0.4585720    -0.9790390
  C        2.2640650    -1.3032160    -0.5830550
  C        3.0220600     0.7400440     0.3662130
  C       -2.8869950    -1.3690860     1.1220740
  C       -3.8377830    -0.3053550    -0.8293160
  C       -3.9434210    -1.2230030     0.2186750
  C        4.7300730    -1.0916580    -0.0030050
  H        0.1601300    -1.3363870    -1.0489480
  H       -0.4605330     2.5122530     1.4190480
  H       -1.5934070     2.8602250     0.0818210
  H        0.1591150     3.1409490    -0.1188450
  H       -0.9140430    -0.6937920     1.6961740
  H       -2.5719260     1.1603340    -1.8029750
  H        2.4420680    -2.3104690    -0.9583480
  H        3.8063450     1.3842980     0.7658560
  H       -2.9675220    -2.0774950     1.9434440
  H       -4.6536710    -0.1926670    -1.5394220
  H        5.0860610    -1.3967900    -0.9923270
  H        5.4219950    -0.3393960     0.3861000
  H        4.7833880    -1.9677830     0.6515600
  H       -4.8424050    -1.8242580     0.3291710
units angstrom
no_reorient  #important for SAPT in psi4, default
symmetry c1  #important for SAPT in psi4, default
}

set PROPERTIES_ORIGIN ["COM"]
properties('MP2/aug-cc-pvtz', properties = ['dipole'])
--------------------------------------------------------------------------

    Molecular point group: c1
  Charge       = 0
  Multiplicity = 1
  Basis Set: AUG-CC-PVTZ
    Blend: AUG-CC-PVTZ
  Basis Set: (AUG-CC-PVTZ AUX)
    Blend: AUG-CC-PVTZ-JKFIT

    Orbital Energies [Eh]
    ---------------------

    Doubly Occupied:

       1A    -15.575620     2A    -15.547730     3A    -11.314642
       4A    -11.276605     5A    -11.264082     6A    -11.246515
       7A    -11.246239     8A    -11.243012     9A    -11.242800
      10A    -11.239182    11A    -11.238879    12A    -11.238055
      13A    -11.230287    14A    -11.228634    15A    -11.224168
      16A     -1.289534    17A     -1.217003    18A     -1.143289
      19A     -1.091132    20A     -1.035642    21A     -1.019708
      22A     -1.009780    23A     -0.949054    24A     -0.907630
      25A     -0.844467    26A     -0.840315    27A     -0.829577
      28A     -0.785189    29A     -0.724481    30A     -0.686088
      31A     -0.672978    32A     -0.649117    33A     -0.642865
      34A     -0.627184    35A     -0.608535    36A     -0.594197
      37A     -0.586793    38A     -0.583724    39A     -0.575893
      40A     -0.561420    41A     -0.541726    42A     -0.532238
      43A     -0.521502    44A     -0.517029    45A     -0.509822
      46A     -0.501304    47A     -0.500387    48A     -0.418382
      49A     -0.407693    50A     -0.377359    51A     -0.343602
      52A     -0.339360    53A     -0.284359

  @DF-RHF Final Energy:  -609.53126699548250

   => Energetics <=

    Nuclear Repulsion Energy =            918.8387563238196662
    One-Electron Energy =               -2649.4864271347296381
    Two-Electron Energy =                1121.1164038154274749
    Total Energy =                       -609.5312669954823832
  Basis Set: (AUG-CC-PVTZ AUX)
    Blend: AUG-CC-PVTZ-RI
    Molecular point group: c1

    Geometry (in Angstrom), charge = 0, multiplicity = 1:

       Center              X                  Y                   Z               Mass
    ------------   -----------------  -----------------  -----------------  -----------------
         N           -0.450865709315     1.141864447181    -0.216520470873    14.003074004430
         N            1.808080290685     1.281283447181     0.353583529127    14.003074004430
         C           -1.605206709315     0.315556447181    -0.065321470873    12.000000000000
         C            0.803890290685     0.535511447181    -0.134827470873    12.000000000000
         C           -0.576358709315     2.491967447181     0.334549529127    12.000000000000
         C            1.013087090685    -0.819075952819    -0.643903170873    12.000000000000
         C            3.349717290685    -0.548110552819    -0.066649470873    12.000000000000
         C           -1.715419709315    -0.597357552819     0.993576529127    12.000000000000
         C           -2.660588709315     0.455926447181    -0.973918470873    12.000000000000
         C            2.282920290685    -1.305861552819    -0.577934470873    12.000000000000
         C            3.040915290685     0.737398447181     0.371333529127    12.000000000000
         C           -2.868139709315    -1.371731552819     1.127194529127    12.000000000000
         C           -3.818927709315    -0.308000552819    -0.824195470873    12.000000000000
         C           -3.924565709315    -1.225648552819     0.223795529127    12.000000000000
         C            4.748928290685    -1.094303552819     0.002115529127    12.000000000000
         H            0.178985290685    -1.339032552819    -1.043827470873     1.007825032230
         H           -0.441677709315     2.509607447181     1.424168529127     1.007825032230
         H           -1.574551709315     2.857579447181     0.086941529127     1.007825032230
         H            0.177970290685     3.138303447181    -0.113724470873     1.007825032230
         H           -0.895187709315    -0.696437552819     1.701294529127     1.007825032230
         H           -2.553070709315     1.157688447181    -1.797854470873     1.007825032230
         H            2.460923290685    -2.313114552819    -0.953227470873     1.007825032230
         H            3.825200290685     1.381652447181     0.770976529127     1.007825032230
         H           -2.948666709315    -2.080140552819     1.948564529127     1.007825032230
         H           -4.634815709315    -0.195312552819    -1.534301470873     1.007825032230
         H            5.104916290685    -1.399435552819    -0.987206470873     1.007825032230
         H            5.440850290685    -0.342041552819     0.391220529127     1.007825032230
         H            4.802243290685    -1.970428552819     0.656680529127     1.007825032230
         H           -4.823549709315    -1.826903552819     0.334291529127     1.007825032230

  Basis Set: AUG-CC-PVTZ
    Blend: AUG-CC-PVTZ
  Basis Set: (AUG-CC-PVTZ AUX)
    Blend: AUG-CC-PVTZ-JKFIT
	 Reference Energy          =    -609.5312669954824969 [Eh]
	 Singles Energy            =      -0.0000000000000000 [Eh]
	 Same-Spin Energy          =      -0.6806714381129064 [Eh]
	 Opposite-Spin Energy      =      -2.1306204898192944 [Eh]
	 Correlation Energy        =      -2.8112919279322011 [Eh]
	 Total Energy              =    -612.3425589234146855 [Eh]

	 ================> DF-SCS-MP2 Energies <==================
	-----------------------------------------------------------
	 SCS Same-Spin Scale       =       0.3333333333333333 [-]
	 SCS Opposite-Spin Scale   =       1.2000000000000000 [-]
	 SCS Same-Spin Energy      =      -0.2268904793709688 [Eh]
	 SCS Opposite-Spin Energy  =      -2.5567445877831534 [Eh]
	 SCS Correlation Energy    =      -2.7836350671541221 [Eh]
	 SCS Total Energy          =    -612.3149020626366337 [Eh]
	-----------------------------------------------------------

  Dipole Moment: [D]
     X:    -0.6382      Y:    -1.4238      Z:    -0.1639     Total:     1.5688

*** Psi4 exiting successfully. Buy a developer a beer!
