                               Psi4 1.4a3.dev225

  ==> Input File <==

--------------------------------------------------------------------------
#psi4
#
memory 32 gb

molecule  {
0 1
  N       -0.4697210     1.1445100    -0.2216410
  N        1.7892250     1.2839290     0.3484630
  C       -1.6240620     0.3182020    -0.0704420
  C        0.7850350     0.5381570    -0.1399480
  C       -0.5952140     2.4946130     0.3294290
  C        0.9870780    -0.7701080    -0.6316150
  C        3.3308620    -0.5454650    -0.0717700
  C       -1.7342750    -0.5947120     0.9884560
  C       -2.6794440     0.4585720    -0.9790390
  C        2.2640650    -1.3032160    -0.5830550
  C        3.0220600     0.7400440     0.3662130
  C       -2.8869950    -1.3690860     1.1220740
  C       -3.7962839    -0.2779862    -0.8346800
  C       -3.9434210    -1.2230030     0.2186750
  C        4.7300730    -1.0916580    -0.0030050
  H        0.1601300    -1.3363870    -1.0489480
  H       -0.4605330     2.5122530     1.4190480
  H       -1.5934070     2.8602250     0.0818210
  H        0.1591150     3.1409490    -0.1188450
  H       -0.9140430    -0.6937920     1.6961740
  H       -2.5719260     1.1603340    -1.8029750
  H        2.4420680    -2.3104690    -0.9583480
  H        3.8063450     1.3842980     0.7658560
  H       -2.9675220    -2.0774950     1.9434440
  H       -4.6536710    -0.1926670    -1.5394220
  H        5.0860610    -1.3967900    -0.9923270
  H        5.4219950    -0.3393960     0.3861000
  H        4.7833880    -1.9677830     0.6515600
  H       -4.8424050    -1.8242580     0.3291710
units angstrom
no_reorient  #important for SAPT in psi4, default
symmetry c1  #important for SAPT in psi4, default
}

set PROPERTIES_ORIGIN ["COM"]
properties('MP2/aug-cc-pvtz', properties = ['dipole'])
--------------------------------------------------------------------------

    Molecular point group: c1
  Charge       = 0
  Multiplicity = 1
  Basis Set: AUG-CC-PVTZ
    Blend: AUG-CC-PVTZ
  Basis Set: (AUG-CC-PVTZ AUX)
    Blend: AUG-CC-PVTZ-JKFIT

    Orbital Energies [Eh]
    ---------------------

    Doubly Occupied:

       1A    -15.573005     2A    -15.549026     3A    -11.308668
       4A    -11.275742     5A    -11.265552     6A    -11.250241
       7A    -11.245487     8A    -11.241892     9A    -11.241082
      10A    -11.239865    11A    -11.236859    12A    -11.231434
      13A    -11.230381    14A    -11.228934    15A    -11.225178
      16A     -1.290322    17A     -1.217758    18A     -1.144618
      19A     -1.089904    20A     -1.038147    21A     -1.024301
      22A     -1.005889    23A     -0.949448    24A     -0.907810
      25A     -0.847001    26A     -0.839972    27A     -0.826757
      28A     -0.786274    29A     -0.723985    30A     -0.686134
      31A     -0.674498    32A     -0.649398    33A     -0.637686
      34A     -0.622244    35A     -0.606967    36A     -0.593068
      37A     -0.589900    38A     -0.583709    39A     -0.576743
      40A     -0.561704    41A     -0.543400    42A     -0.535259
      43A     -0.523480    44A     -0.518243    45A     -0.508530
      46A     -0.500872    47A     -0.492043    48A     -0.417762
      49A     -0.410346    50A     -0.373749    51A     -0.347486
      52A     -0.337601    53A     -0.285768

  @DF-RHF Final Energy:  -609.53057189076594

   => Energetics <=

    Nuclear Repulsion Energy =            920.3202297505850993
    One-Electron Energy =               -2652.4773606861231201
    Two-Electron Energy =                1122.6265590447721934
    Total Energy =                       -609.5305718907659411
  Basis Set: (AUG-CC-PVTZ AUX)
    Blend: AUG-CC-PVTZ-RI
    Molecular point group: c1

    Geometry (in Angstrom), charge = 0, multiplicity = 1:

       Center              X                  Y                   Z               Mass
    ------------   -----------------  -----------------  -----------------  -----------------
         N           -0.452946027045     1.137400922045    -0.217250026386    14.003074004430
         N            1.805999972955     1.276819922045     0.352853973614    14.003074004430
         C           -1.607287027045     0.311092922045    -0.066051026386    12.000000000000
         C            0.801809972955     0.531047922045    -0.135557026386    12.000000000000
         C           -0.578439027045     2.487503922045     0.333819973614    12.000000000000
         C            1.003852972955    -0.777217077955    -0.627224026386    12.000000000000
         C            3.347636972955    -0.552574077955    -0.067379026386    12.000000000000
         C           -1.717500027045    -0.601821077955     0.992846973614    12.000000000000
         C           -2.662669027045     0.451462922045    -0.974648026386    12.000000000000
         C            2.280839972955    -1.310325077955    -0.578664026386    12.000000000000
         C            3.038834972955     0.732934922045     0.370603973614    12.000000000000
         C           -2.870220027045    -1.376195077955     1.126464973614    12.000000000000
         C           -3.779508927045    -0.285095277955    -0.830289026386    12.000000000000
         C           -3.926646027045    -1.230112077955     0.223065973614    12.000000000000
         C            4.746847972955    -1.098767077955     0.001385973614    12.000000000000
         H            0.176904972955    -1.343496077955    -1.044557026386     1.007825032230
         H           -0.443758027045     2.505143922045     1.423438973614     1.007825032230
         H           -1.576632027045     2.853115922045     0.086211973614     1.007825032230
         H            0.175889972955     3.133839922045    -0.114454026386     1.007825032230
         H           -0.897268027045    -0.700901077955     1.700564973614     1.007825032230
         H           -2.555151027045     1.153224922045    -1.798584026386     1.007825032230
         H            2.458842972955    -2.317578077955    -0.953957026386     1.007825032230
         H            3.823119972955     1.377188922045     0.770246973614     1.007825032230
         H           -2.950747027045    -2.084604077955     1.947834973614     1.007825032230
         H           -4.636896027045    -0.199776077955    -1.535031026386     1.007825032230
         H            5.102835972955    -1.403899077955    -0.987936026386     1.007825032230
         H            5.438769972955    -0.346505077955     0.390490973614     1.007825032230
         H            4.800162972955    -1.974892077955     0.655950973614     1.007825032230
         H           -4.825630027045    -1.831367077955     0.333561973614     1.007825032230

  Basis Set: AUG-CC-PVTZ
    Blend: AUG-CC-PVTZ
  Basis Set: (AUG-CC-PVTZ AUX)
    Blend: AUG-CC-PVTZ-JKFIT
	 Reference Energy          =    -609.5305718907659411 [Eh]
	 Singles Energy            =      -0.0000000000000000 [Eh]
	 Same-Spin Energy          =      -0.6811514010693605 [Eh]
	 Opposite-Spin Energy      =      -2.1308005811178732 [Eh]
	 Correlation Energy        =      -2.8119519821872334 [Eh]
	 Total Energy              =    -612.3425238729531657 [Eh]

	 ================> DF-SCS-MP2 Energies <==================
	-----------------------------------------------------------
	 SCS Same-Spin Scale       =       0.3333333333333333 [-]
	 SCS Opposite-Spin Scale   =       1.2000000000000000 [-]
	 SCS Same-Spin Energy      =      -0.2270504670231202 [Eh]
	 SCS Opposite-Spin Energy  =      -2.5569606973414478 [Eh]
	 SCS Correlation Energy    =      -2.7840111643645677 [Eh]
	 SCS Total Energy          =    -612.3145830551304698 [Eh]
	-----------------------------------------------------------

  Dipole Moment: [D]
     X:    -0.4874      Y:    -1.4668      Z:    -0.1552     Total:     1.5535

*** Psi4 exiting successfully. Buy a developer a beer!
