                               Psi4 1.4a3.dev225

  ==> Input File <==

--------------------------------------------------------------------------
#psi4
#
memory 32 gb

molecule  {
0 1
  N       -0.4697210     1.1445100    -0.2216410
  N        1.7892250     1.2839290     0.3484630
  C       -1.6240620     0.3182020    -0.0704420
  C        0.7850350     0.5381570    -0.1399480
  C       -0.5952140     2.4946130     0.3294290
  C        0.9870780    -0.7701080    -0.6316150
  C        3.3308620    -0.5454650    -0.0717700
  C       -1.7342750    -0.5947120     0.9884560
  C       -2.6794440     0.4585720    -0.9790390
  C        2.2640650    -1.3032160    -0.5830550
  C        3.0220600     0.7400440     0.3662130
  C       -2.8869950    -1.3690860     1.1220740
  C       -3.8377830    -0.3053550    -0.8293160
  C       -3.9434210    -1.2230030     0.2186750
  C        4.7300730    -1.0916580    -0.0030050
  H        0.1601300    -1.3363870    -1.0489480
  H       -0.4605330     2.5122530     1.4190480
  H       -1.5934070     2.8602250     0.0818210
  H        0.1591150     3.1409490    -0.1188450
  H       -0.9140430    -0.6937920     1.6961740
  H       -2.5719260     1.1603340    -1.8029750
  H        2.4420680    -2.3104690    -0.9583480
  H        3.8063450     1.3842980     0.7658560
  H       -2.9675220    -2.0774950     1.9434440
  H       -4.6536710    -0.1926670    -1.5394220
  H        5.0860610    -1.3967900    -0.9923270
  H        5.4852626    -0.2706111     0.4216788
  H        4.7833880    -1.9677830     0.6515600
  H       -4.8424050    -1.8242580     0.3291710
units angstrom
no_reorient  #important for SAPT in psi4, default
symmetry c1  #important for SAPT in psi4, default
}

set PROPERTIES_ORIGIN ["COM"]
properties('MP2/aug-cc-pvtz', properties = ['dipole'])
--------------------------------------------------------------------------

    Molecular point group: c1
  Charge       = 0
  Multiplicity = 1
  Basis Set: AUG-CC-PVTZ
    Blend: AUG-CC-PVTZ
  Basis Set: (AUG-CC-PVTZ AUX)
    Blend: AUG-CC-PVTZ-JKFIT

    Orbital Energies [Eh]
    ---------------------

    Doubly Occupied:

       1A    -15.573092     2A    -15.549277     3A    -11.308989
       4A    -11.275558     5A    -11.265871     6A    -11.251131
       7A    -11.245364     8A    -11.242205     9A    -11.241979
      10A    -11.238268    11A    -11.237894    12A    -11.237026
      13A    -11.237019    14A    -11.231300    15A    -11.229353
      16A     -1.290468    17A     -1.217701    18A     -1.142445
      19A     -1.089941    20A     -1.037316    21A     -1.018818
      22A     -1.008723    23A     -0.946063    24A     -0.906132
      25A     -0.846451    26A     -0.838732    27A     -0.829188
      28A     -0.785593    29A     -0.724813    30A     -0.685515
      31A     -0.673351    32A     -0.648401    33A     -0.638299
      34A     -0.622162    35A     -0.609903    36A     -0.594074
      37A     -0.587610    38A     -0.582895    39A     -0.577872
      40A     -0.561963    41A     -0.535406    42A     -0.533037
      43A     -0.523296    44A     -0.511231    45A     -0.505243
      46A     -0.500104    47A     -0.498160    48A     -0.418386
      49A     -0.410662    50A     -0.374143    51A     -0.343059
      52A     -0.339161    53A     -0.286880

  @DF-RHF Final Energy:  -609.52708745237862

   => Energetics <=

    Nuclear Repulsion Energy =            919.1898973883796771
    One-Electron Energy =               -2650.2189213250926514
    Two-Electron Energy =                1121.5019364843342373
    Total Energy =                       -609.5270874523787370
  Basis Set: (AUG-CC-PVTZ AUX)
    Blend: AUG-CC-PVTZ-RI
    Molecular point group: c1

    Geometry (in Angstrom), charge = 0, multiplicity = 1:

       Center              X                  Y                   Z               Mass
    ------------   -----------------  -----------------  -----------------  -----------------
         N           -0.450754244504     1.138708756093    -0.217755918680    14.003074004430
         N            1.808191755496     1.278127756093     0.352348081320    14.003074004430
         C           -1.605095244504     0.312400756093    -0.066556918680    12.000000000000
         C            0.804001755496     0.532355756093    -0.136062918680    12.000000000000
         C           -0.576247244504     2.488811756093     0.333314081320    12.000000000000
         C            1.006044755496    -0.775909243907    -0.627729918680    12.000000000000
         C            3.349828755496    -0.551266243907    -0.067884918680    12.000000000000
         C           -1.715308244504    -0.600513243907     0.992341081320    12.000000000000
         C           -2.660477244504     0.452770756093    -0.975153918680    12.000000000000
         C            2.283031755496    -1.309017243907    -0.579169918680    12.000000000000
         C            3.041026755496     0.734242756093     0.370098081320    12.000000000000
         C           -2.868028244504    -1.374887243907     1.125959081320    12.000000000000
         C           -3.818816244504    -0.311156243907    -0.825430918680    12.000000000000
         C           -3.924454244504    -1.228804243907     0.222560081320    12.000000000000
         C            4.749039755496    -1.097459243907     0.000880081320    12.000000000000
         H            0.179096755496    -1.342188243907    -1.045062918680     1.007825032230
         H           -0.441566244504     2.506451756093     1.422933081320     1.007825032230
         H           -1.574440244504     2.854423756093     0.085706081320     1.007825032230
         H            0.178081755496     3.135147756093    -0.114959918680     1.007825032230
         H           -0.895076244504    -0.699593243907     1.700059081320     1.007825032230
         H           -2.552959244504     1.154532756093    -1.799089918680     1.007825032230
         H            2.461034755496    -2.316270243907    -0.954462918680     1.007825032230
         H            3.825311755496     1.378496756093     0.769741081320     1.007825032230
         H           -2.948555244504    -2.083296243907     1.947329081320     1.007825032230
         H           -4.634704244504    -0.198468243907    -1.535536918680     1.007825032230
         H            5.105027755496    -1.402591243907    -0.988441918680     1.007825032230
         H            5.504229355496    -0.276412343907     0.425563881320     1.007825032230
         H            4.802354755496    -1.973584243907     0.655445081320     1.007825032230
         H           -4.823438244504    -1.830059243907     0.333056081320     1.007825032230

  Basis Set: AUG-CC-PVTZ
    Blend: AUG-CC-PVTZ
  Basis Set: (AUG-CC-PVTZ AUX)
    Blend: AUG-CC-PVTZ-JKFIT
	 Reference Energy          =    -609.5270874523786233 [Eh]
	 Singles Energy            =      -0.0000000000000000 [Eh]
	 Same-Spin Energy          =      -0.6811714480663490 [Eh]
	 Opposite-Spin Energy      =      -2.1315443384248653 [Eh]
	 Correlation Energy        =      -2.8127157864912142 [Eh]
	 Total Energy              =    -612.3398032388698766 [Eh]

	 ================> DF-SCS-MP2 Energies <==================
	-----------------------------------------------------------
	 SCS Same-Spin Scale       =       0.3333333333333333 [-]
	 SCS Opposite-Spin Scale   =       1.2000000000000000 [-]
	 SCS Same-Spin Energy      =      -0.2270571493554497 [Eh]
	 SCS Opposite-Spin Energy  =      -2.5578532061098382 [Eh]
	 SCS Correlation Energy    =      -2.7849103554652879 [Eh]
	 SCS Total Energy          =    -612.3119978078439090 [Eh]
	-----------------------------------------------------------

  Dipole Moment: [D]
     X:    -0.5607      Y:    -1.4830      Z:    -0.1844     Total:     1.5961

*** Psi4 exiting successfully. Buy a developer a beer!
