                               Psi4 1.4a3.dev225

  ==> Input File <==

--------------------------------------------------------------------------
#psi4
#
memory 32 gb

molecule  {
0 1
  N       -0.4697210     1.1445100    -0.2216410
  N        1.7892250     1.2839290     0.3484630
  C       -1.6240620     0.3182020    -0.0704420
  C        0.7850350     0.5381570    -0.1399480
  C       -0.5952140     2.4946130     0.3294290
  C        0.9870780    -0.7701080    -0.6316150
  C        3.3308620    -0.5454650    -0.0717700
  C       -1.7342750    -0.5947120     0.9884560
  C       -2.6794440     0.4585720    -0.9790390
  C        2.2640650    -1.3032160    -0.5830550
  C        3.0220600     0.7400440     0.3662130
  C       -2.8869950    -1.3690860     1.1220740
  C       -3.8377830    -0.3053550    -0.8293160
  C       -3.9434210    -1.2230030     0.2186750
  C        4.7300730    -1.0916580    -0.0030050
  H        0.1601300    -1.3363870    -1.0489480
  H       -0.4605330     2.5122530     1.4190480
  H       -1.5934070     2.8602250     0.0818210
  H        0.1591150     3.1409490    -0.1188450
  H       -0.9140430    -0.6937920     1.6961740
  H       -2.5719260     1.1603340    -1.8029750
  H        2.4420680    -2.3104690    -0.9583480
  H        3.8063450     1.3842980     0.7658560
  H       -2.9675220    -2.0774950     1.9434440
  H       -4.6536710    -0.1926670    -1.5394220
  H        5.0860610    -1.3967900    -0.9923270
  H        5.3903612    -0.3737885     0.3683106
  H        4.7833880    -1.9677830     0.6515600
  H       -4.8424050    -1.8242580     0.3291710
units angstrom
no_reorient  #important for SAPT in psi4, default
symmetry c1  #important for SAPT in psi4, default
}

set PROPERTIES_ORIGIN ["COM"]
properties('MP2/aug-cc-pvtz', properties = ['dipole'])
--------------------------------------------------------------------------

    Molecular point group: c1
  Charge       = 0
  Multiplicity = 1
  Basis Set: AUG-CC-PVTZ
    Blend: AUG-CC-PVTZ
  Basis Set: (AUG-CC-PVTZ AUX)
    Blend: AUG-CC-PVTZ-JKFIT

    Orbital Energies [Eh]
    ---------------------

    Doubly Occupied:

       1A    -15.572727     2A    -15.548911     3A    -11.308464
       4A    -11.275302     5A    -11.265477     6A    -11.249905
       7A    -11.245119     8A    -11.241982     9A    -11.241760
      10A    -11.238043    11A    -11.237645    12A    -11.236779
      13A    -11.229983    14A    -11.228731    15A    -11.219057
      16A     -1.290068    17A     -1.217314    18A     -1.142208
      19A     -1.090138    20A     -1.038563    21A     -1.018649
      22A     -1.008943    23A     -0.951742    24A     -0.908372
      25A     -0.847456    26A     -0.839489    27A     -0.829285
      28A     -0.785635    29A     -0.724480    30A     -0.685501
      31A     -0.675093    32A     -0.648223    33A     -0.638442
      34A     -0.623175    35A     -0.609558    36A     -0.593746
      37A     -0.588918    38A     -0.584403    39A     -0.576191
      40A     -0.561609    41A     -0.548899    42A     -0.534176
      43A     -0.523377    44A     -0.515702    45A     -0.508072
      46A     -0.499982    47A     -0.498798    48A     -0.417942
      49A     -0.410215    50A     -0.373441    51A     -0.342760
      52A     -0.338897    53A     -0.286383

  @DF-RHF Final Energy:  -609.53279552768026

   => Energetics <=

    Nuclear Repulsion Energy =            919.8325860296098426
    One-Electron Energy =               -2651.4993019585385809
    Two-Electron Energy =                1122.1339204012483606
    Total Energy =                       -609.5327955276802641
  Basis Set: (AUG-CC-PVTZ AUX)
    Blend: AUG-CC-PVTZ-RI
    Molecular point group: c1

    Geometry (in Angstrom), charge = 0, multiplicity = 1:

       Center              X                  Y                   Z               Mass
    ------------   -----------------  -----------------  -----------------  -----------------
         N           -0.450271476064     1.139233624981    -0.217484431825    14.003074004430
         N            1.808674523936     1.278652624981     0.352619568175    14.003074004430
         C           -1.604612476064     0.312925624981    -0.066285431825    12.000000000000
         C            0.804484523936     0.532880624981    -0.135791431825    12.000000000000
         C           -0.575764476064     2.489336624981     0.333585568175    12.000000000000
         C            1.006527523936    -0.775384375019    -0.627458431825    12.000000000000
         C            3.350311523936    -0.550741375019    -0.067613431825    12.000000000000
         C           -1.714825476064    -0.599988375019     0.992612568175    12.000000000000
         C           -2.659994476064     0.453295624981    -0.974882431825    12.000000000000
         C            2.283514523936    -1.308492375019    -0.578898431825    12.000000000000
         C            3.041509523936     0.734767624981     0.370369568175    12.000000000000
         C           -2.867545476064    -1.374362375019     1.126230568175    12.000000000000
         C           -3.818333476064    -0.310631375019    -0.825159431825    12.000000000000
         C           -3.923971476064    -1.228279375019     0.222831568175    12.000000000000
         C            4.749522523936    -1.096934375019     0.001151568175    12.000000000000
         H            0.179579523936    -1.341663375019    -1.044791431825     1.007825032230
         H           -0.441083476064     2.506976624981     1.423204568175     1.007825032230
         H           -1.573957476064     2.854948624981     0.085977568175     1.007825032230
         H            0.178564523936     3.135672624981    -0.114688431825     1.007825032230
         H           -0.894593476064    -0.699068375019     1.700330568175     1.007825032230
         H           -2.552476476064     1.155057624981    -1.798818431825     1.007825032230
         H            2.461517523936    -2.315745375019    -0.954191431825     1.007825032230
         H            3.825794523936     1.379021624981     0.770012568175     1.007825032230
         H           -2.948072476064    -2.082771375019     1.947600568175     1.007825032230
         H           -4.634221476064    -0.197943375019    -1.535265431825     1.007825032230
         H            5.105510523936    -1.402066375019    -0.988170431825     1.007825032230
         H            5.409810723936    -0.379064875019     0.372467168175     1.007825032230
         H            4.802837523936    -1.973059375019     0.655716568175     1.007825032230
         H           -4.822955476064    -1.829534375019     0.333327568175     1.007825032230

  Basis Set: AUG-CC-PVTZ
    Blend: AUG-CC-PVTZ
  Basis Set: (AUG-CC-PVTZ AUX)
    Blend: AUG-CC-PVTZ-JKFIT
	 Reference Energy          =    -609.5327955276802641 [Eh]
	 Singles Energy            =      -0.0000000000000000 [Eh]
	 Same-Spin Energy          =      -0.6811239182587198 [Eh]
	 Opposite-Spin Energy      =      -2.1304299348200946 [Eh]
	 Correlation Energy        =      -2.8115538530788142 [Eh]
	 Total Energy              =    -612.3443493807591267 [Eh]

	 ================> DF-SCS-MP2 Energies <==================
	-----------------------------------------------------------
	 SCS Same-Spin Scale       =       0.3333333333333333 [-]
	 SCS Opposite-Spin Scale   =       1.2000000000000000 [-]
	 SCS Same-Spin Energy      =      -0.2270413060862399 [Eh]
	 SCS Opposite-Spin Energy  =      -2.5565159217841136 [Eh]
	 SCS Correlation Energy    =      -2.7835572278703533 [Eh]
	 SCS Total Energy          =    -612.3163527555506107 [Eh]
	-----------------------------------------------------------

  Dipole Moment: [D]
     X:    -0.4649      Y:    -1.4554      Z:    -0.1592     Total:     1.5361

*** Psi4 exiting successfully. Buy a developer a beer!
