                               Psi4 1.4a3.dev225

  ==> Input File <==

--------------------------------------------------------------------------
#psi4
#
memory 32 gb

molecule  {
0 1
  N       -0.4697210     1.1445100    -0.2216410
  N        1.7892250     1.2839290     0.3484630
  C       -1.6240620     0.3182020    -0.0704420
  C        0.7850350     0.5381570    -0.1399480
  C       -0.5952140     2.4946130     0.3294290
  C        0.9870780    -0.7701080    -0.6316150
  C        3.3308620    -0.5454650    -0.0717700
  C       -1.7342750    -0.5947120     0.9884560
  C       -2.6794440     0.4585720    -0.9790390
  C        2.2640650    -1.3032160    -0.5830550
  C        3.0220600     0.7400440     0.3662130
  C       -2.8171540    -1.2660389     1.0452199
  C       -3.8377830    -0.3053550    -0.8293160
  C       -3.9434210    -1.2230030     0.2186750
  C        4.7300730    -1.0916580    -0.0030050
  H        0.1601300    -1.3363870    -1.0489480
  H       -0.4605330     2.5122530     1.4190480
  H       -1.5934070     2.8602250     0.0818210
  H        0.1591150     3.1409490    -0.1188450
  H       -0.9140430    -0.6937920     1.6961740
  H       -2.5719260     1.1603340    -1.8029750
  H        2.4420680    -2.3104690    -0.9583480
  H        3.8063450     1.3842980     0.7658560
  H       -2.9675220    -2.0774950     1.9434440
  H       -4.6536710    -0.1926670    -1.5394220
  H        5.0860610    -1.3967900    -0.9923270
  H        5.4219950    -0.3393960     0.3861000
  H        4.7833880    -1.9677830     0.6515600
  H       -4.8424050    -1.8242580     0.3291710
units angstrom
no_reorient  #important for SAPT in psi4, default
symmetry c1  #important for SAPT in psi4, default
}

set PROPERTIES_ORIGIN ["COM"]
properties('MP2/aug-cc-pvtz', properties = ['dipole'])
--------------------------------------------------------------------------

    Molecular point group: c1
  Charge       = 0
  Multiplicity = 1
  Basis Set: AUG-CC-PVTZ
    Blend: AUG-CC-PVTZ
  Basis Set: (AUG-CC-PVTZ AUX)
    Blend: AUG-CC-PVTZ-JKFIT

    Orbital Energies [Eh]
    ---------------------

    Doubly Occupied:

       1A    -15.573065     2A    -15.549795     3A    -11.309301
       4A    -11.276797     5A    -11.266402     6A    -11.251151
       7A    -11.245771     8A    -11.241949     9A    -11.239034
      10A    -11.237331    11A    -11.233828    12A    -11.231151
      13A    -11.229856    14A    -11.225689    15A    -11.223701
      16A     -1.291156    17A     -1.219444    18A     -1.156498
      19A     -1.090781    20A     -1.039139    21A     -1.033641
      22A     -1.006189    23A     -0.950069    24A     -0.910231
      25A     -0.847763    26A     -0.842424    27A     -0.821055
      28A     -0.786753    29A     -0.724583    30A     -0.690708
      31A     -0.675474    32A     -0.654871    33A     -0.635547
      34A     -0.621524    35A     -0.607218    36A     -0.592211
      37A     -0.589795    38A     -0.577735    39A     -0.577471
      40A     -0.563890    41A     -0.544572    42A     -0.537107
      43A     -0.525357    44A     -0.521628    45A     -0.513836
      46A     -0.505199    47A     -0.470239    48A     -0.417194
      49A     -0.410625    50A     -0.374766    51A     -0.355972
      52A     -0.336897    53A     -0.286691

  @DF-RHF Final Energy:  -609.50563389688159

   => Energetics <=

    Nuclear Repulsion Energy =            922.7098459437535212
    One-Electron Energy =               -2657.1488072113961607
    Two-Electron Energy =                1124.9333273707611625
    Total Energy =                       -609.5056338968815908
  Basis Set: (AUG-CC-PVTZ AUX)
    Blend: AUG-CC-PVTZ-RI
    Molecular point group: c1

    Geometry (in Angstrom), charge = 0, multiplicity = 1:

       Center              X                  Y                   Z               Mass
    ------------   -----------------  -----------------  -----------------  -----------------
         N           -0.454662714832     1.132817036936    -0.212919823344    14.003074004430
         N            1.804283285168     1.272236036936     0.357184176656    14.003074004430
         C           -1.609003714832     0.306509036936    -0.061720823344    12.000000000000
         C            0.800093285168     0.526464036936    -0.131226823344    12.000000000000
         C           -0.580155714832     2.482920036936     0.338150176656    12.000000000000
         C            1.002136285168    -0.781800963064    -0.622893823344    12.000000000000
         C            3.345920285168    -0.557157963064    -0.063048823344    12.000000000000
         C           -1.719216714832    -0.606404963064     0.997177176656    12.000000000000
         C           -2.664385714832     0.446879036936    -0.970317823344    12.000000000000
         C            2.279123285168    -1.314908963064    -0.574333823344    12.000000000000
         C            3.037118285168     0.728351036936     0.374934176656    12.000000000000
         C           -2.802095714832    -1.277731863064     1.053941076656    12.000000000000
         C           -3.822724714832    -0.317047963064    -0.820594823344    12.000000000000
         C           -3.928362714832    -1.234695963064     0.227396176656    12.000000000000
         C            4.745131285168    -1.103350963064     0.005716176656    12.000000000000
         H            0.175188285168    -1.348079963064    -1.040226823344     1.007825032230
         H           -0.445474714832     2.500560036936     1.427769176656     1.007825032230
         H           -1.578348714832     2.848532036936     0.090542176656     1.007825032230
         H            0.174173285168     3.129256036936    -0.110123823344     1.007825032230
         H           -0.898984714832    -0.705484963064     1.704895176656     1.007825032230
         H           -2.556867714832     1.148641036936    -1.794253823344     1.007825032230
         H            2.457126285168    -2.322161963064    -0.949626823344     1.007825032230
         H            3.821403285168     1.372605036936     0.774577176656     1.007825032230
         H           -2.952463714832    -2.089187963064     1.952165176656     1.007825032230
         H           -4.638612714832    -0.204359963064    -1.530700823344     1.007825032230
         H            5.101119285168    -1.408482963064    -0.983605823344     1.007825032230
         H            5.437053285168    -0.351088963064     0.394821176656     1.007825032230
         H            4.798446285168    -1.979475963064     0.660281176656     1.007825032230
         H           -4.827346714832    -1.835950963064     0.337892176656     1.007825032230

  Basis Set: AUG-CC-PVTZ
    Blend: AUG-CC-PVTZ
  Basis Set: (AUG-CC-PVTZ AUX)
    Blend: AUG-CC-PVTZ-JKFIT
	 Reference Energy          =    -609.5056338968815908 [Eh]
	 Singles Energy            =      -0.0000000000000000 [Eh]
	 Same-Spin Energy          =      -0.6815737141321395 [Eh]
	 Opposite-Spin Energy      =      -2.1316068940016786 [Eh]
	 Correlation Energy        =      -2.8131806081338180 [Eh]
	 Total Energy              =    -612.3188145050154390 [Eh]

	 ================> DF-SCS-MP2 Energies <==================
	-----------------------------------------------------------
	 SCS Same-Spin Scale       =       0.3333333333333333 [-]
	 SCS Opposite-Spin Scale   =       1.2000000000000000 [-]
	 SCS Same-Spin Energy      =      -0.2271912380440465 [Eh]
	 SCS Opposite-Spin Energy  =      -2.5579282728020143 [Eh]
	 SCS Correlation Energy    =      -2.7851195108460609 [Eh]
	 SCS Total Energy          =    -612.2907534077276068 [Eh]
	-----------------------------------------------------------

  Dipole Moment: [D]
     X:    -0.4607      Y:    -1.3725      Z:    -0.2680     Total:     1.4723

*** Psi4 exiting successfully. Buy a developer a beer!
