                               Psi4 1.4a3.dev225

  ==> Input File <==

--------------------------------------------------------------------------
#psi4
#
memory 32 gb

molecule  {
0 1
  N       -0.4697210     1.1445100    -0.2216410
  N        1.7892250     1.2839290     0.3484630
  C       -1.6240620     0.3182020    -0.0704420
  C        0.7850350     0.5381570    -0.1399480
  C       -0.5952140     2.4946130     0.3294290
  C        0.9870780    -0.7701080    -0.6316150
  C        3.3308620    -0.5454650    -0.0717700
  C       -1.7342750    -0.5947120     0.9884560
  C       -2.6794440     0.4585720    -0.9790390
  C        2.2640650    -1.3032160    -0.5830550
  C        3.0220600     0.7400440     0.3662130
  C       -2.8869950    -1.3690860     1.1220740
  C       -3.8377830    -0.3053550    -0.8293160
  C       -3.9434210    -1.2230030     0.2186750
  C        4.7300730    -1.0916580    -0.0030050
  H        0.1601300    -1.3363870    -1.0489480
  H       -0.4605330     2.5122530     1.4190480
  H       -1.5934070     2.8602250     0.0818210
  H        0.1591150     3.1409490    -0.1188450
  H       -0.9140430    -0.6937920     1.6961740
  H       -2.5719260     1.1603340    -1.8029750
  H        2.4420680    -2.3104690    -0.9583480
  H        3.8063450     1.3842980     0.7658560
  H       -2.9675220    -2.0774950     1.9434440
  H       -4.6536710    -0.1926670    -1.5394220
  H        5.0860610    -1.3967900    -0.9923270
  H        5.4219950    -0.3393960     0.3861000
  H        4.7809534    -1.9277751     0.6216695
  H       -4.8424050    -1.8242580     0.3291710
units angstrom
no_reorient  #important for SAPT in psi4, default
symmetry c1  #important for SAPT in psi4, default
}

set PROPERTIES_ORIGIN ["COM"]
properties('MP2/aug-cc-pvtz', properties = ['dipole'])
--------------------------------------------------------------------------

    Molecular point group: c1
  Charge       = 0
  Multiplicity = 1
  Basis Set: AUG-CC-PVTZ
    Blend: AUG-CC-PVTZ
  Basis Set: (AUG-CC-PVTZ AUX)
    Blend: AUG-CC-PVTZ-JKFIT

    Orbital Energies [Eh]
    ---------------------

    Doubly Occupied:

       1A    -15.572665     2A    -15.548850     3A    -11.308398
       4A    -11.275286     5A    -11.265288     6A    -11.250120
       7A    -11.245081     8A    -11.241976     9A    -11.241752
      10A    -11.238035    11A    -11.237636    12A    -11.236765
      13A    -11.230036    14A    -11.228767    15A    -11.219052
      16A     -1.290019    17A     -1.217258    18A     -1.142193
      19A     -1.090274    20A     -1.038364    21A     -1.018634
      22A     -1.008928    23A     -0.951677    24A     -0.908655
      25A     -0.846966    26A     -0.839610    27A     -0.829412
      28A     -0.785716    29A     -0.724487    30A     -0.685446
      31A     -0.674257    32A     -0.648165    33A     -0.638758
      34A     -0.622574    35A     -0.609599    36A     -0.594278
      37A     -0.588270    38A     -0.585665    39A     -0.580410
      40A     -0.561503    41A     -0.544964    42A     -0.534105
      43A     -0.524331    44A     -0.514370    45A     -0.507674
      46A     -0.499979    47A     -0.498665    48A     -0.418208
      49A     -0.410157    50A     -0.373574    51A     -0.342806
      52A     -0.338913    53A     -0.286482

  @DF-RHF Final Energy:  -609.53272658009087

   => Energetics <=

    Nuclear Repulsion Energy =            919.8321085164845954
    One-Electron Energy =               -2651.4995694793633447
    Two-Electron Energy =                1122.1347343827878831
    Total Energy =                       -609.5327265800908663
  Basis Set: (AUG-CC-PVTZ AUX)
    Blend: AUG-CC-PVTZ-RI
    Molecular point group: c1

    Geometry (in Angstrom), charge = 0, multiplicity = 1:

       Center              X                  Y                   Z               Mass
    ------------   -----------------  -----------------  -----------------  -----------------
         N           -0.450420013939     1.138855146213    -0.217422872890    14.003074004430
         N            1.808525986061     1.278274146213     0.352681127110    14.003074004430
         C           -1.604761013939     0.312547146213    -0.066223872890    12.000000000000
         C            0.804335986061     0.532502146213    -0.135729872890    12.000000000000
         C           -0.575913013939     2.488958146213     0.333647127110    12.000000000000
         C            1.006378986061    -0.775762853787    -0.627396872890    12.000000000000
         C            3.350162986061    -0.551119853787    -0.067551872890    12.000000000000
         C           -1.714974013939    -0.600366853787     0.992674127110    12.000000000000
         C           -2.660143013939     0.452917146213    -0.974820872890    12.000000000000
         C            2.283365986061    -1.308870853787    -0.578836872890    12.000000000000
         C            3.041360986061     0.734389146213     0.370431127110    12.000000000000
         C           -2.867694013939    -1.374740853787     1.126292127110    12.000000000000
         C           -3.818482013939    -0.311009853787    -0.825097872890    12.000000000000
         C           -3.924120013939    -1.228657853787     0.222893127110    12.000000000000
         C            4.749373986061    -1.097312853787     0.001213127110    12.000000000000
         H            0.179430986061    -1.342041853787    -1.044729872890     1.007825032230
         H           -0.441232013939     2.506598146213     1.423266127110     1.007825032230
         H           -1.574106013939     2.854570146213     0.086039127110     1.007825032230
         H            0.178415986061     3.135294146213    -0.114626872890     1.007825032230
         H           -0.894742013939    -0.699446853787     1.700392127110     1.007825032230
         H           -2.552625013939     1.154679146213    -1.798756872890     1.007825032230
         H            2.461368986061    -2.316123853787    -0.954129872890     1.007825032230
         H            3.825645986061     1.378643146213     0.770074127110     1.007825032230
         H           -2.948221013939    -2.083149853787     1.947662127110     1.007825032230
         H           -4.634370013939    -0.198321853787    -1.535203872890     1.007825032230
         H            5.105361986061    -1.402444853787    -0.988108872890     1.007825032230
         H            5.441295986061    -0.345050853787     0.390318127110     1.007825032230
         H            4.800254386061    -1.933429953787     0.625887627110     1.007825032230
         H           -4.823104013939    -1.829912853787     0.333389127110     1.007825032230

  Basis Set: AUG-CC-PVTZ
    Blend: AUG-CC-PVTZ
  Basis Set: (AUG-CC-PVTZ AUX)
    Blend: AUG-CC-PVTZ-JKFIT
	 Reference Energy          =    -609.5327265800908663 [Eh]
	 Singles Energy            =      -0.0000000000000000 [Eh]
	 Same-Spin Energy          =      -0.6811590338358546 [Eh]
	 Opposite-Spin Energy      =      -2.1304957692185722 [Eh]
	 Correlation Energy        =      -2.8116548030544268 [Eh]
	 Total Energy              =    -612.3443813831453326 [Eh]

	 ================> DF-SCS-MP2 Energies <==================
	-----------------------------------------------------------
	 SCS Same-Spin Scale       =       0.3333333333333333 [-]
	 SCS Opposite-Spin Scale   =       1.2000000000000000 [-]
	 SCS Same-Spin Energy      =      -0.2270530112786182 [Eh]
	 SCS Opposite-Spin Energy  =      -2.5565949230622866 [Eh]
	 SCS Correlation Energy    =      -2.7836479343409049 [Eh]
	 SCS Total Energy          =    -612.3163745144318000 [Eh]
	-----------------------------------------------------------

  Dipole Moment: [D]
     X:    -0.4730      Y:    -1.4837      Z:    -0.1559     Total:     1.5651

*** Psi4 exiting successfully. Buy a developer a beer!
