                               Psi4 1.4a3.dev225

  ==> Input File <==

--------------------------------------------------------------------------
#psi4
#
memory 32 gb

molecule  {
0 1
  N       -0.4697210     1.1445100    -0.2216410
  N        1.7892250     1.2839290     0.3484630
  C       -1.6240620     0.3182020    -0.0704420
  C        0.7850350     0.5381570    -0.1399480
  C       -0.5952140     2.4946130     0.3294290
  C        0.9870780    -0.7701080    -0.6316150
  C        3.3308620    -0.5454650    -0.0717700
  C       -1.7421337    -0.6598069     1.0639602
  C       -2.6794440     0.4585720    -0.9790390
  C        2.2640650    -1.3032160    -0.5830550
  C        3.0220600     0.7400440     0.3662130
  C       -2.8869950    -1.3690860     1.1220740
  C       -3.8377830    -0.3053550    -0.8293160
  C       -3.9434210    -1.2230030     0.2186750
  C        4.7300730    -1.0916580    -0.0030050
  H        0.1601300    -1.3363870    -1.0489480
  H       -0.4605330     2.5122530     1.4190480
  H       -1.5934070     2.8602250     0.0818210
  H        0.1591150     3.1409490    -0.1188450
  H       -0.9140430    -0.6937920     1.6961740
  H       -2.5719260     1.1603340    -1.8029750
  H        2.4420680    -2.3104690    -0.9583480
  H        3.8063450     1.3842980     0.7658560
  H       -2.9675220    -2.0774950     1.9434440
  H       -4.6536710    -0.1926670    -1.5394220
  H        5.0860610    -1.3967900    -0.9923270
  H        5.4219950    -0.3393960     0.3861000
  H        4.7833880    -1.9677830     0.6515600
  H       -4.8424050    -1.8242580     0.3291710
units angstrom
no_reorient  #important for SAPT in psi4, default
symmetry c1  #important for SAPT in psi4, default
}

set PROPERTIES_ORIGIN ["COM"]
properties('MP2/aug-cc-pvtz', properties = ['dipole'])
--------------------------------------------------------------------------

    Molecular point group: c1
  Charge       = 0
  Multiplicity = 1
  Basis Set: AUG-CC-PVTZ
    Blend: AUG-CC-PVTZ
  Basis Set: (AUG-CC-PVTZ AUX)
    Blend: AUG-CC-PVTZ-JKFIT

    Orbital Energies [Eh]
    ---------------------

    Doubly Occupied:

       1A    -15.574419     2A    -15.549853     3A    -11.309180
       4A    -11.284314     5A    -11.266262     6A    -11.250882
       7A    -11.245600     8A    -11.242601     9A    -11.239062
      10A    -11.237602    11A    -11.236149    12A    -11.235443
      13A    -11.231172    14A    -11.229529    15A    -11.225680
      16A     -1.290001    17A     -1.216318    18A     -1.140323
      19A     -1.090583    20A     -1.038956    21A     -1.025126
      22A     -1.000122    23A     -0.949927    24A     -0.908516
      25A     -0.847600    26A     -0.842616    27A     -0.823284
      28A     -0.784505    29A     -0.723305    30A     -0.690704
      31A     -0.675235    32A     -0.646184    33A     -0.642004
      34A     -0.623909    35A     -0.605258    36A     -0.596954
      37A     -0.588727    38A     -0.584172    39A     -0.577176
      40A     -0.562115    41A     -0.543918    42A     -0.535210
      43A     -0.524331    44A     -0.518998    45A     -0.506708
      46A     -0.500491    47A     -0.490580    48A     -0.416616
      49A     -0.410405    50A     -0.374381    51A     -0.348737
      52A     -0.332720    53A     -0.284799

  @DF-RHF Final Energy:  -609.52180728587894

   => Energetics <=

    Nuclear Repulsion Energy =            918.0714184603957619
    One-Electron Energy =               -2647.9479286895780206
    Two-Electron Energy =                1120.3547029433032094
    Total Energy =                       -609.5218072858790492
  Basis Set: (AUG-CC-PVTZ AUX)
    Blend: AUG-CC-PVTZ-RI
    Molecular point group: c1

    Geometry (in Angstrom), charge = 0, multiplicity = 1:

       Center              X                  Y                   Z               Mass
    ------------   -----------------  -----------------  -----------------  -----------------
         N           -0.449956392177     1.143001510027    -0.222148267199    14.003074004430
         N            1.808989607823     1.282420510027     0.347955732801    14.003074004430
         C           -1.604297392177     0.316693510027    -0.070949267199    12.000000000000
         C            0.804799607823     0.536648510027    -0.140455267199    12.000000000000
         C           -0.575449392177     2.493104510027     0.328921732801    12.000000000000
         C            1.006842607823    -0.771616489973    -0.632122267199    12.000000000000
         C            3.350626607823    -0.546973489973    -0.072277267199    12.000000000000
         C           -1.722369092177    -0.661315389973     1.063452932801    12.000000000000
         C           -2.659679392177     0.457063510027    -0.979546267199    12.000000000000
         C            2.283829607823    -1.304724489973    -0.583562267199    12.000000000000
         C            3.041824607823     0.738535510027     0.365705732801    12.000000000000
         C           -2.867230392177    -1.370594489973     1.121566732801    12.000000000000
         C           -3.818018392177    -0.306863489973    -0.829823267199    12.000000000000
         C           -3.923656392177    -1.224511489973     0.218167732801    12.000000000000
         C            4.749837607823    -1.093166489973    -0.003512267199    12.000000000000
         H            0.179894607823    -1.337895489973    -1.049455267199     1.007825032230
         H           -0.440768392177     2.510744510027     1.418540732801     1.007825032230
         H           -1.573642392177     2.858716510027     0.081313732801     1.007825032230
         H            0.178879607823     3.139440510027    -0.119352267199     1.007825032230
         H           -0.894278392177    -0.695300489973     1.695666732801     1.007825032230
         H           -2.552161392177     1.158825510027    -1.803482267199     1.007825032230
         H            2.461832607823    -2.311977489973    -0.958855267199     1.007825032230
         H            3.826109607823     1.382789510027     0.765348732801     1.007825032230
         H           -2.947757392177    -2.079003489973     1.942936732801     1.007825032230
         H           -4.633906392177    -0.194175489973    -1.539929267199     1.007825032230
         H            5.105825607823    -1.398298489973    -0.992834267199     1.007825032230
         H            5.441759607823    -0.340904489973     0.385592732801     1.007825032230
         H            4.803152607823    -1.969291489973     0.651052732801     1.007825032230
         H           -4.822640392177    -1.825766489973     0.328663732801     1.007825032230

  Basis Set: AUG-CC-PVTZ
    Blend: AUG-CC-PVTZ
  Basis Set: (AUG-CC-PVTZ AUX)
    Blend: AUG-CC-PVTZ-JKFIT
	 Reference Energy          =    -609.5218072858789355 [Eh]
	 Singles Energy            =      -0.0000000000000000 [Eh]
	 Same-Spin Energy          =      -0.6810408730474337 [Eh]
	 Opposite-Spin Energy      =      -2.1316151580051352 [Eh]
	 Correlation Energy        =      -2.8126560310525690 [Eh]
	 Total Energy              =    -612.3344633169315330 [Eh]

	 ================> DF-SCS-MP2 Energies <==================
	-----------------------------------------------------------
	 SCS Same-Spin Scale       =       0.3333333333333333 [-]
	 SCS Opposite-Spin Scale   =       1.2000000000000000 [-]
	 SCS Same-Spin Energy      =      -0.2270136243491445 [Eh]
	 SCS Opposite-Spin Energy  =      -2.5579381896061624 [Eh]
	 SCS Correlation Energy    =      -2.7849518139553071 [Eh]
	 SCS Total Energy          =    -612.3067590998342666 [Eh]
	-----------------------------------------------------------

  Dipole Moment: [D]
     X:    -0.4012      Y:    -1.4168      Z:    -0.1915     Total:     1.4849

*** Psi4 exiting successfully. Buy a developer a beer!
