                               Psi4 1.4a3.dev225

  ==> Input File <==

--------------------------------------------------------------------------
#psi4
#
memory 32 gb

molecule  {
0 1
  N       -0.4697210     1.1445100    -0.2216410
  N        1.7892250     1.2839290     0.3484630
  C       -1.6240620     0.3182020    -0.0704420
  C        0.7850350     0.5381570    -0.1399480
  C       -0.5952140     2.4946130     0.3294290
  C        0.9870780    -0.7701080    -0.6316150
  C        3.3308620    -0.5454650    -0.0717700
  C       -1.7342750    -0.5947120     0.9884560
  C       -2.6794440     0.4585720    -0.9790390
  C        2.2640650    -1.3032160    -0.5830550
  C        3.0220600     0.7400440     0.3662130
  C       -2.8869950    -1.3690860     1.1220740
  C       -3.8377830    -0.3053550    -0.8293160
  C       -3.9434210    -1.2230030     0.2186750
  C        4.7300730    -1.0916580    -0.0030050
  H        0.1601300    -1.3363870    -1.0489480
  H       -0.4605330     2.5122530     1.4190480
  H       -1.7763101     2.9272176     0.0364508
  H        0.1591150     3.1409490    -0.1188450
  H       -0.9140430    -0.6937920     1.6961740
  H       -2.5719260     1.1603340    -1.8029750
  H        2.4420680    -2.3104690    -0.9583480
  H        3.8063450     1.3842980     0.7658560
  H       -2.9675220    -2.0774950     1.9434440
  H       -4.6536710    -0.1926670    -1.5394220
  H        5.0860610    -1.3967900    -0.9923270
  H        5.4219950    -0.3393960     0.3861000
  H        4.7833880    -1.9677830     0.6515600
  H       -4.8424050    -1.8242580     0.3291710
units angstrom
no_reorient  #important for SAPT in psi4, default
symmetry c1  #important for SAPT in psi4, default
}

set PROPERTIES_ORIGIN ["COM"]
properties('MP2/aug-cc-pvtz', properties = ['dipole'])
--------------------------------------------------------------------------

    Molecular point group: c1
  Charge       = 0
  Multiplicity = 1
  Basis Set: AUG-CC-PVTZ
    Blend: AUG-CC-PVTZ
  Basis Set: (AUG-CC-PVTZ AUX)
    Blend: AUG-CC-PVTZ-JKFIT

    Orbital Energies [Eh]
    ---------------------

    Doubly Occupied:

       1A    -15.575317     2A    -15.550621     3A    -11.310581
       4A    -11.275407     5A    -11.267954     6A    -11.266754
       7A    -11.251345     8A    -11.241735     9A    -11.241427
      10A    -11.237821    11A    -11.237563    12A    -11.236447
      13A    -11.231500    14A    -11.230108    15A    -11.225944
      16A     -1.291666    17A     -1.218305    18A     -1.142132
      19A     -1.091044    20A     -1.038395    21A     -1.018422
      22A     -1.007990    23A     -0.945051    24A     -0.903225
      25A     -0.845505    26A     -0.839377    27A     -0.829309
      28A     -0.784871    29A     -0.724237    30A     -0.685850
      31A     -0.674301    32A     -0.648951    33A     -0.638220
      34A     -0.623255    35A     -0.608948    36A     -0.592570
      37A     -0.589133    38A     -0.582212    39A     -0.576614
      40A     -0.561993    41A     -0.543653    42A     -0.526410
      43A     -0.515351    44A     -0.509728    45A     -0.504520
      46A     -0.499835    47A     -0.492958    48A     -0.418696
      49A     -0.411911    50A     -0.374838    51A     -0.342851
      52A     -0.338331    53A     -0.287318

  @DF-RHF Final Energy:  -609.51290295728973

   => Energetics <=

    Nuclear Repulsion Energy =            918.7560602467273156
    One-Electron Energy =               -2649.3209182441387384
    Two-Electron Energy =                1121.0519550401215838
    Total Energy =                       -609.5129029572897252
  Basis Set: (AUG-CC-PVTZ AUX)
    Blend: AUG-CC-PVTZ-RI
    Molecular point group: c1

    Geometry (in Angstrom), charge = 0, multiplicity = 1:

       Center              X                  Y                   Z               Mass
    ------------   -----------------  -----------------  -----------------  -----------------
         N           -0.449501961138     1.138717873618    -0.217344126838    14.003074004430
         N            1.809444038862     1.278136873618     0.352759873162    14.003074004430
         C           -1.603842961138     0.312409873618    -0.066145126838    12.000000000000
         C            0.805254038862     0.532364873618    -0.135651126838    12.000000000000
         C           -0.574994961138     2.488820873618     0.333725873162    12.000000000000
         C            1.007297038862    -0.775900126382    -0.627318126838    12.000000000000
         C            3.351081038862    -0.551257126382    -0.067473126838    12.000000000000
         C           -1.714055961138    -0.600504126382     0.992752873162    12.000000000000
         C           -2.659224961138     0.452779873618    -0.974742126838    12.000000000000
         C            2.284284038862    -1.309008126382    -0.578758126838    12.000000000000
         C            3.042279038862     0.734251873618     0.370509873162    12.000000000000
         C           -2.866775961138    -1.374878126382     1.126370873162    12.000000000000
         C           -3.817563961138    -0.311147126382    -0.825019126838    12.000000000000
         C           -3.923201961138    -1.228795126382     0.222971873162    12.000000000000
         C            4.750292038862    -1.097450126382     0.001291873162    12.000000000000
         H            0.180349038862    -1.342179126382    -1.044651126838     1.007825032230
         H           -0.440313961138     2.506460873618     1.423344873162     1.007825032230
         H           -1.756091061138     2.921425473618     0.040747673162     1.007825032230
         H            0.179334038862     3.135156873618    -0.114548126838     1.007825032230
         H           -0.893823961138    -0.699584126382     1.700470873162     1.007825032230
         H           -2.551706961138     1.154541873618    -1.798678126838     1.007825032230
         H            2.462287038862    -2.316261126382    -0.954051126838     1.007825032230
         H            3.826564038862     1.378505873618     0.770152873162     1.007825032230
         H           -2.947302961138    -2.083287126382     1.947740873162     1.007825032230
         H           -4.633451961138    -0.198459126382    -1.535125126838     1.007825032230
         H            5.106280038862    -1.402582126382    -0.988030126838     1.007825032230
         H            5.442214038862    -0.345188126382     0.390396873162     1.007825032230
         H            4.803607038862    -1.973575126382     0.655856873162     1.007825032230
         H           -4.822185961138    -1.830050126382     0.333467873162     1.007825032230

  Basis Set: AUG-CC-PVTZ
    Blend: AUG-CC-PVTZ
  Basis Set: (AUG-CC-PVTZ AUX)
    Blend: AUG-CC-PVTZ-JKFIT
	 Reference Energy          =    -609.5129029572897252 [Eh]
	 Singles Energy            =      -0.0000000000000000 [Eh]
	 Same-Spin Energy          =      -0.6814021648877857 [Eh]
	 Opposite-Spin Energy      =      -2.1327529949230488 [Eh]
	 Correlation Energy        =      -2.8141551598108343 [Eh]
	 Total Energy              =    -612.3270581171005915 [Eh]

	 ================> DF-SCS-MP2 Energies <==================
	-----------------------------------------------------------
	 SCS Same-Spin Scale       =       0.3333333333333333 [-]
	 SCS Opposite-Spin Scale   =       1.2000000000000000 [-]
	 SCS Same-Spin Energy      =      -0.2271340549625952 [Eh]
	 SCS Opposite-Spin Energy  =      -2.5593035939076585 [Eh]
	 SCS Correlation Energy    =      -2.7864376488702538 [Eh]
	 SCS Total Energy          =    -612.2993406061599444 [Eh]
	-----------------------------------------------------------

  Dipole Moment: [D]
     X:    -0.3589      Y:    -1.5478      Z:    -0.1591     Total:     1.5968

*** Psi4 exiting successfully. Buy a developer a beer!
