                               Psi4 1.4a3.dev225

  ==> Input File <==

--------------------------------------------------------------------------
#psi4
#
memory 32 gb

molecule  {
0 1
  N       -0.4697210     1.1445100    -0.2216410
  N        1.7892250     1.2839290     0.3484630
  C       -1.6240620     0.3182020    -0.0704420
  C        0.7850350     0.5381570    -0.1399480
  C       -0.5952140     2.4946130     0.3294290
  C        0.9870780    -0.7701080    -0.6316150
  C        3.3308620    -0.5454650    -0.0717700
  C       -1.7342750    -0.5947120     0.9884560
  C       -2.6794440     0.4585720    -0.9790390
  C        2.2640650    -1.3032160    -0.5830550
  C        3.0220600     0.7400440     0.3662130
  C       -2.8869950    -1.3690860     1.1220740
  C       -3.8377830    -0.3053550    -0.8293160
  C       -3.8678367    -1.2334548     0.2833107
  C        4.7300730    -1.0916580    -0.0030050
  H        0.1601300    -1.3363870    -1.0489480
  H       -0.4605330     2.5122530     1.4190480
  H       -1.5934070     2.8602250     0.0818210
  H        0.1591150     3.1409490    -0.1188450
  H       -0.9140430    -0.6937920     1.6961740
  H       -2.5719260     1.1603340    -1.8029750
  H        2.4420680    -2.3104690    -0.9583480
  H        3.8063450     1.3842980     0.7658560
  H       -2.9675220    -2.0774950     1.9434440
  H       -4.6536710    -0.1926670    -1.5394220
  H        5.0860610    -1.3967900    -0.9923270
  H        5.4219950    -0.3393960     0.3861000
  H        4.7833880    -1.9677830     0.6515600
  H       -4.8424050    -1.8242580     0.3291710
units angstrom
no_reorient  #important for SAPT in psi4, default
symmetry c1  #important for SAPT in psi4, default
}

set PROPERTIES_ORIGIN ["COM"]
properties('MP2/aug-cc-pvtz', properties = ['dipole'])
--------------------------------------------------------------------------

    Molecular point group: c1
  Charge       = 0
  Multiplicity = 1
  Basis Set: AUG-CC-PVTZ
    Blend: AUG-CC-PVTZ
  Basis Set: (AUG-CC-PVTZ AUX)
    Blend: AUG-CC-PVTZ-JKFIT

    Orbital Energies [Eh]
    ---------------------

    Doubly Occupied:

       1A    -15.572630     2A    -15.548723     3A    -11.308439
       4A    -11.274399     5A    -11.265298     6A    -11.249993
       7A    -11.246746     8A    -11.245164     9A    -11.237639
      10A    -11.237506    11A    -11.236519    12A    -11.230097
      13A    -11.228950    14A    -11.228645    15A    -11.225003
      16A     -1.289925    17A     -1.217443    18A     -1.149188
      19A     -1.089875    20A     -1.039831    21A     -1.024684
      22A     -1.005673    23A     -0.949167    24A     -0.906815
      25A     -0.847254    26A     -0.845358    27A     -0.823383
      28A     -0.784569    29A     -0.725610    30A     -0.680977
      31A     -0.673444    32A     -0.651089    33A     -0.637049
      34A     -0.623575    35A     -0.609281    36A     -0.599515
      37A     -0.587926    38A     -0.582237    39A     -0.576573
      40A     -0.560215    41A     -0.542773    42A     -0.533990
      43A     -0.523380    44A     -0.515216    45A     -0.508126
      46A     -0.504780    47A     -0.486175    48A     -0.418564
      49A     -0.410112    50A     -0.373433    51A     -0.351600
      52A     -0.335944    53A     -0.285806

  @DF-RHF Final Energy:  -609.52027076220236

   => Energetics <=

    Nuclear Repulsion Energy =            920.8323725330053549
    One-Electron Energy =               -2653.4926726079252148
    Two-Electron Energy =                1123.1400293127176155
    Total Energy =                       -609.5202707622022444
  Basis Set: (AUG-CC-PVTZ AUX)
    Blend: AUG-CC-PVTZ-RI
    Molecular point group: c1

    Geometry (in Angstrom), charge = 0, multiplicity = 1:

       Center              X                  Y                   Z               Mass
    ------------   -----------------  -----------------  -----------------  -----------------
         N           -0.455010590344     1.139691741013    -0.221489954905    14.003074004430
         N            1.803935409656     1.279110741013     0.348614045095    14.003074004430
         C           -1.609351590344     0.313383741013    -0.070290954905    12.000000000000
         C            0.799745409656     0.533338741013    -0.139796954905    12.000000000000
         C           -0.580503590344     2.489794741013     0.329580045095    12.000000000000
         C            1.001788409656    -0.774926258987    -0.631463954905    12.000000000000
         C            3.345572409656    -0.550283258987    -0.071618954905    12.000000000000
         C           -1.719564590344    -0.599530258987     0.988607045095    12.000000000000
         C           -2.664733590344     0.453753741013    -0.978887954905    12.000000000000
         C            2.278775409656    -1.308034258987    -0.582903954905    12.000000000000
         C            3.036770409656     0.735225741013     0.366364045095    12.000000000000
         C           -2.872284590344    -1.373904258987     1.122225045095    12.000000000000
         C           -3.823072590344    -0.310173258987    -0.829164954905    12.000000000000
         C           -3.853126290344    -1.238273058987     0.283461745095    12.000000000000
         C            4.744783409656    -1.096476258987    -0.002853954905    12.000000000000
         H            0.174840409656    -1.341205258987    -1.048796954905     1.007825032230
         H           -0.445822590344     2.507434741013     1.419199045095     1.007825032230
         H           -1.578696590344     2.855406741013     0.081972045095     1.007825032230
         H            0.173825409656     3.136130741013    -0.118693954905     1.007825032230
         H           -0.899332590344    -0.698610258987     1.696325045095     1.007825032230
         H           -2.557215590344     1.155515741013    -1.802823954905     1.007825032230
         H            2.456778409656    -2.315287258987    -0.958196954905     1.007825032230
         H            3.821055409656     1.379479741013     0.766007045095     1.007825032230
         H           -2.952811590344    -2.082313258987     1.943595045095     1.007825032230
         H           -4.638960590344    -0.197485258987    -1.539270954905     1.007825032230
         H            5.100771409656    -1.401608258987    -0.992175954905     1.007825032230
         H            5.436705409656    -0.344214258987     0.386251045095     1.007825032230
         H            4.798098409656    -1.972601258987     0.651711045095     1.007825032230
         H           -4.827694590344    -1.829076258987     0.329322045095     1.007825032230

  Basis Set: AUG-CC-PVTZ
    Blend: AUG-CC-PVTZ
  Basis Set: (AUG-CC-PVTZ AUX)
    Blend: AUG-CC-PVTZ-JKFIT
	 Reference Energy          =    -609.5202707622023581 [Eh]
	 Singles Energy            =      -0.0000000000000000 [Eh]
	 Same-Spin Energy          =      -0.6810383043747099 [Eh]
	 Opposite-Spin Energy      =      -2.1310654672953140 [Eh]
	 Correlation Energy        =      -2.8121037716700239 [Eh]
	 Total Energy              =    -612.3323745338723256 [Eh]

	 ================> DF-SCS-MP2 Energies <==================
	-----------------------------------------------------------
	 SCS Same-Spin Scale       =       0.3333333333333333 [-]
	 SCS Opposite-Spin Scale   =       1.2000000000000000 [-]
	 SCS Same-Spin Energy      =      -0.2270127681249033 [Eh]
	 SCS Opposite-Spin Energy  =      -2.5572785607543769 [Eh]
	 SCS Correlation Energy    =      -2.7842913288792803 [Eh]
	 SCS Total Energy          =    -612.3045620910816069 [Eh]
	-----------------------------------------------------------

  Dipole Moment: [D]
     X:    -0.5063      Y:    -1.4423      Z:    -0.1879     Total:     1.5401

*** Psi4 exiting successfully. Buy a developer a beer!
