                               Psi4 1.4a3.dev225

  ==> Input File <==

--------------------------------------------------------------------------
#psi4
#
memory 32 gb

molecule  {
0 1
  N       -0.4697210     1.1445100    -0.2216410
  N        1.7892250     1.2839290     0.3484630
  C       -1.6240620     0.3182020    -0.0704420
  C        0.7850350     0.5381570    -0.1399480
  C       -0.5952140     2.4946130     0.3294290
  C        0.9870780    -0.7701080    -0.6316150
  C        3.3308620    -0.5454650    -0.0717700
  C       -1.7342750    -0.5947120     0.9884560
  C       -2.6794440     0.4585720    -0.9790390
  C        2.2640650    -1.3032160    -0.5830550
  C        3.0220600     0.7400440     0.3662130
  C       -2.8869950    -1.3690860     1.1220740
  C       -3.8377830    -0.3053550    -0.8293160
  C       -3.9434210    -1.2230030     0.2186750
  C        4.7300730    -1.0916580    -0.0030050
  H        0.1601300    -1.3363870    -1.0489480
  H       -0.4605330     2.5122530     1.4190480
  H       -1.5934070     2.8602250     0.0818210
  H        0.1591150     3.1409490    -0.1188450
  H       -0.9140430    -0.6937920     1.6961740
  H       -2.5719260     1.1603340    -1.8029750
  H        2.4420680    -2.3104690    -0.9583480
  H        3.8063450     1.3842980     0.7658560
  H       -2.9675220    -2.0774950     1.9434440
  H       -4.6536710    -0.1926670    -1.5394220
  H        5.0969423    -1.4668613    -0.9638486
  H        5.4219950    -0.3393960     0.3861000
  H        4.7833880    -1.9677830     0.6515600
  H       -4.8424050    -1.8242580     0.3291710
units angstrom
no_reorient  #important for SAPT in psi4, default
symmetry c1  #important for SAPT in psi4, default
}

set PROPERTIES_ORIGIN ["COM"]
properties('MP2/aug-cc-pvtz', properties = ['dipole'])
--------------------------------------------------------------------------

    Molecular point group: c1
  Charge       = 0
  Multiplicity = 1
  Basis Set: AUG-CC-PVTZ
    Blend: AUG-CC-PVTZ
  Basis Set: (AUG-CC-PVTZ AUX)
    Blend: AUG-CC-PVTZ-JKFIT

    Orbital Energies [Eh]
    ---------------------

    Doubly Occupied:

       1A    -15.572944     2A    -15.549186     3A    -11.308783
       4A    -11.275440     5A    -11.265898     6A    -11.250446
       7A    -11.245261     8A    -11.242095     9A    -11.241872
      10A    -11.238159    11A    -11.237775    12A    -11.236904
      13A    -11.230929    14A    -11.229022    15A    -11.225185
      16A     -1.290310    17A     -1.217561    18A     -1.142334
      19A     -1.089943    20A     -1.038011    21A     -1.018740
      22A     -1.008860    23A     -0.949483    24A     -0.907811
      25A     -0.847131    26A     -0.839457    27A     -0.829431
      28A     -0.785840    29A     -0.724698    30A     -0.685586
      31A     -0.674676    32A     -0.648343    33A     -0.638973
      34A     -0.622872    35A     -0.609889    36A     -0.593852
      37A     -0.588128    38A     -0.583526    39A     -0.571063
      40A     -0.562018    41A     -0.548688    42A     -0.534377
      43A     -0.522083    44A     -0.514582    45A     -0.507941
      46A     -0.500032    47A     -0.498909    48A     -0.417898
      49A     -0.410756    50A     -0.373697    51A     -0.342864
      52A     -0.339004    53A     -0.286511

  @DF-RHF Final Energy:  -609.53318962120511

   => Energetics <=

    Nuclear Repulsion Energy =            919.5472837635725227
    One-Electron Energy =               -2650.9293992359412186
    Two-Electron Energy =                1121.8489258511635853
    Total Energy =                       -609.5331896212051106
  Basis Set: (AUG-CC-PVTZ AUX)
    Blend: AUG-CC-PVTZ-RI
    Molecular point group: c1

    Geometry (in Angstrom), charge = 0, multiplicity = 1:

       Center              X                  Y                   Z               Mass
    ------------   -----------------  -----------------  -----------------  -----------------
         N           -0.450487752626     1.139415124923    -0.217719798570    14.003074004430
         N            1.808458247374     1.278834124923     0.352384201430    14.003074004430
         C           -1.604828752626     0.313107124923    -0.066520798570    12.000000000000
         C            0.804268247374     0.533062124923    -0.136026798570    12.000000000000
         C           -0.575980752626     2.489518124923     0.333350201430    12.000000000000
         C            1.006311247374    -0.775202875077    -0.627693798570    12.000000000000
         C            3.350095247374    -0.550559875077    -0.067848798570    12.000000000000
         C           -1.715041752626    -0.599806875077     0.992377201430    12.000000000000
         C           -2.660210752626     0.453477124923    -0.975117798570    12.000000000000
         C            2.283298247374    -1.308310875077    -0.579133798570    12.000000000000
         C            3.041293247374     0.734949124923     0.370134201430    12.000000000000
         C           -2.867761752626    -1.374180875077     1.125995201430    12.000000000000
         C           -3.818549752626    -0.310449875077    -0.825394798570    12.000000000000
         C           -3.924187752626    -1.228097875077     0.222596201430    12.000000000000
         C            4.749306247374    -1.096752875077     0.000916201430    12.000000000000
         H            0.179363247374    -1.341481875077    -1.045026798570     1.007825032230
         H           -0.441299752626     2.507158124923     1.422969201430     1.007825032230
         H           -1.574173752626     2.855130124923     0.085742201430     1.007825032230
         H            0.178348247374     3.135854124923    -0.114923798570     1.007825032230
         H           -0.894809752626    -0.698886875077     1.700095201430     1.007825032230
         H           -2.552692752626     1.155239124923    -1.799053798570     1.007825032230
         H            2.461301247374    -2.315563875077    -0.954426798570     1.007825032230
         H            3.825578247374     1.379203124923     0.769777201430     1.007825032230
         H           -2.948288752626    -2.082589875077     1.947365201430     1.007825032230
         H           -4.634437752626    -0.197761875077    -1.535500798570     1.007825032230
         H            5.116175547374    -1.471956175077    -0.959927398570     1.007825032230
         H            5.441228247374    -0.344490875077     0.390021201430     1.007825032230
         H            4.802621247374    -1.972877875077     0.655481201430     1.007825032230
         H           -4.823171752626    -1.829352875077     0.333092201430     1.007825032230

  Basis Set: AUG-CC-PVTZ
    Blend: AUG-CC-PVTZ
  Basis Set: (AUG-CC-PVTZ AUX)
    Blend: AUG-CC-PVTZ-JKFIT
	 Reference Energy          =    -609.5331896212051106 [Eh]
	 Singles Energy            =      -0.0000000000000000 [Eh]
	 Same-Spin Energy          =      -0.6811438764575798 [Eh]
	 Opposite-Spin Energy      =      -2.1307235354828582 [Eh]
	 Correlation Energy        =      -2.8118674119404381 [Eh]
	 Total Energy              =    -612.3450570331455083 [Eh]

	 ================> DF-SCS-MP2 Energies <==================
	-----------------------------------------------------------
	 SCS Same-Spin Scale       =       0.3333333333333333 [-]
	 SCS Opposite-Spin Scale   =       1.2000000000000000 [-]
	 SCS Same-Spin Energy      =      -0.2270479588191933 [Eh]
	 SCS Opposite-Spin Energy  =      -2.5568682425794296 [Eh]
	 SCS Correlation Energy    =      -2.7839162013986227 [Eh]
	 SCS Total Energy          =    -612.3171058226037076 [Eh]
	-----------------------------------------------------------

  Dipole Moment: [D]
     X:    -0.5034      Y:    -1.4868      Z:    -0.1621     Total:     1.5780

*** Psi4 exiting successfully. Buy a developer a beer!
