                               Psi4 1.4a3.dev225

  ==> Input File <==

--------------------------------------------------------------------------
#psi4
#
memory 32 gb

molecule  {
0 1
  N       -0.4697210     1.1445100    -0.2216410
  N        1.7892250     1.2839290     0.3484630
  C       -1.6240620     0.3182020    -0.0704420
  C        0.7850350     0.5381570    -0.1399480
  C       -0.5952140     2.4946130     0.3294290
  C        0.9870780    -0.7701080    -0.6316150
  C        3.2897069    -0.6611782     0.0266528
  C       -1.7342750    -0.5947120     0.9884560
  C       -2.6794440     0.4585720    -0.9790390
  C        2.2640650    -1.3032160    -0.5830550
  C        3.0220600     0.7400440     0.3662130
  C       -2.8869950    -1.3690860     1.1220740
  C       -3.8377830    -0.3053550    -0.8293160
  C       -3.9434210    -1.2230030     0.2186750
  C        4.7300730    -1.0916580    -0.0030050
  H        0.1601300    -1.3363870    -1.0489480
  H       -0.4605330     2.5122530     1.4190480
  H       -1.5934070     2.8602250     0.0818210
  H        0.1591150     3.1409490    -0.1188450
  H       -0.9140430    -0.6937920     1.6961740
  H       -2.5719260     1.1603340    -1.8029750
  H        2.4420680    -2.3104690    -0.9583480
  H        3.8063450     1.3842980     0.7658560
  H       -2.9675220    -2.0774950     1.9434440
  H       -4.6536710    -0.1926670    -1.5394220
  H        5.0860610    -1.3967900    -0.9923270
  H        5.4219950    -0.3393960     0.3861000
  H        4.7833880    -1.9677830     0.6515600
  H       -4.8424050    -1.8242580     0.3291710
units angstrom
no_reorient  #important for SAPT in psi4, default
symmetry c1  #important for SAPT in psi4, default
}

set PROPERTIES_ORIGIN ["COM"]
properties('MP2/aug-cc-pvtz', properties = ['dipole'])
--------------------------------------------------------------------------

    Molecular point group: c1
  Charge       = 0
  Multiplicity = 1
  Basis Set: AUG-CC-PVTZ
    Blend: AUG-CC-PVTZ
  Basis Set: (AUG-CC-PVTZ AUX)
    Blend: AUG-CC-PVTZ-JKFIT

    Orbital Energies [Eh]
    ---------------------

    Doubly Occupied:

       1A    -15.571912     2A    -15.553129     3A    -11.307756
       4A    -11.278404     5A    -11.274717     6A    -11.245204
       7A    -11.243463     8A    -11.241340     9A    -11.241137
      10A    -11.237421    11A    -11.236990    12A    -11.236170
      13A    -11.233313    14A    -11.225707    15A    -11.225245
      16A     -1.290175    17A     -1.217233    18A     -1.141530
      19A     -1.095724    20A     -1.033656    21A     -1.017861
      22A     -1.008328    23A     -0.950182    24A     -0.903613
      25A     -0.853496    26A     -0.836547    27A     -0.825297
      28A     -0.783338    29A     -0.724212    30A     -0.685202
      31A     -0.673544    32A     -0.647666    33A     -0.638164
      34A     -0.623635    35A     -0.608806    36A     -0.593433
      37A     -0.587316    38A     -0.583613    39A     -0.576550
      40A     -0.558196    41A     -0.538497    42A     -0.534053
      43A     -0.530165    44A     -0.515453    45A     -0.509310
      46A     -0.499514    47A     -0.498592    48A     -0.416232
      49A     -0.407959    50A     -0.377990    51A     -0.342223
      52A     -0.337371    53A     -0.281649

  @DF-RHF Final Energy:  -609.51967815014973

   => Energetics <=

    Nuclear Repulsion Energy =            919.3725871390282691
    One-Electron Energy =               -2650.5880591683066996
    Two-Electron Energy =                1121.6957938791285869
    Total Energy =                       -609.5196781501497298
  Basis Set: (AUG-CC-PVTZ AUX)
    Blend: AUG-CC-PVTZ-RI
    Molecular point group: c1

    Geometry (in Angstrom), charge = 0, multiplicity = 1:

       Center              X                  Y                   Z               Mass
    ------------   -----------------  -----------------  -----------------  -----------------
         N           -0.447939607020     1.146067494221    -0.223536462088    14.003074004430
         N            1.811006392980     1.285486494221     0.346567537912    14.003074004430
         C           -1.602280607020     0.319759494221    -0.072337462088    12.000000000000
         C            0.806816392980     0.539714494221    -0.141843462088    12.000000000000
         C           -0.573432607020     2.496170494221     0.327533537912    12.000000000000
         C            1.008859392980    -0.768550505779    -0.633510462088    12.000000000000
         C            3.311488292980    -0.659620705779     0.024757337912    12.000000000000
         C           -1.712493607020    -0.593154505779     0.986560537912    12.000000000000
         C           -2.657662607020     0.460129494221    -0.980934462088    12.000000000000
         C            2.285846392980    -1.301658505779    -0.584950462088    12.000000000000
         C            3.043841392980     0.741601494221     0.364317537912    12.000000000000
         C           -2.865213607020    -1.367528505779     1.120178537912    12.000000000000
         C           -3.816001607020    -0.303797505779    -0.831211462088    12.000000000000
         C           -3.921639607020    -1.221445505779     0.216779537912    12.000000000000
         C            4.751854392980    -1.090100505779    -0.004900462088    12.000000000000
         H            0.181911392980    -1.334829505779    -1.050843462088     1.007825032230
         H           -0.438751607020     2.513810494221     1.417152537912     1.007825032230
         H           -1.571625607020     2.861782494221     0.079925537912     1.007825032230
         H            0.180896392980     3.142506494221    -0.120740462088     1.007825032230
         H           -0.892261607020    -0.692234505779     1.694278537912     1.007825032230
         H           -2.550144607020     1.161891494221    -1.804870462088     1.007825032230
         H            2.463849392980    -2.308911505779    -0.960243462088     1.007825032230
         H            3.828126392980     1.385855494221     0.763960537912     1.007825032230
         H           -2.945740607020    -2.075937505779     1.941548537912     1.007825032230
         H           -4.631889607020    -0.191109505779    -1.541317462088     1.007825032230
         H            5.107842392980    -1.395232505779    -0.994222462088     1.007825032230
         H            5.443776392980    -0.337838505779     0.384204537912     1.007825032230
         H            4.805169392980    -1.966225505779     0.649664537912     1.007825032230
         H           -4.820623607020    -1.822700505779     0.327275537912     1.007825032230

  Basis Set: AUG-CC-PVTZ
    Blend: AUG-CC-PVTZ
  Basis Set: (AUG-CC-PVTZ AUX)
    Blend: AUG-CC-PVTZ-JKFIT
	 Reference Energy          =    -609.5196781501497298 [Eh]
	 Singles Energy            =      -0.0000000000000000 [Eh]
	 Same-Spin Energy          =      -0.6818952849260336 [Eh]
	 Opposite-Spin Energy      =      -2.1321380967000318 [Eh]
	 Correlation Energy        =      -2.8140333816260652 [Eh]
	 Total Energy              =    -612.3337115317757480 [Eh]

	 ================> DF-SCS-MP2 Energies <==================
	-----------------------------------------------------------
	 SCS Same-Spin Scale       =       0.3333333333333333 [-]
	 SCS Opposite-Spin Scale   =       1.2000000000000000 [-]
	 SCS Same-Spin Energy      =      -0.2272984283086779 [Eh]
	 SCS Opposite-Spin Energy  =      -2.5585657160400381 [Eh]
	 SCS Correlation Energy    =      -2.7858641443487158 [Eh]
	 SCS Total Energy          =    -612.3055422944984230 [Eh]
	-----------------------------------------------------------

  Dipole Moment: [D]
     X:    -0.4170      Y:    -1.3596      Z:    -0.1648     Total:     1.4316

*** Psi4 exiting successfully. Buy a developer a beer!
