                               Psi4 1.4a3.dev225

  ==> Input File <==

--------------------------------------------------------------------------
#psi4
#
memory 32 gb

molecule  {
0 1
  N       -0.4697210     1.1445100    -0.2216410
  N        1.7892250     1.2839290     0.3484630
  C       -1.6240620     0.3182020    -0.0704420
  C        0.7850350     0.5381570    -0.1399480
  C       -0.5952140     2.4946130     0.3294290
  C        0.9870780    -0.7701080    -0.6316150
  C        3.3308620    -0.5454650    -0.0717700
  C       -1.7342750    -0.5947120     0.9884560
  C       -2.6794440     0.4585720    -0.9790390
  C        2.2640650    -1.3032160    -0.5830550
  C        3.0220600     0.7400440     0.3662130
  C       -2.8869950    -1.3690860     1.1220740
  C       -3.8377830    -0.3053550    -0.8293160
  C       -3.9434210    -1.2230030     0.2186750
  C        4.7300730    -1.0916580    -0.0030050
  H        0.1601300    -1.3363870    -1.0489480
  H       -0.4605330     2.5122530     1.4190480
  H       -1.5934070     2.8602250     0.0818210
  H        0.1591150     3.1409490    -0.1188450
  H       -0.9140430    -0.6937920     1.6961740
  H       -2.5719260     1.1603340    -1.8029750
  H        2.4257305    -2.2180211    -0.9239028
  H        3.8063450     1.3842980     0.7658560
  H       -2.9675220    -2.0774950     1.9434440
  H       -4.6536710    -0.1926670    -1.5394220
  H        5.0860610    -1.3967900    -0.9923270
  H        5.4219950    -0.3393960     0.3861000
  H        4.7833880    -1.9677830     0.6515600
  H       -4.8424050    -1.8242580     0.3291710
units angstrom
no_reorient  #important for SAPT in psi4, default
symmetry c1  #important for SAPT in psi4, default
}

set PROPERTIES_ORIGIN ["COM"]
properties('MP2/aug-cc-pvtz', properties = ['dipole'])
--------------------------------------------------------------------------

    Molecular point group: c1
  Charge       = 0
  Multiplicity = 1
  Basis Set: AUG-CC-PVTZ
    Blend: AUG-CC-PVTZ
  Basis Set: (AUG-CC-PVTZ AUX)
    Blend: AUG-CC-PVTZ-JKFIT

    Orbital Energies [Eh]
    ---------------------

    Doubly Occupied:

       1A    -15.572502     2A    -15.548738     3A    -11.308016
       4A    -11.275242     5A    -11.264906     6A    -11.244966
       7A    -11.241958     8A    -11.241733     9A    -11.238361
      10A    -11.238012    11A    -11.237603    12A    -11.236731
      13A    -11.229533    14A    -11.228198    15A    -11.225232
      16A     -1.289828    17A     -1.217106    18A     -1.142173
      19A     -1.092502    20A     -1.038017    21A     -1.018616
      22A     -1.008675    23A     -0.950399    24A     -0.907513
      25A     -0.853080    26A     -0.839177    27A     -0.829935
      28A     -0.789109    29A     -0.727415    30A     -0.687294
      31A     -0.674129    32A     -0.648110    33A     -0.639584
      34A     -0.624610    35A     -0.612612    36A     -0.594528
      37A     -0.587881    38A     -0.585149    39A     -0.577082
      40A     -0.566652    41A     -0.543425    42A     -0.536035
      43A     -0.523042    44A     -0.514280    45A     -0.507567
      46A     -0.499900    47A     -0.498565    48A     -0.417803
      49A     -0.410433    50A     -0.373262    51A     -0.342709
      52A     -0.338823    53A     -0.286105

  @DF-RHF Final Energy:  -609.52799476555344

   => Energetics <=

    Nuclear Repulsion Energy =            920.1857525827995232
    One-Electron Energy =               -2652.1777817279771625
    Two-Electron Energy =                1122.4640343796243087
    Total Energy =                       -609.5279947655533306
  Basis Set: (AUG-CC-PVTZ AUX)
    Blend: AUG-CC-PVTZ-RI
    Molecular point group: c1

    Geometry (in Angstrom), charge = 0, multiplicity = 1:

       Center              X                  Y                   Z               Mass
    ------------   -----------------  -----------------  -----------------  -----------------
         N           -0.450349289151     1.138588381161    -0.217750151997    14.003074004430
         N            1.808596710849     1.278007381161     0.352353848003    14.003074004430
         C           -1.604690289151     0.312280381161    -0.066551151997    12.000000000000
         C            0.804406710849     0.532235381161    -0.136057151997    12.000000000000
         C           -0.575842289151     2.488691381161     0.333319848003    12.000000000000
         C            1.006449710849    -0.776029618839    -0.627724151997    12.000000000000
         C            3.350233710849    -0.551386618839    -0.067879151997    12.000000000000
         C           -1.714903289151    -0.600633618839     0.992346848003    12.000000000000
         C           -2.660072289151     0.452650381161    -0.975148151997    12.000000000000
         C            2.283436710849    -1.309137618839    -0.579164151997    12.000000000000
         C            3.041431710849     0.734122381161     0.370103848003    12.000000000000
         C           -2.867623289151    -1.375007618839     1.125964848003    12.000000000000
         C           -3.818411289151    -0.311276618839    -0.825425151997    12.000000000000
         C           -3.924049289151    -1.228924618839     0.222565848003    12.000000000000
         C            4.749444710849    -1.097579618839     0.000885848003    12.000000000000
         H            0.179501710849    -1.342308618839    -1.045057151997     1.007825032230
         H           -0.441161289151     2.506331381161     1.422938848003     1.007825032230
         H           -1.574035289151     2.854303381161     0.085711848003     1.007825032230
         H            0.178486710849     3.135027381161    -0.114954151997     1.007825032230
         H           -0.894671289151    -0.699713618839     1.700064848003     1.007825032230
         H           -2.552554289151     1.154412381161    -1.799084151997     1.007825032230
         H            2.445102210849    -2.223942718839    -0.920011951997     1.007825032230
         H            3.825716710849     1.378376381161     0.769746848003     1.007825032230
         H           -2.948150289151    -2.083416618839     1.947334848003     1.007825032230
         H           -4.634299289151    -0.198588618839    -1.535531151997     1.007825032230
         H            5.105432710849    -1.402711618839    -0.988436151997     1.007825032230
         H            5.441366710849    -0.345317618839     0.389990848003     1.007825032230
         H            4.802759710849    -1.973704618839     0.655450848003     1.007825032230
         H           -4.823033289151    -1.830179618839     0.333061848003     1.007825032230

  Basis Set: AUG-CC-PVTZ
    Blend: AUG-CC-PVTZ
  Basis Set: (AUG-CC-PVTZ AUX)
    Blend: AUG-CC-PVTZ-JKFIT
	 Reference Energy          =    -609.5279947655534443 [Eh]
	 Singles Energy            =      -0.0000000000000000 [Eh]
	 Same-Spin Energy          =      -0.6809807230597633 [Eh]
	 Opposite-Spin Energy      =      -2.1302353829193059 [Eh]
	 Correlation Energy        =      -2.8112161059790690 [Eh]
	 Total Energy              =    -612.3392108715324866 [Eh]

	 ================> DF-SCS-MP2 Energies <==================
	-----------------------------------------------------------
	 SCS Same-Spin Scale       =       0.3333333333333333 [-]
	 SCS Opposite-Spin Scale   =       1.2000000000000000 [-]
	 SCS Same-Spin Energy      =      -0.2269935743532544 [Eh]
	 SCS Opposite-Spin Energy  =      -2.5562824595031670 [Eh]
	 SCS Correlation Energy    =      -2.7832760338564215 [Eh]
	 SCS Total Energy          =    -612.3112707994098400 [Eh]
	-----------------------------------------------------------

  Dipole Moment: [D]
     X:    -0.4785      Y:    -1.4928      Z:    -0.1784     Total:     1.5777

*** Psi4 exiting successfully. Buy a developer a beer!
