                               Psi4 1.4a3.dev225

  ==> Input File <==

--------------------------------------------------------------------------
#psi4
#
memory 32 gb

molecule  {
0 1
  N       -0.4697210     1.1445100    -0.2216410
  N        1.7892250     1.2839290     0.3484630
  C       -1.6240620     0.3182020    -0.0704420
  C        0.7850350     0.5381570    -0.1399480
  C       -0.5952140     2.4946130     0.3294290
  C        0.9870780    -0.7701080    -0.6316150
  C        3.3308620    -0.5454650    -0.0717700
  C       -1.7537489    -0.5740839     0.9488772
  C       -2.6794440     0.4585720    -0.9790390
  C        2.2640650    -1.3032160    -0.5830550
  C        3.0220600     0.7400440     0.3662130
  C       -2.8869950    -1.3690860     1.1220740
  C       -3.8377830    -0.3053550    -0.8293160
  C       -3.9434210    -1.2230030     0.2186750
  C        4.7300730    -1.0916580    -0.0030050
  H        0.1601300    -1.3363870    -1.0489480
  H       -0.4605330     2.5122530     1.4190480
  H       -1.5934070     2.8602250     0.0818210
  H        0.1591150     3.1409490    -0.1188450
  H       -0.9140430    -0.6937920     1.6961740
  H       -2.5719260     1.1603340    -1.8029750
  H        2.4420680    -2.3104690    -0.9583480
  H        3.8063450     1.3842980     0.7658560
  H       -2.9675220    -2.0774950     1.9434440
  H       -4.6536710    -0.1926670    -1.5394220
  H        5.0860610    -1.3967900    -0.9923270
  H        5.4219950    -0.3393960     0.3861000
  H        4.7833880    -1.9677830     0.6515600
  H       -4.8424050    -1.8242580     0.3291710
units angstrom
no_reorient  #important for SAPT in psi4, default
symmetry c1  #important for SAPT in psi4, default
}

set PROPERTIES_ORIGIN ["COM"]
properties('MP2/aug-cc-pvtz', properties = ['dipole'])
--------------------------------------------------------------------------

    Molecular point group: c1
  Charge       = 0
  Multiplicity = 1
  Basis Set: AUG-CC-PVTZ
    Blend: AUG-CC-PVTZ
  Basis Set: (AUG-CC-PVTZ AUX)
    Blend: AUG-CC-PVTZ-JKFIT

    Orbital Energies [Eh]
    ---------------------

    Doubly Occupied:

       1A    -15.572891     2A    -15.548801     3A    -11.308507
       4A    -11.270442     5A    -11.265381     6A    -11.250096
       7A    -11.245234     8A    -11.241905     9A    -11.241059
      10A    -11.238365    11A    -11.237199    12A    -11.236672
      13A    -11.230190    14A    -11.228801    15A    -11.225036
      16A     -1.290461    17A     -1.218238    18A     -1.145567
      19A     -1.089788    20A     -1.037982    21A     -1.018309
      22A     -1.012281    23A     -0.949309    24A     -0.907464
      25A     -0.846836    26A     -0.837354    27A     -0.832060
      28A     -0.786300    29A     -0.725147    30A     -0.684415
      31A     -0.673929    32A     -0.649010    33A     -0.636792
      34A     -0.621948    35A     -0.611653    36A     -0.593532
      37A     -0.588351    38A     -0.580942    39A     -0.576443
      40A     -0.561227    41A     -0.543098    42A     -0.534000
      43A     -0.523112    44A     -0.515531    45A     -0.509368
      46A     -0.502314    47A     -0.492618    48A     -0.418791
      49A     -0.410300    50A     -0.373416    51A     -0.346310
      52A     -0.338090    53A     -0.287339

  @DF-RHF Final Energy:  -609.53127901482947

   => Energetics <=

    Nuclear Repulsion Energy =            920.3887111882654608
    One-Electron Energy =               -2652.6195769209962236
    Two-Electron Energy =                1122.6995867179011839
    Total Energy =                       -609.5312790148295790
  Basis Set: (AUG-CC-PVTZ AUX)
    Blend: AUG-CC-PVTZ-RI
    Molecular point group: c1

    Geometry (in Angstrom), charge = 0, multiplicity = 1:

       Center              X                  Y                   Z               Mass
    ------------   -----------------  -----------------  -----------------  -----------------
         N           -0.449252851765     1.137809210740    -0.215177613128    14.003074004430
         N            1.809693148235     1.277228210740     0.354926386872    14.003074004430
         C           -1.603593851765     0.311501210740    -0.063978613128    12.000000000000
         C            0.805503148235     0.531456210740    -0.133484613128    12.000000000000
         C           -0.574745851765     2.487912210740     0.335892386872    12.000000000000
         C            1.007546148235    -0.776808789260    -0.625151613128    12.000000000000
         C            3.351330148235    -0.552165789260    -0.065306613128    12.000000000000
         C           -1.733280751765    -0.580784689260     0.955340586872    12.000000000000
         C           -2.658975851765     0.451871210740    -0.972575613128    12.000000000000
         C            2.284533148235    -1.309916789260    -0.576591613128    12.000000000000
         C            3.042528148235     0.733343210740     0.372676386872    12.000000000000
         C           -2.866526851765    -1.375786789260     1.128537386872    12.000000000000
         C           -3.817314851765    -0.312055789260    -0.822852613128    12.000000000000
         C           -3.922952851765    -1.229703789260     0.225138386872    12.000000000000
         C            4.750541148235    -1.098358789260     0.003458386872    12.000000000000
         H            0.180598148235    -1.343087789260    -1.042484613128     1.007825032230
         H           -0.440064851765     2.505552210740     1.425511386872     1.007825032230
         H           -1.572938851765     2.853524210740     0.088284386872     1.007825032230
         H            0.179583148235     3.134248210740    -0.112381613128     1.007825032230
         H           -0.893574851765    -0.700492789260     1.702637386872     1.007825032230
         H           -2.551457851765     1.153633210740    -1.796511613128     1.007825032230
         H            2.462536148235    -2.317169789260    -0.951884613128     1.007825032230
         H            3.826813148235     1.377597210740     0.772319386872     1.007825032230
         H           -2.947053851765    -2.084195789260     1.949907386872     1.007825032230
         H           -4.633202851765    -0.199367789260    -1.532958613128     1.007825032230
         H            5.106529148235    -1.403490789260    -0.985863613128     1.007825032230
         H            5.442463148235    -0.346096789260     0.392563386872     1.007825032230
         H            4.803856148235    -1.974483789260     0.658023386872     1.007825032230
         H           -4.821936851765    -1.830958789260     0.335634386872     1.007825032230

  Basis Set: AUG-CC-PVTZ
    Blend: AUG-CC-PVTZ
  Basis Set: (AUG-CC-PVTZ AUX)
    Blend: AUG-CC-PVTZ-JKFIT
	 Reference Energy          =    -609.5312790148294653 [Eh]
	 Singles Energy            =      -0.0000000000000000 [Eh]
	 Same-Spin Energy          =      -0.6811371118103480 [Eh]
	 Opposite-Spin Energy      =      -2.1306185081472906 [Eh]
	 Correlation Energy        =      -2.8117556199576388 [Eh]
	 Total Energy              =    -612.3430346347871591 [Eh]

	 ================> DF-SCS-MP2 Energies <==================
	-----------------------------------------------------------
	 SCS Same-Spin Scale       =       0.3333333333333333 [-]
	 SCS Opposite-Spin Scale   =       1.2000000000000000 [-]
	 SCS Same-Spin Energy      =      -0.2270457039367826 [Eh]
	 SCS Opposite-Spin Energy  =      -2.5567422097767487 [Eh]
	 SCS Correlation Energy    =      -2.7837879137135313 [Eh]
	 SCS Total Energy          =    -612.3150669285430467 [Eh]
	-----------------------------------------------------------

  Dipole Moment: [D]
     X:    -0.5199      Y:    -1.4805      Z:    -0.1575     Total:     1.5770

*** Psi4 exiting successfully. Buy a developer a beer!
