                               Psi4 1.4a3.dev225

  ==> Input File <==

--------------------------------------------------------------------------
#psi4
#
memory 32 gb

molecule  {
0 1
  N       -0.4697210     1.1445100    -0.2216410
  N        1.7892250     1.2839290     0.3484630
  C       -1.6240620     0.3182020    -0.0704420
  C        0.7850350     0.5381570    -0.1399480
  C       -0.5952140     2.4946130     0.3294290
  C        0.9870780    -0.7701080    -0.6316150
  C        3.3308620    -0.5454650    -0.0717700
  C       -1.7342750    -0.5947120     0.9884560
  C       -2.6794440     0.4585720    -0.9790390
  C        2.2640650    -1.3032160    -0.5830550
  C        3.0220600     0.7400440     0.3662130
  C       -2.8869950    -1.3690860     1.1220740
  C       -3.8377830    -0.3053550    -0.8293160
  C       -3.9434210    -1.2230030     0.2186750
  C        4.7300730    -1.0916580    -0.0030050
  H        0.1601300    -1.3363870    -1.0489480
  H       -0.4605330     2.5122530     1.4190480
  H       -1.5934070     2.8602250     0.0818210
  H        0.1591150     3.1409490    -0.1188450
  H       -0.9140430    -0.6937920     1.6961740
  H       -2.5719260     1.1603340    -1.8029750
  H        2.4420680    -2.3104690    -0.9583480
  H        3.8063450     1.3842980     0.7658560
  H       -2.9675220    -2.0774950     1.9434440
  H       -4.6536710    -0.1926670    -1.5394220
  H        5.0860610    -1.3967900    -0.9923270
  H        5.2954598    -0.4769658     0.3149425
  H        4.7833880    -1.9677830     0.6515600
  H       -4.8424050    -1.8242580     0.3291710
units angstrom
no_reorient  #important for SAPT in psi4, default
symmetry c1  #important for SAPT in psi4, default
}

set PROPERTIES_ORIGIN ["COM"]
properties('MP2/aug-cc-pvtz', properties = ['dipole'])
--------------------------------------------------------------------------

    Molecular point group: c1
  Charge       = 0
  Multiplicity = 1
  Basis Set: AUG-CC-PVTZ
    Blend: AUG-CC-PVTZ
  Basis Set: (AUG-CC-PVTZ AUX)
    Blend: AUG-CC-PVTZ-JKFIT

    Orbital Energies [Eh]
    ---------------------

    Doubly Occupied:

       1A    -15.572506     2A    -15.548710     3A    -11.308143
       4A    -11.275145     5A    -11.265299     6A    -11.249082
       7A    -11.244970     8A    -11.241844     9A    -11.241625
      10A    -11.237905    11A    -11.237493    12A    -11.236632
      13A    -11.229110    14A    -11.228325    15A    -11.200571
      16A     -1.289830    17A     -1.217121    18A     -1.142097
      19A     -1.091957    20A     -1.041767    21A     -1.018641
      22A     -1.009728    23A     -0.962154    24A     -0.911301
      25A     -0.849501    26A     -0.840244    27A     -0.829491
      28A     -0.786004    29A     -0.724273    30A     -0.686283
      31A     -0.678194    32A     -0.648255    33A     -0.639830
      34A     -0.625562    35A     -0.609485    36A     -0.595819
      37A     -0.593510    38A     -0.585336    39A     -0.575284
      40A     -0.564956    41A     -0.558997    42A     -0.533979
      43A     -0.523342    44A     -0.517034    45A     -0.508178
      46A     -0.499853    47A     -0.498724    48A     -0.417684
      49A     -0.409951    50A     -0.372988    51A     -0.342579
      52A     -0.338740    53A     -0.286098

  @DF-RHF Final Energy:  -609.49986285332318

   => Energetics <=

    Nuclear Repulsion Energy =            920.6109900243004631
    One-Electron Energy =               -2652.9374479410139429
    Two-Electron Energy =                1122.8265950633904140
    Total Energy =                       -609.4998628533230658
  Basis Set: (AUG-CC-PVTZ AUX)
    Blend: AUG-CC-PVTZ-RI
    Molecular point group: c1

    Geometry (in Angstrom), charge = 0, multiplicity = 1:

       Center              X                  Y                   Z               Mass
    ------------   -----------------  -----------------  -----------------  -----------------
         N           -0.449788707625     1.139758493361    -0.217212945479    14.003074004430
         N            1.809157292375     1.279177493361     0.352891054521    14.003074004430
         C           -1.604129707625     0.313450493361    -0.066013945479    12.000000000000
         C            0.804967292375     0.533405493361    -0.135519945479    12.000000000000
         C           -0.575281707625     2.489861493361     0.333857054521    12.000000000000
         C            1.007010292375    -0.774859506639    -0.627186945479    12.000000000000
         C            3.350794292375    -0.550216506639    -0.067341945479    12.000000000000
         C           -1.714342707625    -0.599463506639     0.992884054521    12.000000000000
         C           -2.659511707625     0.453820493361    -0.974610945479    12.000000000000
         C            2.283997292375    -1.307967506639    -0.578626945479    12.000000000000
         C            3.041992292375     0.735292493361     0.370641054521    12.000000000000
         C           -2.867062707625    -1.373837506639     1.126502054521    12.000000000000
         C           -3.817850707625    -0.310106506639    -0.824887945479    12.000000000000
         C           -3.923488707625    -1.227754506639     0.223103054521    12.000000000000
         C            4.750005292375    -1.096409506639     0.001423054521    12.000000000000
         H            0.180062292375    -1.341138506639    -1.044519945479     1.007825032230
         H           -0.440600707625     2.507501493361     1.423476054521     1.007825032230
         H           -1.573474707625     2.855473493361     0.086249054521     1.007825032230
         H            0.179047292375     3.136197493361    -0.114416945479     1.007825032230
         H           -0.894110707625    -0.698543506639     1.700602054521     1.007825032230
         H           -2.551993707625     1.155582493361    -1.798546945479     1.007825032230
         H            2.462000292375    -2.315220506639    -0.953919945479     1.007825032230
         H            3.826277292375     1.379546493361     0.770284054521     1.007825032230
         H           -2.947589707625    -2.082246506639     1.947872054521     1.007825032230
         H           -4.633738707625    -0.197418506639    -1.534993945479     1.007825032230
         H            5.105993292375    -1.401541506639    -0.987898945479     1.007825032230
         H            5.315392092375    -0.481717306639     0.319370554521     1.007825032230
         H            4.803320292375    -1.972534506639     0.655988054521     1.007825032230
         H           -4.822472707625    -1.829009506639     0.333599054521     1.007825032230

  Basis Set: AUG-CC-PVTZ
    Blend: AUG-CC-PVTZ
  Basis Set: (AUG-CC-PVTZ AUX)
    Blend: AUG-CC-PVTZ-JKFIT
	 Reference Energy          =    -609.4998628533231795 [Eh]
	 Singles Energy            =      -0.0000000000000000 [Eh]
	 Same-Spin Energy          =      -0.6811760382060661 [Eh]
	 Opposite-Spin Energy      =      -2.1299924834539659 [Eh]
	 Correlation Energy        =      -2.8111685216600319 [Eh]
	 Total Energy              =    -612.3110313749832585 [Eh]

	 ================> DF-SCS-MP2 Energies <==================
	-----------------------------------------------------------
	 SCS Same-Spin Scale       =       0.3333333333333333 [-]
	 SCS Opposite-Spin Scale   =       1.2000000000000000 [-]
	 SCS Same-Spin Energy      =      -0.2270586794020220 [Eh]
	 SCS Opposite-Spin Energy  =      -2.5559909801447591 [Eh]
	 SCS Correlation Energy    =      -2.7830496595467813 [Eh]
	 SCS Total Energy          =    -612.2829125128699843 [Eh]
	-----------------------------------------------------------

  Dipole Moment: [D]
     X:    -0.4005      Y:    -1.4413      Z:    -0.1438     Total:     1.5028

*** Psi4 exiting successfully. Buy a developer a beer!
