                               Psi4 1.4a3.dev225

  ==> Input File <==

--------------------------------------------------------------------------
#psi4
#
memory 32 gb

molecule  {
0 1
  N       -0.4697210     1.1445100    -0.2216410
  N        1.7892250     1.2839290     0.3484630
  C       -1.6240620     0.3182020    -0.0704420
  C        0.7850350     0.5381570    -0.1399480
  C       -0.5952140     2.4946130     0.3294290
  C        0.9870780    -0.7701080    -0.6316150
  C        3.3308620    -0.5454650    -0.0717700
  C       -1.7342750    -0.5947120     0.9884560
  C       -2.6794440     0.4585720    -0.9790390
  C        2.2640650    -1.3032160    -0.5830550
  C        3.0220600     0.7400440     0.3662130
  C       -2.8869950    -1.3690860     1.1220740
  C       -3.7547847    -0.2506175    -0.8400441
  C       -3.9434210    -1.2230030     0.2186750
  C        4.7300730    -1.0916580    -0.0030050
  H        0.1601300    -1.3363870    -1.0489480
  H       -0.4605330     2.5122530     1.4190480
  H       -1.5934070     2.8602250     0.0818210
  H        0.1591150     3.1409490    -0.1188450
  H       -0.9140430    -0.6937920     1.6961740
  H       -2.5719260     1.1603340    -1.8029750
  H        2.4420680    -2.3104690    -0.9583480
  H        3.8063450     1.3842980     0.7658560
  H       -2.9675220    -2.0774950     1.9434440
  H       -4.6536710    -0.1926670    -1.5394220
  H        5.0860610    -1.3967900    -0.9923270
  H        5.4219950    -0.3393960     0.3861000
  H        4.7833880    -1.9677830     0.6515600
  H       -4.8424050    -1.8242580     0.3291710
units angstrom
no_reorient  #important for SAPT in psi4, default
symmetry c1  #important for SAPT in psi4, default
}

set PROPERTIES_ORIGIN ["COM"]
properties('MP2/aug-cc-pvtz', properties = ['dipole'])
--------------------------------------------------------------------------

    Molecular point group: c1
  Charge       = 0
  Multiplicity = 1
  Basis Set: AUG-CC-PVTZ
    Blend: AUG-CC-PVTZ
  Basis Set: (AUG-CC-PVTZ AUX)
    Blend: AUG-CC-PVTZ-JKFIT

    Orbital Energies [Eh]
    ---------------------

    Doubly Occupied:

       1A    -15.573207     2A    -15.549058     3A    -11.308738
       4A    -11.276142     5A    -11.265540     6A    -11.250233
       7A    -11.245811     8A    -11.242730     9A    -11.241080
      10A    -11.239495    11A    -11.236081    12A    -11.230388
      13A    -11.228977    14A    -11.225274    15A    -11.225187
      16A     -1.290493    17A     -1.218196    18A     -1.147842
      19A     -1.089905    20A     -1.038900    21A     -1.030575
      22A     -1.002487    23A     -0.949529    24A     -0.908022
      25A     -0.847032    26A     -0.841878    27A     -0.822870
      28A     -0.787070    29A     -0.723522    30A     -0.686777
      31A     -0.674647    32A     -0.651344    33A     -0.637002
      34A     -0.621968    35A     -0.605132    36A     -0.595043
      37A     -0.589492    38A     -0.582499    39A     -0.576710
      40A     -0.561687    41A     -0.543571    42A     -0.536399
      43A     -0.523715    44A     -0.521330    45A     -0.509562
      46A     -0.502863    47A     -0.481808    48A     -0.417393
      49A     -0.410348    50A     -0.373965    51A     -0.354633
      52A     -0.334781    53A     -0.284959

  @DF-RHF Final Energy:  -609.52004766481878

   => Energetics <=

    Nuclear Repulsion Energy =            921.0772168169196448
    One-Electron Energy =               -2653.9667465894021916
    Two-Electron Energy =                1123.3694821076637709
    Total Energy =                       -609.5200476648187760
  Basis Set: (AUG-CC-PVTZ AUX)
    Blend: AUG-CC-PVTZ-RI
    Molecular point group: c1

    Geometry (in Angstrom), charge = 0, multiplicity = 1:

       Center              X                  Y                   Z               Mass
    ------------   -----------------  -----------------  -----------------  -----------------
         N           -0.455459661269     1.135743181630    -0.216925119271    14.003074004430
         N            1.803486338731     1.275162181630     0.353178880729    14.003074004430
         C           -1.609800661269     0.309435181630    -0.065726119271    12.000000000000
         C            0.799296338731     0.529390181630    -0.135232119271    12.000000000000
         C           -0.580952661269     2.485846181630     0.334144880729    12.000000000000
         C            1.001339338731    -0.778874818370    -0.626899119271    12.000000000000
         C            3.345123338731    -0.554231818370    -0.067054119271    12.000000000000
         C           -1.720013661269    -0.603478818370     0.993171880729    12.000000000000
         C           -2.665182661269     0.449805181630    -0.974323119271    12.000000000000
         C            2.278326338731    -1.311982818370    -0.578339119271    12.000000000000
         C            3.036321338731     0.731277181630     0.370928880729    12.000000000000
         C           -2.872733661269    -1.377852818370     1.126789880729    12.000000000000
         C           -3.740523361269    -0.259384318370    -0.835328219271    12.000000000000
         C           -3.929159661269    -1.231769818370     0.223390880729    12.000000000000
         C            4.744334338731    -1.100424818370     0.001710880729    12.000000000000
         H            0.174391338731    -1.345153818370    -1.044232119271     1.007825032230
         H           -0.446271661269     2.503486181630     1.423763880729     1.007825032230
         H           -1.579145661269     2.851458181630     0.086536880729     1.007825032230
         H            0.173376338731     3.132182181630    -0.114129119271     1.007825032230
         H           -0.899781661269    -0.702558818370     1.700889880729     1.007825032230
         H           -2.557664661269     1.151567181630    -1.798259119271     1.007825032230
         H            2.456329338731    -2.319235818370    -0.953632119271     1.007825032230
         H            3.820606338731     1.375531181630     0.770571880729     1.007825032230
         H           -2.953260661269    -2.086261818370     1.948159880729     1.007825032230
         H           -4.639409661269    -0.201433818370    -1.534706119271     1.007825032230
         H            5.100322338731    -1.405556818370    -0.987611119271     1.007825032230
         H            5.436256338731    -0.348162818370     0.390815880729     1.007825032230
         H            4.797649338731    -1.976549818370     0.656275880729     1.007825032230
         H           -4.828143661269    -1.833024818370     0.333886880729     1.007825032230

  Basis Set: AUG-CC-PVTZ
    Blend: AUG-CC-PVTZ
  Basis Set: (AUG-CC-PVTZ AUX)
    Blend: AUG-CC-PVTZ-JKFIT
	 Reference Energy          =    -609.5200476648187760 [Eh]
	 Singles Energy            =      -0.0000000000000000 [Eh]
	 Same-Spin Energy          =      -0.6810871075515267 [Eh]
	 Opposite-Spin Energy      =      -2.1311316319097502 [Eh]
	 Correlation Energy        =      -2.8122187394612768 [Eh]
	 Total Energy              =    -612.3322664042800625 [Eh]

	 ================> DF-SCS-MP2 Energies <==================
	-----------------------------------------------------------
	 SCS Same-Spin Scale       =       0.3333333333333333 [-]
	 SCS Opposite-Spin Scale   =       1.2000000000000000 [-]
	 SCS Same-Spin Energy      =      -0.2270290358505089 [Eh]
	 SCS Opposite-Spin Energy  =      -2.5573579582917003 [Eh]
	 SCS Correlation Energy    =      -2.7843869941422090 [Eh]
	 SCS Total Energy          =    -612.3044346589609859 [Eh]
	-----------------------------------------------------------

  Dipole Moment: [D]
     X:    -0.4768      Y:    -1.4705      Z:    -0.1409     Total:     1.5523

*** Psi4 exiting successfully. Buy a developer a beer!
