                               Psi4 1.4a3.dev225

  ==> Input File <==

--------------------------------------------------------------------------
#psi4
#
memory 32 gb

molecule  {
0 1
  N       -0.4697210     1.1445100    -0.2216410
  N        1.7892250     1.2839290     0.3484630
  C       -1.6240620     0.3182020    -0.0704420
  C        0.7850350     0.5381570    -0.1399480
  C       -0.5952140     2.4946130     0.3294290
  C        0.9870780    -0.7701080    -0.6316150
  C        3.3308620    -0.5454650    -0.0717700
  C       -1.7342750    -0.5947120     0.9884560
  C       -2.6794440     0.4585720    -0.9790390
  C        2.2640650    -1.3032160    -0.5830550
  C        3.0220600     0.7400440     0.3662130
  C       -2.8869950    -1.3690860     1.1220740
  C       -3.8377830    -0.3053550    -0.8293160
  C       -3.9434210    -1.2230030     0.2186750
  C        4.7300730    -1.0916580    -0.0030050
  H        0.1601300    -1.3363870    -1.0489480
  H       -0.4605330     2.5122530     1.4190480
  H       -1.6116973     2.8669243     0.0772840
  H        0.1591150     3.1409490    -0.1188450
  H       -0.9140430    -0.6937920     1.6961740
  H       -2.5719260     1.1603340    -1.8029750
  H        2.4420680    -2.3104690    -0.9583480
  H        3.8063450     1.3842980     0.7658560
  H       -2.9675220    -2.0774950     1.9434440
  H       -4.6536710    -0.1926670    -1.5394220
  H        5.0860610    -1.3967900    -0.9923270
  H        5.4219950    -0.3393960     0.3861000
  H        4.7833880    -1.9677830     0.6515600
  H       -4.8424050    -1.8242580     0.3291710
units angstrom
no_reorient  #important for SAPT in psi4, default
symmetry c1  #important for SAPT in psi4, default
}

set PROPERTIES_ORIGIN ["COM"]
properties('MP2/aug-cc-pvtz', properties = ['dipole'])
--------------------------------------------------------------------------

    Molecular point group: c1
  Charge       = 0
  Multiplicity = 1
  Basis Set: AUG-CC-PVTZ
    Blend: AUG-CC-PVTZ
  Basis Set: (AUG-CC-PVTZ AUX)
    Blend: AUG-CC-PVTZ-JKFIT

    Orbital Energies [Eh]
    ---------------------

    Doubly Occupied:

       1A    -15.573037     2A    -15.549147     3A    -11.308779
       4A    -11.275374     5A    -11.265679     6A    -11.250357
       7A    -11.247601     8A    -11.242015     9A    -11.241787
      10A    -11.238075    11A    -11.237696    12A    -11.236807
      13A    -11.230482    14A    -11.229012    15A    -11.225244
      16A     -1.290287    17A     -1.217470    18A     -1.142246
      19A     -1.090029    20A     -1.037980    21A     -1.018662
      22A     -1.008662    23A     -0.948669    24A     -0.906927
      25A     -0.846778    26A     -0.839227    27A     -0.829235
      28A     -0.785465    29A     -0.724507    30A     -0.685480
      31A     -0.674277    32A     -0.648309    33A     -0.638242
      34A     -0.622730    35A     -0.609440    36A     -0.593582
      37A     -0.588171    38A     -0.583483    39A     -0.576620
      40A     -0.561584    41A     -0.543208    42A     -0.531950
      43A     -0.523190    44A     -0.514617    45A     -0.507850
      46A     -0.500017    47A     -0.498707    48A     -0.418133
      49A     -0.410473    50A     -0.373745    51A     -0.342841
      52A     -0.338916    53A     -0.286584

  @DF-RHF Final Energy:  -609.53315760578710

   => Energetics <=

    Nuclear Repulsion Energy =            919.5128753742650360
    One-Electron Energy =               -2650.8733015617049205
    Two-Electron Energy =                1121.8272685816527883
    Total Energy =                       -609.5331576057869825
  Basis Set: (AUG-CC-PVTZ AUX)
    Blend: AUG-CC-PVTZ-RI
    Molecular point group: c1

    Geometry (in Angstrom), charge = 0, multiplicity = 1:

       Center              X                  Y                   Z               Mass
    ------------   -----------------  -----------------  -----------------  -----------------
         N           -0.450339355154     1.139024588822    -0.217551847485    14.003074004430
         N            1.808606644846     1.278443588822     0.352552152515    14.003074004430
         C           -1.604680355154     0.312716588822    -0.066352847485    12.000000000000
         C            0.804416644846     0.532671588822    -0.135858847485    12.000000000000
         C           -0.575832355154     2.489127588822     0.333518152515    12.000000000000
         C            1.006459644846    -0.775593411178    -0.627525847485    12.000000000000
         C            3.350243644846    -0.550950411178    -0.067680847485    12.000000000000
         C           -1.714893355154    -0.600197411178     0.992545152515    12.000000000000
         C           -2.660062355154     0.453086588822    -0.974949847485    12.000000000000
         C            2.283446644846    -1.308701411178    -0.578965847485    12.000000000000
         C            3.041441644846     0.734558588822     0.370302152515    12.000000000000
         C           -2.867613355154    -1.374571411178     1.126163152515    12.000000000000
         C           -3.818401355154    -0.310840411178    -0.825226847485    12.000000000000
         C           -3.924039355154    -1.228488411178     0.222764152515    12.000000000000
         C            4.749454644846    -1.097143411178     0.001084152515    12.000000000000
         H            0.179511644846    -1.341872411178    -1.044858847485     1.007825032230
         H           -0.441151355154     2.506767588822     1.423137152515     1.007825032230
         H           -1.592315655154     2.861438888822     0.081373152515     1.007825032230
         H            0.178496644846     3.135463588822    -0.114755847485     1.007825032230
         H           -0.894661355154    -0.699277411178     1.700263152515     1.007825032230
         H           -2.552544355154     1.154848588822    -1.798885847485     1.007825032230
         H            2.461449644846    -2.315954411178    -0.954258847485     1.007825032230
         H            3.825726644846     1.378812588822     0.769945152515     1.007825032230
         H           -2.948140355154    -2.082980411178     1.947533152515     1.007825032230
         H           -4.634289355154    -0.198152411178    -1.535332847485     1.007825032230
         H            5.105442644846    -1.402275411178    -0.988237847485     1.007825032230
         H            5.441376644846    -0.344881411178     0.390189152515     1.007825032230
         H            4.802769644846    -1.973268411178     0.655649152515     1.007825032230
         H           -4.823023355154    -1.829743411178     0.333260152515     1.007825032230

  Basis Set: AUG-CC-PVTZ
    Blend: AUG-CC-PVTZ
  Basis Set: (AUG-CC-PVTZ AUX)
    Blend: AUG-CC-PVTZ-JKFIT
	 Reference Energy          =    -609.5331576057870961 [Eh]
	 Singles Energy            =      -0.0000000000000000 [Eh]
	 Same-Spin Energy          =      -0.6811589122959526 [Eh]
	 Opposite-Spin Energy      =      -2.1309131001105643 [Eh]
	 Correlation Energy        =      -2.8120720124065168 [Eh]
	 Total Energy              =    -612.3452296181935708 [Eh]

	 ================> DF-SCS-MP2 Energies <==================
	-----------------------------------------------------------
	 SCS Same-Spin Scale       =       0.3333333333333333 [-]
	 SCS Opposite-Spin Scale   =       1.2000000000000000 [-]
	 SCS Same-Spin Energy      =      -0.2270529707653175 [Eh]
	 SCS Opposite-Spin Energy  =      -2.5570957201326769 [Eh]
	 SCS Correlation Energy    =      -2.7841486908979944 [Eh]
	 SCS Total Energy          =    -612.3173062966850466 [Eh]
	-----------------------------------------------------------

  Dipole Moment: [D]
     X:    -0.4822      Y:    -1.4697      Z:    -0.1660     Total:     1.5557

*** Psi4 exiting successfully. Buy a developer a beer!
