                               Psi4 1.4a3.dev225

  ==> Input File <==

--------------------------------------------------------------------------
#psi4
#
memory 32 gb

molecule  {
0 1
  N       -0.4697210     1.1445100    -0.2216410
  N        1.7892250     1.2839290     0.3484630
  C       -1.5836336     0.3471417    -0.0757374
  C        0.7850350     0.5381570    -0.1399480
  C       -0.5952140     2.4946130     0.3294290
  C        0.9870780    -0.7701080    -0.6316150
  C        3.3308620    -0.5454650    -0.0717700
  C       -1.7342750    -0.5947120     0.9884560
  C       -2.6794440     0.4585720    -0.9790390
  C        2.2640650    -1.3032160    -0.5830550
  C        3.0220600     0.7400440     0.3662130
  C       -2.8869950    -1.3690860     1.1220740
  C       -3.8377830    -0.3053550    -0.8293160
  C       -3.9434210    -1.2230030     0.2186750
  C        4.7300730    -1.0916580    -0.0030050
  H        0.1601300    -1.3363870    -1.0489480
  H       -0.4605330     2.5122530     1.4190480
  H       -1.5934070     2.8602250     0.0818210
  H        0.1591150     3.1409490    -0.1188450
  H       -0.9140430    -0.6937920     1.6961740
  H       -2.5719260     1.1603340    -1.8029750
  H        2.4420680    -2.3104690    -0.9583480
  H        3.8063450     1.3842980     0.7658560
  H       -2.9675220    -2.0774950     1.9434440
  H       -4.6536710    -0.1926670    -1.5394220
  H        5.0860610    -1.3967900    -0.9923270
  H        5.4219950    -0.3393960     0.3861000
  H        4.7833880    -1.9677830     0.6515600
  H       -4.8424050    -1.8242580     0.3291710
units angstrom
no_reorient  #important for SAPT in psi4, default
symmetry c1  #important for SAPT in psi4, default
}

set PROPERTIES_ORIGIN ["COM"]
properties('MP2/aug-cc-pvtz', properties = ['dipole'])
--------------------------------------------------------------------------

    Molecular point group: c1
  Charge       = 0
  Multiplicity = 1
  Basis Set: AUG-CC-PVTZ
    Blend: AUG-CC-PVTZ
  Basis Set: (AUG-CC-PVTZ AUX)
    Blend: AUG-CC-PVTZ-JKFIT

    Orbital Energies [Eh]
    ---------------------

    Doubly Occupied:

       1A    -15.574532     2A    -15.551125     3A    -11.310674
       4A    -11.277157     5A    -11.266925     6A    -11.251498
       7A    -11.247659     8A    -11.240455     9A    -11.240204
      10A    -11.238022    11A    -11.236967    12A    -11.236556
      13A    -11.232115    14A    -11.230537    15A    -11.226229
      16A     -1.299058    17A     -1.223478    18A     -1.136980
      19A     -1.091605    20A     -1.039975    21A     -1.014332
      22A     -1.005417    23A     -0.951787    24A     -0.912150
      25A     -0.848664    26A     -0.840953    27A     -0.826615
      28A     -0.785058    29A     -0.727268    30A     -0.685641
      31A     -0.676618    32A     -0.650633    33A     -0.639619
      34A     -0.623198    35A     -0.610006    36A     -0.591434
      37A     -0.588147    38A     -0.584122    39A     -0.577847
      40A     -0.563909    41A     -0.544394    42A     -0.536020
      43A     -0.525254    44A     -0.516809    45A     -0.508244
      46A     -0.497945    47A     -0.493344    48A     -0.418976
      49A     -0.411831    50A     -0.374877    51A     -0.340235
      52A     -0.335589    53A     -0.286083

  @DF-RHF Final Energy:  -609.52945916719955

   => Energetics <=

    Nuclear Repulsion Energy =            919.8326204390039038
    One-Electron Energy =               -2651.4346156100104963
    Two-Electron Energy =                1122.0725360038070448
    Total Energy =                       -609.5294591671995477
  Basis Set: (AUG-CC-PVTZ AUX)
    Blend: AUG-CC-PVTZ-RI
    Molecular point group: c1

    Geometry (in Angstrom), charge = 0, multiplicity = 1:

       Center              X                  Y                   Z               Mass
    ------------   -----------------  -----------------  -----------------  -----------------
         N           -0.452881174031     1.137305771584    -0.217254181534    14.003074004430
         N            1.806064825969     1.276724771584     0.352849818466    14.003074004430
         C           -1.566793774031     0.339937471584    -0.071350581534    12.000000000000
         C            0.801874825969     0.530952771584    -0.135561181534    12.000000000000
         C           -0.578374174031     2.487408771584     0.333815818466    12.000000000000
         C            1.003917825969    -0.777312228416    -0.627228181534    12.000000000000
         C            3.347701825969    -0.552669228416    -0.067383181534    12.000000000000
         C           -1.717435174031    -0.601916228416     0.992842818466    12.000000000000
         C           -2.662604174031     0.451367771584    -0.974652181534    12.000000000000
         C            2.280904825969    -1.310420228416    -0.578668181534    12.000000000000
         C            3.038899825969     0.732839771584     0.370599818466    12.000000000000
         C           -2.870155174031    -1.376290228416     1.126460818466    12.000000000000
         C           -3.820943174031    -0.312559228416    -0.824929181534    12.000000000000
         C           -3.926581174031    -1.230207228416     0.223061818466    12.000000000000
         C            4.746912825969    -1.098862228416     0.001381818466    12.000000000000
         H            0.176969825969    -1.343591228416    -1.044561181534     1.007825032230
         H           -0.443693174031     2.505048771584     1.423434818466     1.007825032230
         H           -1.576567174031     2.853020771584     0.086207818466     1.007825032230
         H            0.175954825969     3.133744771584    -0.114458181534     1.007825032230
         H           -0.897203174031    -0.700996228416     1.700560818466     1.007825032230
         H           -2.555086174031     1.153129771584    -1.798588181534     1.007825032230
         H            2.458907825969    -2.317673228416    -0.953961181534     1.007825032230
         H            3.823184825969     1.377093771584     0.770242818466     1.007825032230
         H           -2.950682174031    -2.084699228416     1.947830818466     1.007825032230
         H           -4.636831174031    -0.199871228416    -1.535035181534     1.007825032230
         H            5.102900825969    -1.403994228416    -0.987940181534     1.007825032230
         H            5.438834825969    -0.346600228416     0.390486818466     1.007825032230
         H            4.800227825969    -1.974987228416     0.655946818466     1.007825032230
         H           -4.825565174031    -1.831462228416     0.333557818466     1.007825032230

  Basis Set: AUG-CC-PVTZ
    Blend: AUG-CC-PVTZ
  Basis Set: (AUG-CC-PVTZ AUX)
    Blend: AUG-CC-PVTZ-JKFIT
	 Reference Energy          =    -609.5294591671995477 [Eh]
	 Singles Energy            =      -0.0000000000000000 [Eh]
	 Same-Spin Energy          =      -0.6818114464479520 [Eh]
	 Opposite-Spin Energy      =      -2.1316347302279950 [Eh]
	 Correlation Energy        =      -2.8134461766759471 [Eh]
	 Total Energy              =    -612.3429053438754863 [Eh]

	 ================> DF-SCS-MP2 Energies <==================
	-----------------------------------------------------------
	 SCS Same-Spin Scale       =       0.3333333333333333 [-]
	 SCS Opposite-Spin Scale   =       1.2000000000000000 [-]
	 SCS Same-Spin Energy      =      -0.2272704821493173 [Eh]
	 SCS Opposite-Spin Energy  =      -2.5579616762735937 [Eh]
	 SCS Correlation Energy    =      -2.7852321584229109 [Eh]
	 SCS Total Energy          =    -612.3146913256224479 [Eh]
	-----------------------------------------------------------

  Dipole Moment: [D]
     X:    -0.2111      Y:    -1.3678      Z:    -0.1768     Total:     1.3953

*** Psi4 exiting successfully. Buy a developer a beer!
