                               Psi4 1.4a3.dev225

  ==> Input File <==

--------------------------------------------------------------------------
#psi4
#
memory 32 gb

molecule  {
0 1
  N       -0.4697210     1.1445100    -0.2216410
  N        1.7892250     1.2839290     0.3484630
  C       -1.6240620     0.3182020    -0.0704420
  C        0.7850350     0.5381570    -0.1399480
  C       -0.5952140     2.4946130     0.3294290
  C        0.9870780    -0.7701080    -0.6316150
  C        3.3308620    -0.5454650    -0.0717700
  C       -1.7342750    -0.5947120     0.9884560
  C       -2.6794440     0.4585720    -0.9790390
  C        2.2640650    -1.3032160    -0.5830550
  C        3.0220600     0.7400440     0.3662130
  C       -2.8869950    -1.3690860     1.1220740
  C       -3.8377830    -0.3053550    -0.8293160
  C       -3.9434210    -1.2230030     0.2186750
  C        4.7300730    -1.0916580    -0.0030050
  H        0.1601300    -1.3363870    -1.0489480
  H       -0.4605330     2.5122530     1.4190480
  H       -1.5934070     2.8602250     0.0818210
  H        0.1591150     3.1409490    -0.1188450
  H       -0.9140430    -0.6937920     1.6961740
  H       -2.5719260     1.1603340    -1.8029750
  H        2.4420680    -2.3104690    -0.9583480
  H        3.8063450     1.3842980     0.7658560
  H       -2.9675220    -2.0774950     1.9434440
  H       -4.6536710    -0.1926670    -1.5394220
  H        5.0860610    -1.3967900    -0.9923270
  H        5.4219950    -0.3393960     0.3861000
  H        4.7858226    -2.0077909     0.6814505
  H       -4.8424050    -1.8242580     0.3291710
units angstrom
no_reorient  #important for SAPT in psi4, default
symmetry c1  #important for SAPT in psi4, default
}

set PROPERTIES_ORIGIN ["COM"]
properties('MP2/aug-cc-pvtz', properties = ['dipole'])
--------------------------------------------------------------------------

    Molecular point group: c1
  Charge       = 0
  Multiplicity = 1
  Basis Set: AUG-CC-PVTZ
    Blend: AUG-CC-PVTZ
  Basis Set: (AUG-CC-PVTZ AUX)
    Blend: AUG-CC-PVTZ-JKFIT

    Orbital Energies [Eh]
    ---------------------

    Doubly Occupied:

       1A    -15.573035     2A    -15.549211     3A    -11.308884
       4A    -11.275485     5A    -11.265941     6A    -11.250461
       7A    -11.245323     8A    -11.242131     9A    -11.241909
      10A    -11.238196    11A    -11.237817    12A    -11.236950
      13A    -11.231369    14A    -11.230577    15A    -11.229088
      16A     -1.290383    17A     -1.217623    18A     -1.142375
      19A     -1.089752    20A     -1.037769    21A     -1.018767
      22A     -1.008771    23A     -0.947604    24A     -0.906485
      25A     -0.847113    26A     -0.838904    27A     -0.829082
      28A     -0.785503    29A     -0.724699    30A     -0.685508
      31A     -0.674537    32A     -0.648383    33A     -0.638041
      34A     -0.622897    35A     -0.609759    36A     -0.593747
      37A     -0.588213    38A     -0.583419    39A     -0.572109
      40A     -0.561728    41A     -0.541067    42A     -0.534381
      43A     -0.521735    44A     -0.514858    45A     -0.508059
      46A     -0.500089    47A     -0.498928    48A     -0.417916
      49A     -0.410569    50A     -0.373745    51A     -0.342901
      52A     -0.339049    53A     -0.286595

  @DF-RHF Final Energy:  -609.53168566991644

   => Energetics <=

    Nuclear Repulsion Energy =            919.3926851190160505
    One-Electron Energy =               -2650.6298689942186684
    Two-Electron Energy =                1121.7054982052861760
    Total Energy =                       -609.5316856699164418
  Basis Set: (AUG-CC-PVTZ AUX)
    Blend: AUG-CC-PVTZ-RI
    Molecular point group: c1

    Geometry (in Angstrom), charge = 0, multiplicity = 1:

       Center              X                  Y                   Z               Mass
    ------------   -----------------  -----------------  -----------------  -----------------
         N           -0.450444783816     1.139262190818    -0.217726981997    14.003074004430
         N            1.808501216184     1.278681190818     0.352377018003    14.003074004430
         C           -1.604785783816     0.312954190818    -0.066527981997    12.000000000000
         C            0.804311216184     0.532909190818    -0.136033981997    12.000000000000
         C           -0.575937783816     2.489365190818     0.333343018003    12.000000000000
         C            1.006354216184    -0.775355809182    -0.627700981997    12.000000000000
         C            3.350138216184    -0.550712809182    -0.067855981997    12.000000000000
         C           -1.714998783816    -0.599959809182     0.992370018003    12.000000000000
         C           -2.660167783816     0.453324190818    -0.975124981997    12.000000000000
         C            2.283341216184    -1.308463809182    -0.579140981997    12.000000000000
         C            3.041336216184     0.734796190818     0.370127018003    12.000000000000
         C           -2.867718783816    -1.374333809182     1.125988018003    12.000000000000
         C           -3.818506783816    -0.310602809182    -0.825401981997    12.000000000000
         C           -3.924144783816    -1.228250809182     0.222589018003    12.000000000000
         C            4.749349216184    -1.096905809182     0.000909018003    12.000000000000
         H            0.179406216184    -1.341634809182    -1.045033981997     1.007825032230
         H           -0.441256783816     2.507005190818     1.422962018003     1.007825032230
         H           -1.574130783816     2.854977190818     0.085735018003     1.007825032230
         H            0.178391216184     3.135701190818    -0.114930981997     1.007825032230
         H           -0.894766783816    -0.699039809182     1.700088018003     1.007825032230
         H           -2.552649783816     1.155086190818    -1.799060981997     1.007825032230
         H            2.461344216184    -2.315716809182    -0.954433981997     1.007825032230
         H            3.825621216184     1.379050190818     0.769770018003     1.007825032230
         H           -2.948245783816    -2.082742809182     1.947358018003     1.007825032230
         H           -4.634394783816    -0.197914809182    -1.535507981997     1.007825032230
         H            5.105337216184    -1.402037809182    -0.988412981997     1.007825032230
         H            5.441271216184    -0.344643809182     0.390014018003     1.007825032230
         H            4.805098816184    -2.013038709182     0.685364518003     1.007825032230
         H           -4.823128783816    -1.829505809182     0.333085018003     1.007825032230

  Basis Set: AUG-CC-PVTZ
    Blend: AUG-CC-PVTZ
  Basis Set: (AUG-CC-PVTZ AUX)
    Blend: AUG-CC-PVTZ-JKFIT
	 Reference Energy          =    -609.5316856699164418 [Eh]
	 Singles Energy            =      -0.0000000000000000 [Eh]
	 Same-Spin Energy          =      -0.6811133747243404 [Eh]
	 Opposite-Spin Energy      =      -2.1310454828961838 [Eh]
	 Correlation Energy        =      -2.8121588576205241 [Eh]
	 Total Energy              =    -612.3438445275369304 [Eh]

	 ================> DF-SCS-MP2 Energies <==================
	-----------------------------------------------------------
	 SCS Same-Spin Scale       =       0.3333333333333333 [-]
	 SCS Opposite-Spin Scale   =       1.2000000000000000 [-]
	 SCS Same-Spin Energy      =      -0.2270377915747801 [Eh]
	 SCS Opposite-Spin Energy  =      -2.5572545794754205 [Eh]
	 SCS Correlation Energy    =      -2.7842923710502006 [Eh]
	 SCS Total Energy          =    -612.3159780409666837 [Eh]
	-----------------------------------------------------------

  Dipole Moment: [D]
     X:    -0.5180      Y:    -1.4384      Z:    -0.1795     Total:     1.5394

*** Psi4 exiting successfully. Buy a developer a beer!
