                               Psi4 1.4a3.dev225

  ==> Input File <==

--------------------------------------------------------------------------
#psi4
#
memory 32 gb

molecule  {
0 1
  N       -0.4697210     1.1445100    -0.2216410
  N        1.7892250     1.2839290     0.3484630
  C       -1.6240620     0.3182020    -0.0704420
  C        0.7850350     0.5381570    -0.1399480
  C       -0.5952140     2.4946130     0.3294290
  C        0.9870780    -0.7701080    -0.6316150
  C        3.3308620    -0.5454650    -0.0717700
  C       -1.7342750    -0.5947120     0.9884560
  C       -2.6794440     0.4585720    -0.9790390
  C        2.2640650    -1.3032160    -0.5830550
  C        2.9757046     0.7322030     0.3538459
  C       -2.8869950    -1.3690860     1.1220740
  C       -3.8377830    -0.3053550    -0.8293160
  C       -3.9434210    -1.2230030     0.2186750
  C        4.7300730    -1.0916580    -0.0030050
  H        0.1601300    -1.3363870    -1.0489480
  H       -0.4605330     2.5122530     1.4190480
  H       -1.5934070     2.8602250     0.0818210
  H        0.1591150     3.1409490    -0.1188450
  H       -0.9140430    -0.6937920     1.6961740
  H       -2.5719260     1.1603340    -1.8029750
  H        2.4420680    -2.3104690    -0.9583480
  H        3.8063450     1.3842980     0.7658560
  H       -2.9675220    -2.0774950     1.9434440
  H       -4.6536710    -0.1926670    -1.5394220
  H        5.0860610    -1.3967900    -0.9923270
  H        5.4219950    -0.3393960     0.3861000
  H        4.7833880    -1.9677830     0.6515600
  H       -4.8424050    -1.8242580     0.3291710
units angstrom
no_reorient  #important for SAPT in psi4, default
symmetry c1  #important for SAPT in psi4, default
}

set PROPERTIES_ORIGIN ["COM"]
properties('MP2/aug-cc-pvtz', properties = ['dipole'])
--------------------------------------------------------------------------

    Molecular point group: c1
  Charge       = 0
  Multiplicity = 1
  Basis Set: AUG-CC-PVTZ
    Blend: AUG-CC-PVTZ
  Basis Set: (AUG-CC-PVTZ AUX)
    Blend: AUG-CC-PVTZ-JKFIT

    Orbital Energies [Eh]
    ---------------------

    Doubly Occupied:

       1A    -15.573527     2A    -15.548496     3A    -11.309505
       4A    -11.275636     5A    -11.265928     6A    -11.249687
       7A    -11.246066     8A    -11.242198     9A    -11.241976
      10A    -11.238285    11A    -11.237940    12A    -11.237072
      13A    -11.228982    14A    -11.227187    15A    -11.225883
      16A     -1.295247    17A     -1.226200    18A     -1.142849
      19A     -1.092470    20A     -1.037331    21A     -1.018830
      22A     -1.009361    23A     -0.950406    24A     -0.907049
      25A     -0.844569    26A     -0.840705    27A     -0.830369
      28A     -0.787911    29A     -0.723474    30A     -0.685529
      31A     -0.676842    32A     -0.648842    33A     -0.638781
      34A     -0.619840    35A     -0.607850    36A     -0.594067
      37A     -0.586787    38A     -0.582782    39A     -0.577077
      40A     -0.561137    41A     -0.544195    42A     -0.535104
      43A     -0.527845    44A     -0.514299    45A     -0.506930
      46A     -0.500028    47A     -0.499507    48A     -0.418932
      49A     -0.410947    50A     -0.377973    51A     -0.342903
      52A     -0.339142    53A     -0.285181

  @DF-RHF Final Energy:  -609.53176582825120

   => Energetics <=

    Nuclear Repulsion Energy =            920.6093572193776708
    One-Electron Energy =               -2653.0069272480486688
    Two-Electron Energy =                1122.8658042004199160
    Total Energy =                       -609.5317658282510820
  Basis Set: (AUG-CC-PVTZ AUX)
    Blend: AUG-CC-PVTZ-RI
    Molecular point group: c1

    Geometry (in Angstrom), charge = 0, multiplicity = 1:

       Center              X                  Y                   Z               Mass
    ------------   -----------------  -----------------  -----------------  -----------------
         N           -0.447624621380     1.139533603116    -0.216825843948    14.003074004430
         N            1.811321378620     1.278952603116     0.353278156052    14.003074004430
         C           -1.601965621380     0.313225603116    -0.065626843948    12.000000000000
         C            0.807131378620     0.533180603116    -0.135132843948    12.000000000000
         C           -0.573117621380     2.489636603116     0.334244156052    12.000000000000
         C            1.009174378620    -0.775084396884    -0.626799843948    12.000000000000
         C            3.352958378620    -0.550441396884    -0.066954843948    12.000000000000
         C           -1.712178621380    -0.599688396884     0.993271156052    12.000000000000
         C           -2.657347621380     0.453595603116    -0.974223843948    12.000000000000
         C            2.286161378620    -1.308192396884    -0.578239843948    12.000000000000
         C            2.997800978620     0.727226603116     0.358661056052    12.000000000000
         C           -2.864898621380    -1.374062396884     1.126889156052    12.000000000000
         C           -3.815686621380    -0.310331396884    -0.824500843948    12.000000000000
         C           -3.921324621380    -1.227979396884     0.223490156052    12.000000000000
         C            4.752169378620    -1.096634396884     0.001810156052    12.000000000000
         H            0.182226378620    -1.341363396884    -1.044132843948     1.007825032230
         H           -0.438436621380     2.507276603116     1.423863156052     1.007825032230
         H           -1.571310621380     2.855248603116     0.086636156052     1.007825032230
         H            0.181211378620     3.135972603116    -0.114029843948     1.007825032230
         H           -0.891946621380    -0.698768396884     1.700989156052     1.007825032230
         H           -2.549829621380     1.155357603116    -1.798159843948     1.007825032230
         H            2.464164378620    -2.315445396884    -0.953532843948     1.007825032230
         H            3.828441378620     1.379321603116     0.770671156052     1.007825032230
         H           -2.945425621380    -2.082471396884     1.948259156052     1.007825032230
         H           -4.631574621380    -0.197643396884    -1.534606843948     1.007825032230
         H            5.108157378620    -1.401766396884    -0.987511843948     1.007825032230
         H            5.444091378620    -0.344372396884     0.390915156052     1.007825032230
         H            4.805484378620    -1.972759396884     0.656375156052     1.007825032230
         H           -4.820308621380    -1.829234396884     0.333986156052     1.007825032230

  Basis Set: AUG-CC-PVTZ
    Blend: AUG-CC-PVTZ
  Basis Set: (AUG-CC-PVTZ AUX)
    Blend: AUG-CC-PVTZ-JKFIT
	 Reference Energy          =    -609.5317658282511957 [Eh]
	 Singles Energy            =      -0.0000000000000000 [Eh]
	 Same-Spin Energy          =      -0.6810623120123221 [Eh]
	 Opposite-Spin Energy      =      -2.1301332230347971 [Eh]
	 Correlation Energy        =      -2.8111955350471192 [Eh]
	 Total Energy              =    -612.3429613632982864 [Eh]

	 ================> DF-SCS-MP2 Energies <==================
	-----------------------------------------------------------
	 SCS Same-Spin Scale       =       0.3333333333333333 [-]
	 SCS Opposite-Spin Scale   =       1.2000000000000000 [-]
	 SCS Same-Spin Energy      =      -0.2270207706707740 [Eh]
	 SCS Opposite-Spin Energy  =      -2.5561598676417563 [Eh]
	 SCS Correlation Energy    =      -2.7831806383125302 [Eh]
	 SCS Total Energy          =    -612.3149464665636970 [Eh]
	-----------------------------------------------------------

  Dipole Moment: [D]
     X:    -0.5730      Y:    -1.4598      Z:    -0.1773     Total:     1.5782

*** Psi4 exiting successfully. Buy a developer a beer!
