                               Psi4 1.4a3.dev225

  ==> Input File <==

--------------------------------------------------------------------------
#psi4
#
memory 32 gb

molecule  {
0 1
  N       -0.4697210     1.1445100    -0.2216410
  N        1.7892250     1.2839290     0.3484630
  C       -1.6240620     0.3182020    -0.0704420
  C        0.7850350     0.5381570    -0.1399480
  C       -0.5952140     2.4946130     0.3294290
  C        0.9870780    -0.7701080    -0.6316150
  C        3.3308620    -0.5454650    -0.0717700
  C       -1.7342750    -0.5947120     0.9884560
  C       -2.6794440     0.4585720    -0.9790390
  C        2.2640650    -1.3032160    -0.5830550
  C        3.0220600     0.7400440     0.3662130
  C       -2.8869950    -1.3690860     1.1220740
  C       -3.8377830    -0.3053550    -0.8293160
  C       -3.9434210    -1.2230030     0.2186750
  C        4.7300730    -1.0916580    -0.0030050
  H        0.1601300    -1.3363870    -1.0489480
  H       -0.4605330     2.5122530     1.4190480
  H       -1.5934070     2.8602250     0.0818210
  H        0.1591150     3.1409490    -0.1188450
  H       -0.9140430    -0.6937920     1.6961740
  H       -2.5719260     1.1603340    -1.8029750
  H        2.4420680    -2.3104690    -0.9583480
  H        3.8063450     1.3842980     0.7658560
  H       -2.9675220    -2.0774950     1.9434440
  H       -4.6536710    -0.1926670    -1.5394220
  H        5.0795578    -1.3912158    -0.9742539
  H        5.4219950    -0.3393960     0.3861000
  H        4.7833880    -1.9677830     0.6515600
  H       -4.8424050    -1.8242580     0.3291710
units angstrom
no_reorient  #important for SAPT in psi4, default
symmetry c1  #important for SAPT in psi4, default
}

set PROPERTIES_ORIGIN ["COM"]
properties('MP2/aug-cc-pvtz', properties = ['dipole'])
--------------------------------------------------------------------------

    Molecular point group: c1
  Charge       = 0
  Multiplicity = 1
  Basis Set: AUG-CC-PVTZ
    Blend: AUG-CC-PVTZ
  Basis Set: (AUG-CC-PVTZ AUX)
    Blend: AUG-CC-PVTZ-JKFIT

    Orbital Energies [Eh]
    ---------------------

    Doubly Occupied:

       1A    -15.572762     2A    -15.548943     3A    -11.308522
       4A    -11.275334     5A    -11.265453     6A    -11.250208
       7A    -11.245143     8A    -11.242012     9A    -11.241790
      10A    -11.238073    11A    -11.237677    12A    -11.236811
      13A    -11.230238    14A    -11.228853    15A    -11.222749
      16A     -1.290113    17A     -1.217350    18A     -1.142236
      19A     -1.090056    20A     -1.038113    21A     -1.018661
      22A     -1.008852    23A     -0.950235    24A     -0.907961
      25A     -0.846976    26A     -0.839365    27A     -0.829303
      28A     -0.785631    29A     -0.724534    30A     -0.685444
      31A     -0.674333    32A     -0.648229    33A     -0.638431
      34A     -0.622653    35A     -0.609698    36A     -0.593800
      37A     -0.588035    38A     -0.583948    39A     -0.578714
      40A     -0.561588    41A     -0.544292    42A     -0.534229
      43A     -0.523629    44A     -0.514529    45A     -0.507773
      46A     -0.500004    47A     -0.498732    48A     -0.418066
      49A     -0.410326    50A     -0.373614    51A     -0.342821
      52A     -0.338941    53A     -0.286495

  @DF-RHF Final Energy:  -609.53374121129116

   => Energetics <=

    Nuclear Repulsion Energy =            919.6961457887975939
    One-Electron Energy =               -2651.2352137773968934
    Two-Electron Energy =                1122.0053267773080279
    Total Energy =                       -609.5337412112912716
  Basis Set: (AUG-CC-PVTZ AUX)
    Blend: AUG-CC-PVTZ-RI
    Molecular point group: c1

    Geometry (in Angstrom), charge = 0, multiplicity = 1:

       Center              X                  Y                   Z               Mass
    ------------   -----------------  -----------------  -----------------  -----------------
         N           -0.450399316755     1.139030312266    -0.217666866259    14.003074004430
         N            1.808546683245     1.278449312266     0.352437133741    14.003074004430
         C           -1.604740316755     0.312722312266    -0.066467866259    12.000000000000
         C            0.804356683245     0.532677312266    -0.135973866259    12.000000000000
         C           -0.575892316755     2.489133312266     0.333403133741    12.000000000000
         C            1.006399683245    -0.775587687734    -0.627640866259    12.000000000000
         C            3.350183683245    -0.550944687734    -0.067795866259    12.000000000000
         C           -1.714953316755    -0.600191687734     0.992430133741    12.000000000000
         C           -2.660122316755     0.453092312266    -0.975064866259    12.000000000000
         C            2.283386683245    -1.308695687734    -0.579080866259    12.000000000000
         C            3.041381683245     0.734564312266     0.370187133741    12.000000000000
         C           -2.867673316755    -1.374565687734     1.126048133741    12.000000000000
         C           -3.818461316755    -0.310834687734    -0.825341866259    12.000000000000
         C           -3.924099316755    -1.228482687734     0.222649133741    12.000000000000
         C            4.749394683245    -1.097137687734     0.000969133741    12.000000000000
         H            0.179451683245    -1.341866687734    -1.044973866259     1.007825032230
         H           -0.441211316755     2.506773312266     1.423022133741     1.007825032230
         H           -1.574085316755     2.854745312266     0.085795133741     1.007825032230
         H            0.178436683245     3.135469312266    -0.114870866259     1.007825032230
         H           -0.894721316755    -0.699271687734     1.700148133741     1.007825032230
         H           -2.552604316755     1.154854312266    -1.799000866259     1.007825032230
         H            2.461389683245    -2.315948687734    -0.954373866259     1.007825032230
         H            3.825666683245     1.378818312266     0.769830133741     1.007825032230
         H           -2.948200316755    -2.082974687734     1.947418133741     1.007825032230
         H           -4.634349316755    -0.198146687734    -1.535447866259     1.007825032230
         H            5.098879483245    -1.396695487734    -0.970279766259     1.007825032230
         H            5.441316683245    -0.344875687734     0.390074133741     1.007825032230
         H            4.802709683245    -1.973262687734     0.655534133741     1.007825032230
         H           -4.823083316755    -1.829737687734     0.333145133741     1.007825032230

  Basis Set: AUG-CC-PVTZ
    Blend: AUG-CC-PVTZ
  Basis Set: (AUG-CC-PVTZ AUX)
    Blend: AUG-CC-PVTZ-JKFIT
	 Reference Energy          =    -609.5337412112911579 [Eh]
	 Singles Energy            =      -0.0000000000000000 [Eh]
	 Same-Spin Energy          =      -0.6811433943509569 [Eh]
	 Opposite-Spin Energy      =      -2.1306392781316417 [Eh]
	 Correlation Energy        =      -2.8117826724825985 [Eh]
	 Total Energy              =    -612.3455238837738079 [Eh]

	 ================> DF-SCS-MP2 Energies <==================
	-----------------------------------------------------------
	 SCS Same-Spin Scale       =       0.3333333333333333 [-]
	 SCS Opposite-Spin Scale   =       1.2000000000000000 [-]
	 SCS Same-Spin Energy      =      -0.2270477981169856 [Eh]
	 SCS Opposite-Spin Energy  =      -2.5567671337579698 [Eh]
	 SCS Correlation Energy    =      -2.7838149318749554 [Eh]
	 SCS Total Energy          =    -612.3175561431661436 [Eh]
	-----------------------------------------------------------

  Dipole Moment: [D]
     X:    -0.4828      Y:    -1.4681      Z:    -0.1731     Total:     1.5551

*** Psi4 exiting successfully. Buy a developer a beer!
