                               Psi4 1.4a3.dev225

  ==> Input File <==

--------------------------------------------------------------------------
#psi4
#
memory 32 gb

molecule  {
0 1
  N       -0.4697210     1.1445100    -0.2216410
  N        1.7892250     1.2839290     0.3484630
  C       -1.6240620     0.3182020    -0.0704420
  C        0.7850350     0.5381570    -0.1399480
  C       -0.5952140     2.4946130     0.3294290
  C        0.9870780    -0.7701080    -0.6316150
  C        3.3308620    -0.5454650    -0.0717700
  C       -1.7342750    -0.5947120     0.9884560
  C       -2.6794440     0.4585720    -0.9790390
  C        2.2640650    -1.3032160    -0.5830550
  C        3.0220600     0.7400440     0.3662130
  C       -2.8869950    -1.3690860     1.1220740
  C       -3.8377830    -0.3053550    -0.8293160
  C       -3.9434210    -1.2230030     0.2186750
  C        4.7300730    -1.0916580    -0.0030050
  H        0.1601300    -1.3363870    -1.0489480
  H       -0.4605330     2.5122530     1.4190480
  H       -1.5934070     2.8602250     0.0818210
  H        0.1591150     3.1409490    -0.1188450
  H       -0.9140430    -0.6937920     1.6961740
  H       -2.5719260     1.1603340    -1.8029750
  H        2.4420680    -2.3104690    -0.9583480
  H        3.8063450     1.3842980     0.7658560
  H       -2.9675220    -2.0774950     1.9434440
  H       -4.6536710    -0.1926670    -1.5394220
  H        5.0799663    -1.3611752    -1.0047665
  H        5.4219950    -0.3393960     0.3861000
  H        4.7833880    -1.9677830     0.6515600
  H       -4.8424050    -1.8242580     0.3291710
units angstrom
no_reorient  #important for SAPT in psi4, default
symmetry c1  #important for SAPT in psi4, default
}

set PROPERTIES_ORIGIN ["COM"]
properties('MP2/aug-cc-pvtz', properties = ['dipole'])
--------------------------------------------------------------------------

    Molecular point group: c1
  Charge       = 0
  Multiplicity = 1
  Basis Set: AUG-CC-PVTZ
    Blend: AUG-CC-PVTZ
  Basis Set: (AUG-CC-PVTZ AUX)
    Blend: AUG-CC-PVTZ-JKFIT

    Orbital Energies [Eh]
    ---------------------

    Doubly Occupied:

       1A    -15.572764     2A    -15.548928     3A    -11.308514
       4A    -11.275338     5A    -11.265413     6A    -11.250171
       7A    -11.245149     8A    -11.242018     9A    -11.241795
      10A    -11.238078    11A    -11.237683    12A    -11.236816
      13A    -11.230154    14A    -11.228859    15A    -11.225201
      16A     -1.290111    17A     -1.217346    18A     -1.142239
      19A     -1.089952    20A     -1.037985    21A     -1.018660
      22A     -1.008797    23A     -0.949375    24A     -0.907376
      25A     -0.846945    26A     -0.839103    27A     -0.829134
      28A     -0.785452    29A     -0.724510    30A     -0.685389
      31A     -0.674221    32A     -0.648218    33A     -0.637983
      34A     -0.622629    35A     -0.609528    36A     -0.593873
      37A     -0.588088    38A     -0.584354    39A     -0.579091
      40A     -0.561459    41A     -0.540513    42A     -0.534090
      43A     -0.523879    44A     -0.514591    45A     -0.507804
      46A     -0.500024    47A     -0.498718    48A     -0.418131
      49A     -0.410120    50A     -0.373612    51A     -0.342828
      52A     -0.338949    53A     -0.286500

  @DF-RHF Final Energy:  -609.53357214495350

   => Energetics <=

    Nuclear Repulsion Energy =            919.6376314652439987
    One-Electron Energy =               -2651.1254900036428808
    Two-Electron Energy =                1121.9542863934454999
    Total Energy =                       -609.5335721449534958
  Basis Set: (AUG-CC-PVTZ AUX)
    Blend: AUG-CC-PVTZ-RI
    Molecular point group: c1

    Geometry (in Angstrom), charge = 0, multiplicity = 1:

       Center              X                  Y                   Z               Mass
    ------------   -----------------  -----------------  -----------------  -----------------
         N           -0.450401394816     1.138877494145    -0.217511647049    14.003074004430
         N            1.808544605184     1.278296494145     0.352592352951    14.003074004430
         C           -1.604742394816     0.312569494145    -0.066312647049    12.000000000000
         C            0.804354605184     0.532524494145    -0.135818647049    12.000000000000
         C           -0.575894394816     2.488980494145     0.333558352951    12.000000000000
         C            1.006397605184    -0.775740505855    -0.627485647049    12.000000000000
         C            3.350181605184    -0.551097505855    -0.067640647049    12.000000000000
         C           -1.714955394816    -0.600344505855     0.992585352951    12.000000000000
         C           -2.660124394816     0.452939494145    -0.974909647049    12.000000000000
         C            2.283384605184    -1.308848505855    -0.578925647049    12.000000000000
         C            3.041379605184     0.734411494145     0.370342352951    12.000000000000
         C           -2.867675394816    -1.374718505855     1.126203352951    12.000000000000
         C           -3.818463394816    -0.310987505855    -0.825186647049    12.000000000000
         C           -3.924101394816    -1.228635505855     0.222804352951    12.000000000000
         C            4.749392605184    -1.097290505855     0.001124352951    12.000000000000
         H            0.179449605184    -1.342019505855    -1.044818647049     1.007825032230
         H           -0.441213394816     2.506620494145     1.423177352951     1.007825032230
         H           -1.574087394816     2.854592494145     0.085950352951     1.007825032230
         H            0.178434605184     3.135316494145    -0.114715647049     1.007825032230
         H           -0.894723394816    -0.699424505855     1.700303352951     1.007825032230
         H           -2.552606394816     1.154701494145    -1.798845647049     1.007825032230
         H            2.461387605184    -2.316101505855    -0.954218647049     1.007825032230
         H            3.825664605184     1.378665494145     0.769985352951     1.007825032230
         H           -2.948202394816    -2.083127505855     1.947573352951     1.007825032230
         H           -4.634351394816    -0.198299505855    -1.535292647049     1.007825032230
         H            5.099285905184    -1.366807705855    -1.000637147049     1.007825032230
         H            5.441314605184    -0.345028505855     0.390229352951     1.007825032230
         H            4.802707605184    -1.973415505855     0.655689352951     1.007825032230
         H           -4.823085394816    -1.829890505855     0.333300352951     1.007825032230

  Basis Set: AUG-CC-PVTZ
    Blend: AUG-CC-PVTZ
  Basis Set: (AUG-CC-PVTZ AUX)
    Blend: AUG-CC-PVTZ-JKFIT
	 Reference Energy          =    -609.5335721449534958 [Eh]
	 Singles Energy            =      -0.0000000000000000 [Eh]
	 Same-Spin Energy          =      -0.6811525937864331 [Eh]
	 Opposite-Spin Energy      =      -2.1307878534940441 [Eh]
	 Correlation Energy        =      -2.8119404472804774 [Eh]
	 Total Energy              =    -612.3455125922339448 [Eh]

	 ================> DF-SCS-MP2 Energies <==================
	-----------------------------------------------------------
	 SCS Same-Spin Scale       =       0.3333333333333333 [-]
	 SCS Opposite-Spin Scale   =       1.2000000000000000 [-]
	 SCS Same-Spin Energy      =      -0.2270508645954777 [Eh]
	 SCS Opposite-Spin Energy  =      -2.5569454241928526 [Eh]
	 SCS Correlation Energy    =      -2.7839962887883303 [Eh]
	 SCS Total Energy          =    -612.3175684337418261 [Eh]
	-----------------------------------------------------------

  Dipole Moment: [D]
     X:    -0.4871      Y:    -1.4522      Z:    -0.1677     Total:     1.5409

*** Psi4 exiting successfully. Buy a developer a beer!
