                               Psi4 1.4a3.dev225

  ==> Input File <==

--------------------------------------------------------------------------
#psi4
#
memory 32 gb

molecule  {
0 1
  N       -0.4697210     1.1445100    -0.2216410
  N        1.7892250     1.2839290     0.3484630
  C       -1.6240620     0.3182020    -0.0704420
  C        0.7850350     0.5381570    -0.1399480
  C       -0.5952140     2.4946130     0.3294290
  C        0.9870780    -0.7701080    -0.6316150
  C        3.3308620    -0.5454650    -0.0717700
  C       -1.7342750    -0.5947120     0.9884560
  C       -2.6794440     0.4585720    -0.9790390
  C        2.2640650    -1.3032160    -0.5830550
  C        3.0220600     0.7400440     0.3662130
  C       -2.9128889    -1.4031347     1.1455310
  C       -3.8377830    -0.3053550    -0.8293160
  C       -3.9434210    -1.2230030     0.2186750
  C        4.7300730    -1.0916580    -0.0030050
  H        0.1601300    -1.3363870    -1.0489480
  H       -0.4605330     2.5122530     1.4190480
  H       -1.5934070     2.8602250     0.0818210
  H        0.1591150     3.1409490    -0.1188450
  H       -0.9140430    -0.6937920     1.6961740
  H       -2.5719260     1.1603340    -1.8029750
  H        2.4420680    -2.3104690    -0.9583480
  H        3.8063450     1.3842980     0.7658560
  H       -2.9675220    -2.0774950     1.9434440
  H       -4.6536710    -0.1926670    -1.5394220
  H        5.0860610    -1.3967900    -0.9923270
  H        5.4219950    -0.3393960     0.3861000
  H        4.7833880    -1.9677830     0.6515600
  H       -4.8424050    -1.8242580     0.3291710
units angstrom
no_reorient  #important for SAPT in psi4, default
symmetry c1  #important for SAPT in psi4, default
}

set PROPERTIES_ORIGIN ["COM"]
properties('MP2/aug-cc-pvtz', properties = ['dipole'])
--------------------------------------------------------------------------

    Molecular point group: c1
  Charge       = 0
  Multiplicity = 1
  Basis Set: AUG-CC-PVTZ
    Blend: AUG-CC-PVTZ
  Basis Set: (AUG-CC-PVTZ AUX)
    Blend: AUG-CC-PVTZ-JKFIT

    Orbital Energies [Eh]
    ---------------------

    Doubly Occupied:

       1A    -15.572886     2A    -15.548850     3A    -11.308486
       4A    -11.275177     5A    -11.265394     6A    -11.250062
       7A    -11.245119     8A    -11.243504     9A    -11.242208
      10A    -11.242091    11A    -11.239018    12A    -11.238098
      13A    -11.230223    14A    -11.228701    15A    -11.225069
      16A     -1.290016    17A     -1.217057    18A     -1.138797
      19A     -1.089744    20A     -1.037865    21A     -1.015378
      22A     -1.009119    23A     -0.949257    24A     -0.906748
      25A     -0.846884    26A     -0.840240    27A     -0.830880
      28A     -0.785579    29A     -0.725321    30A     -0.683813
      31A     -0.674088    32A     -0.648018    33A     -0.640473
      34A     -0.624354    35A     -0.611206    36A     -0.596275
      37A     -0.588389    38A     -0.581718    39A     -0.576315
      40A     -0.560707    41A     -0.542967    42A     -0.533599
      43A     -0.523311    44A     -0.513156    45A     -0.510480
      46A     -0.500482    47A     -0.495379    48A     -0.418146
      49A     -0.410242    50A     -0.373411    51A     -0.342206
      52A     -0.336851    53A     -0.286513

  @DF-RHF Final Energy:  -609.53021166347662

   => Energetics <=

    Nuclear Repulsion Energy =            918.6330470825685097
    One-Electron Energy =               -2649.1067697711232540
    Two-Electron Energy =                1120.9435110250781236
    Total Energy =                       -609.5302116634766207
  Basis Set: (AUG-CC-PVTZ AUX)
    Blend: AUG-CC-PVTZ-RI
    Molecular point group: c1

    Geometry (in Angstrom), charge = 0, multiplicity = 1:

       Center              X                  Y                   Z               Mass
    ------------   -----------------  -----------------  -----------------  -----------------
         N           -0.448863988083     1.141121020985    -0.218995733580    14.003074004430
         N            1.810082011917     1.280540020985     0.351108266420    14.003074004430
         C           -1.603204988083     0.314813020985    -0.067796733580    12.000000000000
         C            0.805892011917     0.534768020985    -0.137302733580    12.000000000000
         C           -0.574356988083     2.491224020985     0.332074266420    12.000000000000
         C            1.007935011917    -0.773496979015    -0.628969733580    12.000000000000
         C            3.351719011917    -0.548853979015    -0.069124733580    12.000000000000
         C           -1.713417988083    -0.598100979015     0.991101266420    12.000000000000
         C           -2.658586988083     0.455183020985    -0.976393733580    12.000000000000
         C            2.284922011917    -1.306604979015    -0.580409733580    12.000000000000
         C            3.042917011917     0.736655020985     0.368858266420    12.000000000000
         C           -2.892031888083    -1.406523679015     1.148176266420    12.000000000000
         C           -3.816925988083    -0.308743979015    -0.826670733580    12.000000000000
         C           -3.922563988083    -1.226391979015     0.221320266420    12.000000000000
         C            4.750930011917    -1.095046979015    -0.000359733580    12.000000000000
         H            0.180987011917    -1.339775979015    -1.046302733580     1.007825032230
         H           -0.439675988083     2.508864020985     1.421693266420     1.007825032230
         H           -1.572549988083     2.856836020985     0.084466266420     1.007825032230
         H            0.179972011917     3.137560020985    -0.116199733580     1.007825032230
         H           -0.893185988083    -0.697180979015     1.698819266420     1.007825032230
         H           -2.551068988083     1.156945020985    -1.800329733580     1.007825032230
         H            2.462925011917    -2.313857979015    -0.955702733580     1.007825032230
         H            3.827202011917     1.380909020985     0.768501266420     1.007825032230
         H           -2.946664988083    -2.080883979015     1.946089266420     1.007825032230
         H           -4.632813988083    -0.196055979015    -1.536776733580     1.007825032230
         H            5.106918011917    -1.400178979015    -0.989681733580     1.007825032230
         H            5.442852011917    -0.342784979015     0.388745266420     1.007825032230
         H            4.804245011917    -1.971171979015     0.654205266420     1.007825032230
         H           -4.821547988083    -1.827646979015     0.331816266420     1.007825032230

  Basis Set: AUG-CC-PVTZ
    Blend: AUG-CC-PVTZ
  Basis Set: (AUG-CC-PVTZ AUX)
    Blend: AUG-CC-PVTZ-JKFIT
	 Reference Energy          =    -609.5302116634766207 [Eh]
	 Singles Energy            =      -0.0000000000000000 [Eh]
	 Same-Spin Energy          =      -0.6811222324067249 [Eh]
	 Opposite-Spin Energy      =      -2.1311425265137345 [Eh]
	 Correlation Energy        =      -2.8122647589204592 [Eh]
	 Total Energy              =    -612.3424764223971124 [Eh]

	 ================> DF-SCS-MP2 Energies <==================
	-----------------------------------------------------------
	 SCS Same-Spin Scale       =       0.3333333333333333 [-]
	 SCS Opposite-Spin Scale   =       1.2000000000000000 [-]
	 SCS Same-Spin Energy      =      -0.2270407441355750 [Eh]
	 SCS Opposite-Spin Energy  =      -2.5573710318164813 [Eh]
	 SCS Correlation Energy    =      -2.7844117759520564 [Eh]
	 SCS Total Energy          =    -612.3146234394287148 [Eh]
	-----------------------------------------------------------

  Dipole Moment: [D]
     X:    -0.4969      Y:    -1.4746      Z:    -0.1533     Total:     1.5636

*** Psi4 exiting successfully. Buy a developer a beer!
