                               Psi4 1.4a3.dev225

  ==> Input File <==

--------------------------------------------------------------------------
#psi4
#
memory 32 gb

molecule  {
0 1
  N       -0.4697210     1.1445100    -0.2216410
  N        1.7892250     1.2839290     0.3484630
  C       -1.6240620     0.3182020    -0.0704420
  C        0.7850350     0.5381570    -0.1399480
  C       -0.5952140     2.4946130     0.3294290
  C        0.9870780    -0.7701080    -0.6316150
  C        3.3229240    -0.5643685    -0.0553894
  C       -1.7342750    -0.5947120     0.9884560
  C       -2.6794440     0.4585720    -0.9790390
  C        2.2640650    -1.3032160    -0.5830550
  C        3.0220600     0.7400440     0.3662130
  C       -2.8869950    -1.3690860     1.1220740
  C       -3.8377830    -0.3053550    -0.8293160
  C       -3.9434210    -1.2230030     0.2186750
  C        4.7300730    -1.0916580    -0.0030050
  H        0.1601300    -1.3363870    -1.0489480
  H       -0.4605330     2.5122530     1.4190480
  H       -1.5934070     2.8602250     0.0818210
  H        0.1591150     3.1409490    -0.1188450
  H       -0.9140430    -0.6937920     1.6961740
  H       -2.5719260     1.1603340    -1.8029750
  H        2.4420680    -2.3104690    -0.9583480
  H        3.8063450     1.3842980     0.7658560
  H       -2.9675220    -2.0774950     1.9434440
  H       -4.6536710    -0.1926670    -1.5394220
  H        5.0860610    -1.3967900    -0.9923270
  H        5.4219950    -0.3393960     0.3861000
  H        4.7833880    -1.9677830     0.6515600
  H       -4.8424050    -1.8242580     0.3291710
units angstrom
no_reorient  #important for SAPT in psi4, default
symmetry c1  #important for SAPT in psi4, default
}

set PROPERTIES_ORIGIN ["COM"]
properties('MP2/aug-cc-pvtz', properties = ['dipole'])
--------------------------------------------------------------------------

    Molecular point group: c1
  Charge       = 0
  Multiplicity = 1
  Basis Set: AUG-CC-PVTZ
    Blend: AUG-CC-PVTZ
  Basis Set: (AUG-CC-PVTZ AUX)
    Blend: AUG-CC-PVTZ-JKFIT

    Orbital Energies [Eh]
    ---------------------

    Doubly Occupied:

       1A    -15.572541     2A    -15.549734     3A    -11.308297
       4A    -11.275214     5A    -11.267557     6A    -11.248951
       7A    -11.245134     8A    -11.241896     9A    -11.241676
      10A    -11.237955    11A    -11.237551    12A    -11.236690
      13A    -11.230742    14A    -11.228378    15A    -11.225292
      16A     -1.290119    17A     -1.217396    18A     -1.142115
      19A     -1.091055    20A     -1.037241    21A     -1.018518
      22A     -1.008692    23A     -0.949509    24A     -0.906799
      25A     -0.848128    26A     -0.838797    27A     -0.828701
      28A     -0.785325    29A     -0.724491    30A     -0.685377
      31A     -0.674451    32A     -0.648124    33A     -0.638276
      34A     -0.622782    35A     -0.609507    36A     -0.593741
      37A     -0.587893    38A     -0.583808    39A     -0.576644
      40A     -0.560982    41A     -0.542581    42A     -0.534089
      43A     -0.523871    44A     -0.515560    45A     -0.508493
      46A     -0.499948    47A     -0.498920    48A     -0.417623
      49A     -0.410289    50A     -0.374424    51A     -0.342730
      52A     -0.338679    53A     -0.285646

  @DF-RHF Final Energy:  -609.53318029901368

   => Energetics <=

    Nuclear Repulsion Energy =            919.6145944864742887
    One-Electron Energy =               -2651.0776865440857364
    Two-Electron Energy =                1121.9299117585976546
    Total Energy =                       -609.5331802990137930
  Basis Set: (AUG-CC-PVTZ AUX)
    Blend: AUG-CC-PVTZ-RI
    Molecular point group: c1

    Geometry (in Angstrom), charge = 0, multiplicity = 1:

       Center              X                  Y                   Z               Mass
    ------------   -----------------  -----------------  -----------------  -----------------
         N           -0.449951588923     1.140203666119    -0.218567111312    14.003074004430
         N            1.808994411077     1.279622666119     0.351536888688    14.003074004430
         C           -1.604292588923     0.313895666119    -0.067368111312    12.000000000000
         C            0.804804411077     0.533850666119    -0.136874111312    12.000000000000
         C           -0.575444588923     2.490306666119     0.332502888688    12.000000000000
         C            1.006847411077    -0.774414333881    -0.628541111312    12.000000000000
         C            3.342693411077    -0.568674833881    -0.052315511312    12.000000000000
         C           -1.714505588923    -0.599018333881     0.991529888688    12.000000000000
         C           -2.659674588923     0.454265666119    -0.975965111312    12.000000000000
         C            2.283834411077    -1.307522333881    -0.579981111312    12.000000000000
         C            3.041829411077     0.735737666119     0.369286888688    12.000000000000
         C           -2.867225588923    -1.373392333881     1.125147888688    12.000000000000
         C           -3.818013588923    -0.309661333881    -0.826242111312    12.000000000000
         C           -3.923651588923    -1.227309333881     0.221748888688    12.000000000000
         C            4.749842411077    -1.095964333881     0.000068888688    12.000000000000
         H            0.179899411077    -1.340693333881    -1.045874111312     1.007825032230
         H           -0.440763588923     2.507946666119     1.422121888688     1.007825032230
         H           -1.573637588923     2.855918666119     0.084894888688     1.007825032230
         H            0.178884411077     3.136642666119    -0.115771111312     1.007825032230
         H           -0.894273588923    -0.698098333881     1.699247888688     1.007825032230
         H           -2.552156588923     1.156027666119    -1.799901111312     1.007825032230
         H            2.461837411077    -2.314775333881    -0.955274111312     1.007825032230
         H            3.826114411077     1.379991666119     0.768929888688     1.007825032230
         H           -2.947752588923    -2.081801333881     1.946517888688     1.007825032230
         H           -4.633901588923    -0.196973333881    -1.536348111312     1.007825032230
         H            5.105830411077    -1.401096333881    -0.989253111312     1.007825032230
         H            5.441764411077    -0.343702333881     0.389173888688     1.007825032230
         H            4.803157411077    -1.972089333881     0.654633888688     1.007825032230
         H           -4.822635588923    -1.828564333881     0.332244888688     1.007825032230

  Basis Set: AUG-CC-PVTZ
    Blend: AUG-CC-PVTZ
  Basis Set: (AUG-CC-PVTZ AUX)
    Blend: AUG-CC-PVTZ-JKFIT
	 Reference Energy          =    -609.5331802990136794 [Eh]
	 Singles Energy            =      -0.0000000000000000 [Eh]
	 Same-Spin Energy          =      -0.6812578962670537 [Eh]
	 Opposite-Spin Energy      =      -2.1308601030883967 [Eh]
	 Correlation Energy        =      -2.8121179993554506 [Eh]
	 Total Energy              =    -612.3452982983691300 [Eh]

	 ================> DF-SCS-MP2 Energies <==================
	-----------------------------------------------------------
	 SCS Same-Spin Scale       =       0.3333333333333333 [-]
	 SCS Opposite-Spin Scale   =       1.2000000000000000 [-]
	 SCS Same-Spin Energy      =      -0.2270859654223512 [Eh]
	 SCS Opposite-Spin Energy  =      -2.5570321237060760 [Eh]
	 SCS Correlation Energy    =      -2.7841180891284272 [Eh]
	 SCS Total Energy          =    -612.3172983881421487 [Eh]
	-----------------------------------------------------------

  Dipole Moment: [D]
     X:    -0.4703      Y:    -1.4497      Z:    -0.1671     Total:     1.5332

*** Psi4 exiting successfully. Buy a developer a beer!
