                               Psi4 1.4a3.dev225

  ==> Input File <==

--------------------------------------------------------------------------
#psi4
#
memory 32 gb

molecule  {
0 1
  N       -0.4697210     1.1445100    -0.2216410
  N        1.7892250     1.2839290     0.3484630
  C       -1.6240620     0.3182020    -0.0704420
  C        0.7850350     0.5381570    -0.1399480
  C       -0.5952140     2.4946130     0.3294290
  C        0.9870780    -0.7701080    -0.6316150
  C        3.3308620    -0.5454650    -0.0717700
  C       -1.7342750    -0.5947120     0.9884560
  C       -2.6794440     0.4585720    -0.9790390
  C        2.2640650    -1.3032160    -0.5830550
  C        3.0220600     0.7400440     0.3662130
  C       -2.8997830    -1.3861352     1.1339419
  C       -3.8377830    -0.3053550    -0.8293160
  C       -3.9434210    -1.2230030     0.2186750
  C        4.7300730    -1.0916580    -0.0030050
  H        0.1601300    -1.3363870    -1.0489480
  H       -0.4605330     2.5122530     1.4190480
  H       -1.5934070     2.8602250     0.0818210
  H        0.1591150     3.1409490    -0.1188450
  H       -0.9140430    -0.6937920     1.6961740
  H       -2.5719260     1.1603340    -1.8029750
  H        2.4420680    -2.3104690    -0.9583480
  H        3.8063450     1.3842980     0.7658560
  H       -2.9675220    -2.0774950     1.9434440
  H       -4.6536710    -0.1926670    -1.5394220
  H        5.0860610    -1.3967900    -0.9923270
  H        5.4219950    -0.3393960     0.3861000
  H        4.7833880    -1.9677830     0.6515600
  H       -4.8424050    -1.8242580     0.3291710
units angstrom
no_reorient  #important for SAPT in psi4, default
symmetry c1  #important for SAPT in psi4, default
}

set PROPERTIES_ORIGIN ["COM"]
properties('MP2/aug-cc-pvtz', properties = ['dipole'])
--------------------------------------------------------------------------

    Molecular point group: c1
  Charge       = 0
  Multiplicity = 1
  Basis Set: AUG-CC-PVTZ
    Blend: AUG-CC-PVTZ
  Basis Set: (AUG-CC-PVTZ AUX)
    Blend: AUG-CC-PVTZ-JKFIT

    Orbital Energies [Eh]
    ---------------------

    Doubly Occupied:

       1A    -15.572853     2A    -15.548927     3A    -11.308546
       4A    -11.275265     5A    -11.265484     6A    -11.250161
       7A    -11.245148     8A    -11.242709     9A    -11.241975
      10A    -11.240022    11A    -11.238504    12A    -11.237462
      13A    -11.230303    14A    -11.228802    15A    -11.225122
      16A     -1.290092    17A     -1.217225    18A     -1.140462
      19A     -1.089837    20A     -1.037917    21A     -1.016822
      22A     -1.009098    23A     -0.949317    24A     -0.907120
      25A     -0.846934    26A     -0.839496    27A     -0.830222
      28A     -0.785543    29A     -0.724903    30A     -0.684625
      31A     -0.674225    32A     -0.647848    33A     -0.639377
      34A     -0.623486    35A     -0.610480    36A     -0.595132
      37A     -0.588310    38A     -0.582733    39A     -0.576511
      40A     -0.561161    41A     -0.543110    42A     -0.533891
      43A     -0.523314    44A     -0.513439    45A     -0.509029
      46A     -0.501032    47A     -0.497223    48A     -0.418114
      49A     -0.410291    50A     -0.373523    51A     -0.342064
      52A     -0.338310    53A     -0.286518

  @DF-RHF Final Energy:  -609.53276050995714

   => Energetics <=

    Nuclear Repulsion Energy =            919.1153139663380216
    One-Electron Energy =               -2650.0761215044226446
    Two-Electron Energy =                1121.4280470281275939
    Total Energy =                       -609.5327605099571429
  Basis Set: (AUG-CC-PVTZ AUX)
    Blend: AUG-CC-PVTZ-RI
    Molecular point group: c1

    Geometry (in Angstrom), charge = 0, multiplicity = 1:

       Center              X                  Y                   Z               Mass
    ------------   -----------------  -----------------  -----------------  -----------------
         N           -0.449657821188     1.140091349932    -0.218293774063    14.003074004430
         N            1.809288178812     1.279510349932     0.351810225937    14.003074004430
         C           -1.603998821188     0.313783349932    -0.067094774063    12.000000000000
         C            0.805098178812     0.533738349932    -0.136600774063    12.000000000000
         C           -0.575150821188     2.490194349932     0.332776225937    12.000000000000
         C            1.007141178812    -0.774526650068    -0.628267774063    12.000000000000
         C            3.350925178812    -0.549883650068    -0.068422774063    12.000000000000
         C           -1.714211821188    -0.599130650068     0.991803225937    12.000000000000
         C           -2.659380821188     0.454153349932    -0.975691774063    12.000000000000
         C            2.284128178812    -1.307634650068    -0.579707774063    12.000000000000
         C            3.042123178812     0.735625349932     0.369560225937    12.000000000000
         C           -2.879719821188    -1.390553850068     1.137289125937    12.000000000000
         C           -3.817719821188    -0.309773650068    -0.825968774063    12.000000000000
         C           -3.923357821188    -1.227421650068     0.222022225937    12.000000000000
         C            4.750136178812    -1.096076650068     0.000342225937    12.000000000000
         H            0.180193178812    -1.340805650068    -1.045600774063     1.007825032230
         H           -0.440469821188     2.507834349932     1.422395225937     1.007825032230
         H           -1.573343821188     2.855806349932     0.085168225937     1.007825032230
         H            0.179178178812     3.136530349932    -0.115497774063     1.007825032230
         H           -0.893979821188    -0.698210650068     1.699521225937     1.007825032230
         H           -2.551862821188     1.155915349932    -1.799627774063     1.007825032230
         H            2.462131178812    -2.314887650068    -0.955000774063     1.007825032230
         H            3.826408178812     1.379879349932     0.769203225937     1.007825032230
         H           -2.947458821188    -2.081913650068     1.946791225937     1.007825032230
         H           -4.633607821188    -0.197085650068    -1.536074774063     1.007825032230
         H            5.106124178812    -1.401208650068    -0.988979774063     1.007825032230
         H            5.442058178812    -0.343814650068     0.389447225937     1.007825032230
         H            4.803451178812    -1.972201650068     0.654907225937     1.007825032230
         H           -4.822341821188    -1.828676650068     0.332518225937     1.007825032230

  Basis Set: AUG-CC-PVTZ
    Blend: AUG-CC-PVTZ
  Basis Set: (AUG-CC-PVTZ AUX)
    Blend: AUG-CC-PVTZ-JKFIT
	 Reference Energy          =    -609.5327605099571429 [Eh]
	 Singles Energy            =      -0.0000000000000000 [Eh]
	 Same-Spin Energy          =      -0.6811206028192913 [Eh]
	 Opposite-Spin Energy      =      -2.1308988885340798 [Eh]
	 Correlation Energy        =      -2.8120194913533711 [Eh]
	 Total Energy              =    -612.3447800013104825 [Eh]

	 ================> DF-SCS-MP2 Energies <==================
	-----------------------------------------------------------
	 SCS Same-Spin Scale       =       0.3333333333333333 [-]
	 SCS Opposite-Spin Scale   =       1.2000000000000000 [-]
	 SCS Same-Spin Energy      =      -0.2270402009397638 [Eh]
	 SCS Opposite-Spin Energy  =      -2.5570786662408955 [Eh]
	 SCS Correlation Energy    =      -2.7841188671806592 [Eh]
	 SCS Total Energy          =    -612.3168793771377523 [Eh]
	-----------------------------------------------------------

  Dipole Moment: [D]
     X:    -0.4954      Y:    -1.4698      Z:    -0.1589     Total:     1.5592

*** Psi4 exiting successfully. Buy a developer a beer!
