                               Psi4 1.4a3.dev225

  ==> Input File <==

--------------------------------------------------------------------------
#psi4
#
memory 32 gb

molecule  {
0 1
  N       -0.4697210     1.1445100    -0.2216410
  N        1.7892250     1.2839290     0.3484630
  C       -1.6240620     0.3182020    -0.0704420
  C        0.7850350     0.5381570    -0.1399480
  C       -0.5952140     2.4946130     0.3294290
  C        0.9870780    -0.7701080    -0.6316150
  C        3.3308620    -0.5454650    -0.0717700
  C       -1.7342750    -0.5947120     0.9884560
  C       -2.6794440     0.4585720    -0.9790390
  C        2.2640650    -1.3032160    -0.5830550
  C        3.0220600     0.7400440     0.3662130
  C       -2.8869950    -1.3690860     1.1220740
  C       -3.8377830    -0.3053550    -0.8293160
  C       -3.9434210    -1.2230030     0.2186750
  C        4.7300730    -1.0916580    -0.0030050
  H        0.1753639    -1.3259551    -1.0412600
  H       -0.4605330     2.5122530     1.4190480
  H       -1.5934070     2.8602250     0.0818210
  H        0.1591150     3.1409490    -0.1188450
  H       -0.9140430    -0.6937920     1.6961740
  H       -2.5719260     1.1603340    -1.8029750
  H        2.4420680    -2.3104690    -0.9583480
  H        3.8063450     1.3842980     0.7658560
  H       -2.9675220    -2.0774950     1.9434440
  H       -4.6536710    -0.1926670    -1.5394220
  H        5.0860610    -1.3967900    -0.9923270
  H        5.4219950    -0.3393960     0.3861000
  H        4.7833880    -1.9677830     0.6515600
  H       -4.8424050    -1.8242580     0.3291710
units angstrom
no_reorient  #important for SAPT in psi4, default
symmetry c1  #important for SAPT in psi4, default
}

set PROPERTIES_ORIGIN ["COM"]
properties('MP2/aug-cc-pvtz', properties = ['dipole'])
--------------------------------------------------------------------------

    Molecular point group: c1
  Charge       = 0
  Multiplicity = 1
  Basis Set: AUG-CC-PVTZ
    Blend: AUG-CC-PVTZ
  Basis Set: (AUG-CC-PVTZ AUX)
    Blend: AUG-CC-PVTZ-JKFIT

    Orbital Energies [Eh]
    ---------------------

    Doubly Occupied:

       1A    -15.572833     2A    -15.548864     3A    -11.308439
       4A    -11.275417     5A    -11.265523     6A    -11.250130
       7A    -11.245186     8A    -11.242084     9A    -11.241857
      10A    -11.238148    11A    -11.237774    12A    -11.236896
      13A    -11.230276    14A    -11.226666    15A    -11.225114
      16A     -1.290157    17A     -1.217355    18A     -1.142301
      19A     -1.090015    20A     -1.038487    21A     -1.018740
      22A     -1.008870    23A     -0.949331    24A     -0.907492
      25A     -0.848031    26A     -0.839326    27A     -0.829270
      28A     -0.785743    29A     -0.724742    30A     -0.685561
      31A     -0.674337    32A     -0.648284    33A     -0.639673
      34A     -0.625063    35A     -0.609741    36A     -0.593870
      37A     -0.588071    38A     -0.583807    39A     -0.576632
      40A     -0.561633    41A     -0.543300    42A     -0.534206
      43A     -0.523300    44A     -0.514922    45A     -0.507932
      46A     -0.500066    47A     -0.499056    48A     -0.418041
      49A     -0.410384    50A     -0.373561    51A     -0.342917
      52A     -0.339006    53A     -0.286491

  @DF-RHF Final Energy:  -609.53391407166146

   => Energetics <=

    Nuclear Repulsion Energy =            919.7004564793863892
    One-Electron Energy =               -2651.2388988990887810
    Two-Electron Energy =                1122.0045283480408216
    Total Energy =                       -609.5339140716614565
  Basis Set: (AUG-CC-PVTZ AUX)
    Blend: AUG-CC-PVTZ-RI
    Molecular point group: c1

    Geometry (in Angstrom), charge = 0, multiplicity = 1:

       Center              X                  Y                   Z               Mass
    ------------   -----------------  -----------------  -----------------  -----------------
         N           -0.450509894532     1.139005600889    -0.217614036706    14.003074004430
         N            1.808436105468     1.278424600889     0.352489963294    14.003074004430
         C           -1.604850894532     0.312697600889    -0.066415036706    12.000000000000
         C            0.804246105468     0.532652600889    -0.135921036706    12.000000000000
         C           -0.576002894532     2.489108600889     0.333455963294    12.000000000000
         C            1.006289105468    -0.775612399111    -0.627588036706    12.000000000000
         C            3.350073105468    -0.550969399111    -0.067743036706    12.000000000000
         C           -1.715063894532    -0.600216399111     0.992482963294    12.000000000000
         C           -2.660232894532     0.453067600889    -0.975012036706    12.000000000000
         C            2.283276105468    -1.308720399111    -0.579028036706    12.000000000000
         C            3.041271105468     0.734539600889     0.370239963294    12.000000000000
         C           -2.867783894532    -1.374590399111     1.126100963294    12.000000000000
         C           -3.818571894532    -0.310859399111    -0.825289036706    12.000000000000
         C           -3.924209894532    -1.228507399111     0.222701963294    12.000000000000
         C            4.749284105468    -1.097162399111     0.001021963294    12.000000000000
         H            0.194575005468    -1.331459499111    -1.037233036706     1.007825032230
         H           -0.441321894532     2.506748600889     1.423074963294     1.007825032230
         H           -1.574195894532     2.854720600889     0.085847963294     1.007825032230
         H            0.178326105468     3.135444600889    -0.114818036706     1.007825032230
         H           -0.894831894532    -0.699296399111     1.700200963294     1.007825032230
         H           -2.552714894532     1.154829600889    -1.798948036706     1.007825032230
         H            2.461279105468    -2.315973399111    -0.954321036706     1.007825032230
         H            3.825556105468     1.378793600889     0.769882963294     1.007825032230
         H           -2.948310894532    -2.082999399111     1.947470963294     1.007825032230
         H           -4.634459894532    -0.198171399111    -1.535395036706     1.007825032230
         H            5.105272105468    -1.402294399111    -0.988300036706     1.007825032230
         H            5.441206105468    -0.344900399111     0.390126963294     1.007825032230
         H            4.802599105468    -1.973287399111     0.655586963294     1.007825032230
         H           -4.823193894532    -1.829762399111     0.333197963294     1.007825032230

  Basis Set: AUG-CC-PVTZ
    Blend: AUG-CC-PVTZ
  Basis Set: (AUG-CC-PVTZ AUX)
    Blend: AUG-CC-PVTZ-JKFIT
	 Reference Energy          =    -609.5339140716614565 [Eh]
	 Singles Energy            =      -0.0000000000000000 [Eh]
	 Same-Spin Energy          =      -0.6810584199995122 [Eh]
	 Opposite-Spin Energy      =      -2.1305585996326695 [Eh]
	 Correlation Energy        =      -2.8116170196321817 [Eh]
	 Total Energy              =    -612.3455310912936511 [Eh]

	 ================> DF-SCS-MP2 Energies <==================
	-----------------------------------------------------------
	 SCS Same-Spin Scale       =       0.3333333333333333 [-]
	 SCS Opposite-Spin Scale   =       1.2000000000000000 [-]
	 SCS Same-Spin Energy      =      -0.2270194733331707 [Eh]
	 SCS Opposite-Spin Energy  =      -2.5566703195592031 [Eh]
	 SCS Correlation Energy    =      -2.7836897928923738 [Eh]
	 SCS Total Energy          =    -612.3176038645538029 [Eh]
	-----------------------------------------------------------

  Dipole Moment: [D]
     X:    -0.4977      Y:    -1.4647      Z:    -0.1679     Total:     1.5561

*** Psi4 exiting successfully. Buy a developer a beer!
