                               Psi4 1.4a3.dev225

  ==> Input File <==

--------------------------------------------------------------------------
#psi4
#
memory 32 gb

molecule  {
0 1
  N       -0.4697210     1.1445100    -0.2216410
  N        1.7892250     1.2839290     0.3484630
  C       -1.6240620     0.3182020    -0.0704420
  C        0.7850350     0.5381570    -0.1399480
  C       -0.5952140     2.4946130     0.3294290
  C        0.9870780    -0.7701080    -0.6316150
  C        3.3308620    -0.5454650    -0.0717700
  C       -1.7342750    -0.5947120     0.9884560
  C       -2.6794440     0.4585720    -0.9790390
  C        2.2640650    -1.3032160    -0.5830550
  C        3.0220600     0.7400440     0.3662130
  C       -2.8869950    -1.3690860     1.1220740
  C       -3.8377830    -0.3053550    -0.8293160
  C       -3.9434210    -1.2230030     0.2186750
  C        4.7300730    -1.0916580    -0.0030050
  H        0.1601300    -1.3363870    -1.0489480
  H       -0.4605330     2.5122530     1.4190480
  H       -1.5934070     2.8602250     0.0818210
  H        0.1591150     3.1409490    -0.1188450
  H       -0.9140430    -0.6937920     1.6961740
  H       -2.5719260     1.1603340    -1.8029750
  H        2.4420680    -2.3104690    -0.9583480
  H        3.8063450     1.3842980     0.7658560
  H       -2.9675220    -2.0774950     1.9434440
  H       -4.6536710    -0.1926670    -1.5394220
  H        5.0860610    -1.3967900    -0.9923270
  H        5.3587274    -0.4081809     0.3505212
  H        4.7833880    -1.9677830     0.6515600
  H       -4.8424050    -1.8242580     0.3291710
units angstrom
no_reorient  #important for SAPT in psi4, default
symmetry c1  #important for SAPT in psi4, default
}

set PROPERTIES_ORIGIN ["COM"]
properties('MP2/aug-cc-pvtz', properties = ['dipole'])
--------------------------------------------------------------------------

    Molecular point group: c1
  Charge       = 0
  Multiplicity = 1
  Basis Set: AUG-CC-PVTZ
    Blend: AUG-CC-PVTZ
  Basis Set: (AUG-CC-PVTZ AUX)
    Blend: AUG-CC-PVTZ-JKFIT

    Orbital Energies [Eh]
    ---------------------

    Doubly Occupied:

       1A    -15.572639     2A    -15.548827     3A    -11.308336
       4A    -11.275239     5A    -11.265396     6A    -11.249586
       7A    -11.245060     8A    -11.241927     9A    -11.241706
      10A    -11.237988    11A    -11.237585    12A    -11.236721
      13A    -11.229636    14A    -11.228573    15A    -11.212836
      16A     -1.289972    17A     -1.217229    18A     -1.142157
      19A     -1.090510    20A     -1.039351    21A     -1.018627
      22A     -1.009130    23A     -0.954642    24A     -0.909315
      25A     -0.848028    26A     -0.839759    27A     -0.829347
      28A     -0.785725    29A     -0.724398    30A     -0.685624
      31A     -0.675977    32A     -0.648206    33A     -0.638722
      34A     -0.623799    35A     -0.609498    36A     -0.593674
      37A     -0.590482    38A     -0.584874    39A     -0.575792
      40A     -0.561895    41A     -0.553981    42A     -0.534105
      43A     -0.523365    44A     -0.516361    45A     -0.508147
      46A     -0.499933    47A     -0.498777    48A     -0.417836
      49A     -0.410107    50A     -0.373263    51A     -0.342688
      52A     -0.338834    53A     -0.286267

  @DF-RHF Final Energy:  -609.52777692109316

   => Energetics <=

    Nuclear Repulsion Energy =            920.0741341519989192
    One-Electron Energy =               -2651.9589214161960626
    Two-Electron Energy =                1122.3570103431040934
    Total Energy =                       -609.5277769210931638
  Basis Set: (AUG-CC-PVTZ AUX)
    Blend: AUG-CC-PVTZ-RI
    Molecular point group: c1

    Geometry (in Angstrom), charge = 0, multiplicity = 1:

       Center              X                  Y                   Z               Mass
    ------------   -----------------  -----------------  -----------------  -----------------
         N           -0.450110553251     1.139408580939    -0.217393936207    14.003074004430
         N            1.808835446749     1.278827580939     0.352710063793    14.003074004430
         C           -1.604451553251     0.313100580939    -0.066194936207    12.000000000000
         C            0.804645446749     0.533055580939    -0.135700936207    12.000000000000
         C           -0.575603553251     2.489511580939     0.333676063793    12.000000000000
         C            1.006688446749    -0.775209419061    -0.627367936207    12.000000000000
         C            3.350472446749    -0.550566419061    -0.067522936207    12.000000000000
         C           -1.714664553251    -0.599813419061     0.992703063793    12.000000000000
         C           -2.659833553251     0.453470580939    -0.974791936207    12.000000000000
         C            2.283675446749    -1.308317419061    -0.578807936207    12.000000000000
         C            3.041670446749     0.734942580939     0.370460063793    12.000000000000
         C           -2.867384553251    -1.374187419061     1.126321063793    12.000000000000
         C           -3.818172553251    -0.310456419061    -0.825068936207    12.000000000000
         C           -3.923810553251    -1.228104419061     0.222922063793    12.000000000000
         C            4.749683446749    -1.096759419061     0.001242063793    12.000000000000
         H            0.179740446749    -1.341488419061    -1.044700936207     1.007825032230
         H           -0.440922553251     2.507151580939     1.423295063793     1.007825032230
         H           -1.573796553251     2.855123580939     0.086068063793     1.007825032230
         H            0.178725446749     3.135847580939    -0.114597936207     1.007825032230
         H           -0.894432553251    -0.698893419061     1.700421063793     1.007825032230
         H           -2.552315553251     1.155232580939    -1.798727936207     1.007825032230
         H            2.461678446749    -2.315570419061    -0.954100936207     1.007825032230
         H            3.825955446749     1.379196580939     0.770103063793     1.007825032230
         H           -2.947911553251    -2.082596419061     1.947691063793     1.007825032230
         H           -4.634060553251    -0.197768419061    -1.535174936207     1.007825032230
         H            5.105671446749    -1.401891419061    -0.988079936207     1.007825032230
         H            5.378337846749    -0.413282319061     0.354768263793     1.007825032230
         H            4.802998446749    -1.972884419061     0.655807063793     1.007825032230
         H           -4.822794553251    -1.829359419061     0.333418063793     1.007825032230

  Basis Set: AUG-CC-PVTZ
    Blend: AUG-CC-PVTZ
  Basis Set: (AUG-CC-PVTZ AUX)
    Blend: AUG-CC-PVTZ-JKFIT
	 Reference Energy          =    -609.5277769210931638 [Eh]
	 Singles Energy            =      -0.0000000000000000 [Eh]
	 Same-Spin Energy          =      -0.6811243275089572 [Eh]
	 Opposite-Spin Energy      =      -2.1301890337614333 [Eh]
	 Correlation Energy        =      -2.8113133612703907 [Eh]
	 Total Energy              =    -612.3390902823635997 [Eh]

	 ================> DF-SCS-MP2 Energies <==================
	-----------------------------------------------------------
	 SCS Same-Spin Scale       =       0.3333333333333333 [-]
	 SCS Opposite-Spin Scale   =       1.2000000000000000 [-]
	 SCS Same-Spin Energy      =      -0.2270414425029857 [Eh]
	 SCS Opposite-Spin Energy  =      -2.5562268405137201 [Eh]
	 SCS Correlation Energy    =      -2.7832682830167057 [Eh]
	 SCS Total Energy          =    -612.3110452041098597 [Eh]
	-----------------------------------------------------------

  Dipole Moment: [D]
     X:    -0.4399      Y:    -1.4491      Z:    -0.1529     Total:     1.5221

*** Psi4 exiting successfully. Buy a developer a beer!
