                               Psi4 1.4a3.dev225

  ==> Input File <==

--------------------------------------------------------------------------
#psi4
#
memory 32 gb

molecule  {
0 1
  N       -0.4697210     1.1445100    -0.2216410
  N        1.7892250     1.2839290     0.3484630
  C       -1.6240620     0.3182020    -0.0704420
  C        0.7850350     0.5381570    -0.1399480
  C       -0.5952140     2.4946130     0.3294290
  C        0.9870780    -0.7701080    -0.6316150
  C        3.3308620    -0.5454650    -0.0717700
  C       -1.7342750    -0.5947120     0.9884560
  C       -2.6794440     0.4585720    -0.9790390
  C        2.2640650    -1.3032160    -0.5830550
  C        3.0220600     0.7400440     0.3662130
  C       -2.8869950    -1.3690860     1.1220740
  C       -3.8377830    -0.3053550    -0.8293160
  C       -3.9434210    -1.2230030     0.2186750
  C        4.7300730    -1.0916580    -0.0030050
  H        0.1601300    -1.3363870    -1.0489480
  H       -0.4605330     2.5122530     1.4190480
  H       -1.5934070     2.8602250     0.0818210
  H        0.1591150     3.1409490    -0.1188450
  H       -0.9140430    -0.6937920     1.6961740
  H       -2.5719260     1.1603340    -1.8029750
  H        2.4420680    -2.3104690    -0.9583480
  H        3.8063450     1.3842980     0.7658560
  H       -2.9675220    -2.0774950     1.9434440
  H       -4.6536710    -0.1926670    -1.5394220
  H        5.0860610    -1.3967900    -0.9923270
  H        5.4219950    -0.3393960     0.3861000
  H        4.7931264    -2.1278147     0.7711218
  H       -4.8424050    -1.8242580     0.3291710
units angstrom
no_reorient  #important for SAPT in psi4, default
symmetry c1  #important for SAPT in psi4, default
}

set PROPERTIES_ORIGIN ["COM"]
properties('MP2/aug-cc-pvtz', properties = ['dipole'])
--------------------------------------------------------------------------

    Molecular point group: c1
  Charge       = 0
  Multiplicity = 1
  Basis Set: AUG-CC-PVTZ
    Blend: AUG-CC-PVTZ
  Basis Set: (AUG-CC-PVTZ AUX)
    Blend: AUG-CC-PVTZ-JKFIT

    Orbital Energies [Eh]
    ---------------------

    Doubly Occupied:

       1A    -15.573892     2A    -15.550037     3A    -11.310027
       4A    -11.275943     5A    -11.267439     6A    -11.251324
       7A    -11.247918     8A    -11.245883     9A    -11.242483
      10A    -11.242267    11A    -11.238567    12A    -11.238231
      13A    -11.237374    14A    -11.232222    15A    -11.229796
      16A     -1.291227    17A     -1.218487    18A     -1.142813
      19A     -1.089908    20A     -1.037875    21A     -1.019134
      22A     -1.008951    23A     -0.944589    24A     -0.904340
      25A     -0.847799    26A     -0.838453    27A     -0.828866
      28A     -0.785626    29A     -0.725274    30A     -0.685901
      31A     -0.675370    32A     -0.648886    33A     -0.638114
      34A     -0.623740    35A     -0.610372    36A     -0.594020
      37A     -0.589006    38A     -0.583716    39A     -0.565435
      40A     -0.561897    41A     -0.535489    42A     -0.534867
      43A     -0.516340    44A     -0.509932    45A     -0.507937
      46A     -0.500023    47A     -0.499048    48A     -0.417283
      49A     -0.411493    50A     -0.374202    51A     -0.343157
      52A     -0.339375    53A     -0.286990

  @DF-RHF Final Energy:  -609.51413797469706

   => Energetics <=

    Nuclear Repulsion Energy =            918.8177793924745629
    One-Electron Energy =               -2649.4251585217052707
    Two-Electron Energy =                1121.0932411545334162
    Total Energy =                       -609.5141379746971779
  Basis Set: (AUG-CC-PVTZ AUX)
    Blend: AUG-CC-PVTZ-RI
    Molecular point group: c1

    Geometry (in Angstrom), charge = 0, multiplicity = 1:

       Center              X                  Y                   Z               Mass
    ------------   -----------------  -----------------  -----------------  -----------------
         N           -0.450481938633     1.139872758234    -0.218183144641    14.003074004430
         N            1.808464061367     1.279291758234     0.351920855359    14.003074004430
         C           -1.604822938633     0.313564758234    -0.066984144641    12.000000000000
         C            0.804274061367     0.533519758234    -0.136490144641    12.000000000000
         C           -0.575974938633     2.489975758234     0.332886855359    12.000000000000
         C            1.006317061367    -0.774745241766    -0.628157144641    12.000000000000
         C            3.350101061367    -0.550102241766    -0.068312144641    12.000000000000
         C           -1.715035938633    -0.599349241766     0.991913855359    12.000000000000
         C           -2.660204938633     0.453934758234    -0.975581144641    12.000000000000
         C            2.283304061367    -1.307853241766    -0.579597144641    12.000000000000
         C            3.041299061367     0.735406758234     0.369670855359    12.000000000000
         C           -2.867755938633    -1.373723241766     1.125531855359    12.000000000000
         C           -3.818543938633    -0.309992241766    -0.825858144641    12.000000000000
         C           -3.924181938633    -1.227640241766     0.222132855359    12.000000000000
         C            4.749312061367    -1.096295241766     0.000452855359    12.000000000000
         H            0.179369061367    -1.341024241766    -1.045490144641     1.007825032230
         H           -0.441293938633     2.507615758234     1.422505855359     1.007825032230
         H           -1.574167938633     2.855587758234     0.085278855359     1.007825032230
         H            0.178354061367     3.136311758234    -0.115387144641     1.007825032230
         H           -0.894803938633    -0.698429241766     1.699631855359     1.007825032230
         H           -2.552686938633     1.155696758234    -1.799517144641     1.007825032230
         H            2.461307061367    -2.315106241766    -0.954890144641     1.007825032230
         H            3.825584061367     1.379660758234     0.769313855359     1.007825032230
         H           -2.948282938633    -2.082132241766     1.946901855359     1.007825032230
         H           -4.634431938633    -0.197304241766    -1.535964144641     1.007825032230
         H            5.105300061367    -1.401427241766    -0.988869144641     1.007825032230
         H            5.441234061367    -0.344033241766     0.389557855359     1.007825032230
         H            4.812365461367    -2.132451941766     0.774579655359     1.007825032230
         H           -4.823165938633    -1.828895241766     0.332628855359     1.007825032230

  Basis Set: AUG-CC-PVTZ
    Blend: AUG-CC-PVTZ
  Basis Set: (AUG-CC-PVTZ AUX)
    Blend: AUG-CC-PVTZ-JKFIT
	 Reference Energy          =    -609.5141379746970642 [Eh]
	 Singles Energy            =      -0.0000000000000000 [Eh]
	 Same-Spin Energy          =      -0.6810339077349991 [Eh]
	 Opposite-Spin Energy      =      -2.1321333837756682 [Eh]
	 Correlation Energy        =      -2.8131672915106671 [Eh]
	 Total Energy              =    -612.3273052662077589 [Eh]

	 ================> DF-SCS-MP2 Energies <==================
	-----------------------------------------------------------
	 SCS Same-Spin Scale       =       0.3333333333333333 [-]
	 SCS Opposite-Spin Scale   =       1.2000000000000000 [-]
	 SCS Same-Spin Energy      =      -0.2270113025783330 [Eh]
	 SCS Opposite-Spin Energy  =      -2.5585600605308016 [Eh]
	 SCS Correlation Energy    =      -2.7855713631091348 [Eh]
	 SCS Total Energy          =    -612.2997093378062345 [Eh]
	-----------------------------------------------------------

  Dipole Moment: [D]
     X:    -0.6186      Y:    -1.3386      Z:    -0.2321     Total:     1.4928

*** Psi4 exiting successfully. Buy a developer a beer!
