                               Psi4 1.4a3.dev225

  ==> Input File <==

--------------------------------------------------------------------------
#psi4
#
memory 32 gb

molecule  {
0 1
  N       -0.4697210     1.1445100    -0.2216410
  N        1.7892250     1.2839290     0.3484630
  C       -1.6240620     0.3182020    -0.0704420
  C        0.7850350     0.5381570    -0.1399480
  C       -0.5952140     2.4946130     0.3294290
  C        0.9870780    -0.7701080    -0.6316150
  C        3.3308620    -0.5454650    -0.0717700
  C       -1.7342750    -0.5947120     0.9884560
  C       -2.6794440     0.4585720    -0.9790390
  C        2.2640650    -1.3032160    -0.5830550
  C        3.0220600     0.7400440     0.3662130
  C       -2.8869950    -1.3690860     1.1220740
  C       -3.8377830    -0.3053550    -0.8293160
  C       -3.9434210    -1.2230030     0.2186750
  C        4.7300730    -1.0916580    -0.0030050
  H        0.1601300    -1.3363870    -1.0489480
  H       -0.4605330     2.5122530     1.4190480
  H       -1.5934070     2.8602250     0.0818210
  H        0.1591150     3.1409490    -0.1188450
  H       -0.9140430    -0.6937920     1.6961740
  H       -2.5719260     1.1603340    -1.8029750
  H        2.4420680    -2.3104690    -0.9583480
  H        3.8063450     1.3842980     0.7658560
  H       -2.9675220    -2.0774950     1.9434440
  H       -4.6536710    -0.1926670    -1.5394220
  H        5.0860610    -1.3967900    -0.9923270
  H        5.4219950    -0.3393960     0.3861000
  H        4.7824142    -1.9517798     0.6396038
  H       -4.8424050    -1.8242580     0.3291710
units angstrom
no_reorient  #important for SAPT in psi4, default
symmetry c1  #important for SAPT in psi4, default
}

set PROPERTIES_ORIGIN ["COM"]
properties('MP2/aug-cc-pvtz', properties = ['dipole'])
--------------------------------------------------------------------------

    Molecular point group: c1
  Charge       = 0
  Multiplicity = 1
  Basis Set: AUG-CC-PVTZ
    Blend: AUG-CC-PVTZ
  Basis Set: (AUG-CC-PVTZ AUX)
    Blend: AUG-CC-PVTZ-JKFIT

    Orbital Energies [Eh]
    ---------------------

    Doubly Occupied:

       1A    -15.572760     2A    -15.548944     3A    -11.308522
       4A    -11.275337     5A    -11.265457     6A    -11.250204
       7A    -11.245143     8A    -11.242016     9A    -11.241793
      10A    -11.238077    11A    -11.237682    12A    -11.236813
      13A    -11.230242    14A    -11.228852    15A    -11.222749
      16A     -1.290113    17A     -1.217351    18A     -1.142239
      19A     -1.090053    20A     -1.038116    21A     -1.018664
      22A     -1.008854    23A     -0.950237    24A     -0.907956
      25A     -0.846981    26A     -0.839366    27A     -0.829303
      28A     -0.785629    29A     -0.724536    30A     -0.685446
      31A     -0.674317    32A     -0.648221    33A     -0.638450
      34A     -0.622648    35A     -0.609618    36A     -0.593944
      37A     -0.588081    38A     -0.584283    39A     -0.578466
      40A     -0.561568    41A     -0.544011    42A     -0.534176
      43A     -0.523817    44A     -0.514502    45A     -0.507779
      46A     -0.500011    47A     -0.498737    48A     -0.418125
      49A     -0.410264    50A     -0.373614    51A     -0.342828
      52A     -0.338947    53A     -0.286503

  @DF-RHF Final Energy:  -609.53374101041447

   => Energetics <=

    Nuclear Repulsion Energy =            919.6946962853293144
    One-Electron Energy =               -2651.2321871249314427
    Two-Electron Energy =                1122.0037498291876545
    Total Energy =                       -609.5337410104143601
  Basis Set: (AUG-CC-PVTZ AUX)
    Blend: AUG-CC-PVTZ-RI
    Molecular point group: c1

    Geometry (in Angstrom), charge = 0, multiplicity = 1:

       Center              X                  Y                   Z               Mass
    ------------   -----------------  -----------------  -----------------  -----------------
         N           -0.450427445105     1.138977259391    -0.217514105622    14.003074004430
         N            1.808518554895     1.278396259391     0.352589894378    14.003074004430
         C           -1.604768445105     0.312669259391    -0.066315105622    12.000000000000
         C            0.804328554895     0.532624259391    -0.135821105622    12.000000000000
         C           -0.575920445105     2.489080259391     0.333555894378    12.000000000000
         C            1.006371554895    -0.775640740609    -0.627488105622    12.000000000000
         C            3.350155554895    -0.550997740609    -0.067643105622    12.000000000000
         C           -1.714981445105    -0.600244740609     0.992582894378    12.000000000000
         C           -2.660150445105     0.453039259391    -0.974912105622    12.000000000000
         C            2.283358554895    -1.308748740609    -0.578928105622    12.000000000000
         C            3.041353554895     0.734511259391     0.370339894378    12.000000000000
         C           -2.867701445105    -1.374618740609     1.126200894378    12.000000000000
         C           -3.818489445105    -0.310887740609    -0.825189105622    12.000000000000
         C           -3.924127445105    -1.228535740609     0.222801894378    12.000000000000
         C            4.749366554895    -1.097190740609     0.001121894378    12.000000000000
         H            0.179423554895    -1.341919740609    -1.044821105622     1.007825032230
         H           -0.441239445105     2.506720259391     1.423174894378     1.007825032230
         H           -1.574113445105     2.854692259391     0.085947894378     1.007825032230
         H            0.178408554895     3.135416259391    -0.114718105622     1.007825032230
         H           -0.894749445105    -0.699324740609     1.700300894378     1.007825032230
         H           -2.552632445105     1.154801259391    -1.798848105622     1.007825032230
         H            2.461361554895    -2.316001740609    -0.954221105622     1.007825032230
         H            3.825638554895     1.378765259391     0.769982894378     1.007825032230
         H           -2.948228445105    -2.083027740609     1.947570894378     1.007825032230
         H           -4.634377445105    -0.198199740609    -1.535295105622     1.007825032230
         H            5.105354554895    -1.402322740609    -0.988200105622     1.007825032230
         H            5.441288554895    -0.344928740609     0.390226894378     1.007825032230
         H            4.801707754895    -1.957312540609     0.643730694378     1.007825032230
         H           -4.823111445105    -1.829790740609     0.333297894378     1.007825032230

  Basis Set: AUG-CC-PVTZ
    Blend: AUG-CC-PVTZ
  Basis Set: (AUG-CC-PVTZ AUX)
    Blend: AUG-CC-PVTZ-JKFIT
	 Reference Energy          =    -609.5337410104144737 [Eh]
	 Singles Energy            =      -0.0000000000000000 [Eh]
	 Same-Spin Energy          =      -0.6811438351870674 [Eh]
	 Opposite-Spin Energy      =      -2.1306396826628919 [Eh]
	 Correlation Energy        =      -2.8117835178499595 [Eh]
	 Total Energy              =    -612.3455245282643773 [Eh]

	 ================> DF-SCS-MP2 Energies <==================
	-----------------------------------------------------------
	 SCS Same-Spin Scale       =       0.3333333333333333 [-]
	 SCS Opposite-Spin Scale   =       1.2000000000000000 [-]
	 SCS Same-Spin Energy      =      -0.2270479450623558 [Eh]
	 SCS Opposite-Spin Energy  =      -2.5567676191954702 [Eh]
	 SCS Correlation Energy    =      -2.7838155642578259 [Eh]
	 SCS Total Energy          =    -612.3175565746722668 [Eh]
	-----------------------------------------------------------

  Dipole Moment: [D]
     X:    -0.4847      Y:    -1.4719      Z:    -0.1620     Total:     1.5581

*** Psi4 exiting successfully. Buy a developer a beer!
