                               Psi4 1.4a3.dev225

  ==> Input File <==

--------------------------------------------------------------------------
#psi4
#
memory 32 gb

molecule  {
0 1
  N       -0.4697210     1.1445100    -0.2216410
  N        1.7892250     1.2839290     0.3484630
  C       -1.6240620     0.3182020    -0.0704420
  C        0.7850350     0.5381570    -0.1399480
  C       -0.5952140     2.4946130     0.3294290
  C        0.9870780    -0.7701080    -0.6316150
  C        3.3308620    -0.5454650    -0.0717700
  C       -1.7342750    -0.5947120     0.9884560
  C       -2.6794440     0.4585720    -0.9790390
  C        2.2640650    -1.3032160    -0.5830550
  C        3.0220600     0.7400440     0.3662130
  C       -2.8869950    -1.3690860     1.1220740
  C       -3.8377830    -0.3053550    -0.8293160
  C       -3.9434210    -1.2230030     0.2186750
  C        4.7300730    -1.0916580    -0.0030050
  H        0.1601300    -1.3363870    -1.0489480
  H       -0.4605330     2.5122530     1.4190480
  H       -1.5934070     2.8602250     0.0818210
  H        0.1591150     3.1409490    -0.1188450
  H       -0.9140430    -0.6937920     1.6961740
  H       -2.5620403     1.2248572    -1.8787314
  H        2.4420680    -2.3104690    -0.9583480
  H        3.8063450     1.3842980     0.7658560
  H       -2.9675220    -2.0774950     1.9434440
  H       -4.6536710    -0.1926670    -1.5394220
  H        5.0860610    -1.3967900    -0.9923270
  H        5.4219950    -0.3393960     0.3861000
  H        4.7833880    -1.9677830     0.6515600
  H       -4.8424050    -1.8242580     0.3291710
units angstrom
no_reorient  #important for SAPT in psi4, default
symmetry c1  #important for SAPT in psi4, default
}

set PROPERTIES_ORIGIN ["COM"]
properties('MP2/aug-cc-pvtz', properties = ['dipole'])
--------------------------------------------------------------------------

    Molecular point group: c1
  Charge       = 0
  Multiplicity = 1
  Basis Set: AUG-CC-PVTZ
    Blend: AUG-CC-PVTZ
  Basis Set: (AUG-CC-PVTZ AUX)
    Blend: AUG-CC-PVTZ-JKFIT

    Orbital Energies [Eh]
    ---------------------

    Doubly Occupied:

       1A    -15.572776     2A    -15.548974     3A    -11.308591
       4A    -11.276474     5A    -11.265564     6A    -11.250256
       7A    -11.248083     8A    -11.244972     9A    -11.242726
      10A    -11.242431    11A    -11.238867    12A    -11.238515
      13A    -11.230367    14A    -11.228895    15A    -11.225169
      16A     -1.290141    17A     -1.217372    18A     -1.142555
      19A     -1.089934    20A     -1.037824    21A     -1.017490
      22A     -1.008313    23A     -0.949311    24A     -0.907212
      25A     -0.846963    26A     -0.839275    27A     -0.825304
      28A     -0.785352    29A     -0.723896    30A     -0.680724
      31A     -0.673941    32A     -0.648275    33A     -0.636211
      34A     -0.622011    35A     -0.609065    36A     -0.592659
      37A     -0.585333    38A     -0.580818    39A     -0.576102
      40A     -0.561452    41A     -0.543240    42A     -0.533854
      43A     -0.523331    44A     -0.514191    45A     -0.506642
      46A     -0.499372    47A     -0.495721    48A     -0.418121
      49A     -0.410324    50A     -0.373641    51A     -0.343431
      52A     -0.339489    53A     -0.286598

  @DF-RHF Final Energy:  -609.52627045913289

   => Energetics <=

    Nuclear Repulsion Energy =            919.1082719900208531
    One-Electron Energy =               -2650.0727929026975289
    Two-Electron Energy =                1121.4382504535437874
    Total Energy =                       -609.5262704591327747
  Basis Set: (AUG-CC-PVTZ AUX)
    Blend: AUG-CC-PVTZ-RI
    Molecular point group: c1

    Geometry (in Angstrom), charge = 0, multiplicity = 1:

       Center              X                  Y                   Z               Mass
    ------------   -----------------  -----------------  -----------------  -----------------
         N           -0.450482687956     1.138730435586    -0.217189550632    14.003074004430
         N            1.808463312044     1.278149435586     0.352914449368    14.003074004430
         C           -1.604823687956     0.312422435586    -0.065990550632    12.000000000000
         C            0.804273312044     0.532377435586    -0.135496550632    12.000000000000
         C           -0.575975687956     2.488833435586     0.333880449368    12.000000000000
         C            1.006316312044    -0.775887564414    -0.627163550632    12.000000000000
         C            3.350100312044    -0.551244564414    -0.067318550632    12.000000000000
         C           -1.715036687956    -0.600491564414     0.992907449368    12.000000000000
         C           -2.660205687956     0.452792435586    -0.974587550632    12.000000000000
         C            2.283303312044    -1.308995564414    -0.578603550632    12.000000000000
         C            3.041298312044     0.734264435586     0.370664449368    12.000000000000
         C           -2.867756687956    -1.374865564414     1.126525449368    12.000000000000
         C           -3.818544687956    -0.311134564414    -0.824864550632    12.000000000000
         C           -3.924182687956    -1.228782564414     0.223126449368    12.000000000000
         C            4.749311312044    -1.097437564414     0.001446449368    12.000000000000
         H            0.179368312044    -1.342166564414    -1.044496550632     1.007825032230
         H           -0.441294687956     2.506473435586     1.423499449368     1.007825032230
         H           -1.574168687956     2.854445435586     0.086272449368     1.007825032230
         H            0.178353312044     3.135169435586    -0.114393550632     1.007825032230
         H           -0.894804687956    -0.699571564414     1.700625449368     1.007825032230
         H           -2.542801987956     1.219077635586    -1.874279950632     1.007825032230
         H            2.461306312044    -2.316248564414    -0.953896550632     1.007825032230
         H            3.825583312044     1.378518435586     0.770307449368     1.007825032230
         H           -2.948283687956    -2.083274564414     1.947895449368     1.007825032230
         H           -4.634432687956    -0.198446564414    -1.534970550632     1.007825032230
         H            5.105299312044    -1.402569564414    -0.987875550632     1.007825032230
         H            5.441233312044    -0.345175564414     0.390551449368     1.007825032230
         H            4.802626312044    -1.973562564414     0.656011449368     1.007825032230
         H           -4.823166687956    -1.830037564414     0.333622449368     1.007825032230

  Basis Set: AUG-CC-PVTZ
    Blend: AUG-CC-PVTZ
  Basis Set: (AUG-CC-PVTZ AUX)
    Blend: AUG-CC-PVTZ-JKFIT
	 Reference Energy          =    -609.5262704591328884 [Eh]
	 Singles Energy            =      -0.0000000000000000 [Eh]
	 Same-Spin Energy          =      -0.6814135825750395 [Eh]
	 Opposite-Spin Energy      =      -2.1317142297318026 [Eh]
	 Correlation Energy        =      -2.8131278123068419 [Eh]
	 Total Energy              =    -612.3393982714396770 [Eh]

	 ================> DF-SCS-MP2 Energies <==================
	-----------------------------------------------------------
	 SCS Same-Spin Scale       =       0.3333333333333333 [-]
	 SCS Opposite-Spin Scale   =       1.2000000000000000 [-]
	 SCS Same-Spin Energy      =      -0.2271378608583465 [Eh]
	 SCS Opposite-Spin Energy  =      -2.5580570756781631 [Eh]
	 SCS Correlation Energy    =      -2.7851949365365094 [Eh]
	 SCS Total Energy          =    -612.3114653956694156 [Eh]
	-----------------------------------------------------------

  Dipole Moment: [D]
     X:    -0.4998      Y:    -1.4821      Z:    -0.1471     Total:     1.5710

*** Psi4 exiting successfully. Buy a developer a beer!
