                               Psi4 1.4a3.dev225

  ==> Input File <==

--------------------------------------------------------------------------
#psi4
#
memory 32 gb

molecule  {
0 1
  N       -0.4697210     1.1445100    -0.2216410
  N        1.7892250     1.2839290     0.3484630
  C       -1.6240620     0.3182020    -0.0704420
  C        0.7850350     0.5381570    -0.1399480
  C       -0.5952140     2.4946130     0.3294290
  C        0.9870780    -0.7701080    -0.6316150
  C        3.3308620    -0.5454650    -0.0717700
  C       -1.7342750    -0.5947120     0.9884560
  C       -2.6794440     0.4585720    -0.9790390
  C        2.2640650    -1.3032160    -0.5830550
  C        3.0220600     0.7400440     0.3662130
  C       -2.8869950    -1.3690860     1.1220740
  C       -4.0037795    -0.4148301    -0.8078598
  C       -3.9434210    -1.2230030     0.2186750
  C        4.7300730    -1.0916580    -0.0030050
  H        0.1601300    -1.3363870    -1.0489480
  H       -0.4605330     2.5122530     1.4190480
  H       -1.5934070     2.8602250     0.0818210
  H        0.1591150     3.1409490    -0.1188450
  H       -0.9140430    -0.6937920     1.6961740
  H       -2.5719260     1.1603340    -1.8029750
  H        2.4420680    -2.3104690    -0.9583480
  H        3.8063450     1.3842980     0.7658560
  H       -2.9675220    -2.0774950     1.9434440
  H       -4.6536710    -0.1926670    -1.5394220
  H        5.0860610    -1.3967900    -0.9923270
  H        5.4219950    -0.3393960     0.3861000
  H        4.7833880    -1.9677830     0.6515600
  H       -4.8424050    -1.8242580     0.3291710
units angstrom
no_reorient  #important for SAPT in psi4, default
symmetry c1  #important for SAPT in psi4, default
}

set PROPERTIES_ORIGIN ["COM"]
properties('MP2/aug-cc-pvtz', properties = ['dipole'])
--------------------------------------------------------------------------

    Molecular point group: c1
  Charge       = 0
  Multiplicity = 1
  Basis Set: AUG-CC-PVTZ
    Blend: AUG-CC-PVTZ
  Basis Set: (AUG-CC-PVTZ AUX)
    Blend: AUG-CC-PVTZ-JKFIT

    Orbital Energies [Eh]
    ---------------------

    Doubly Occupied:

       1A    -15.572165     2A    -15.548968     3A    -11.308403
       4A    -11.273714     5A    -11.265731     6A    -11.250755
       7A    -11.250420     8A    -11.244123     9A    -11.243743
      10A    -11.243229    11A    -11.241783    12A    -11.231345
      13A    -11.230455    14A    -11.228897    15A    -11.225222
      16A     -1.289687    17A     -1.216503    18A     -1.138511
      19A     -1.090222    20A     -1.038951    21A     -1.025494
      22A     -0.997835    23A     -0.949192    24A     -0.905805
      25A     -0.848897    26A     -0.846201    27A     -0.826168
      28A     -0.785302    29A     -0.727533    30A     -0.682487
      31A     -0.674100    32A     -0.664033    33A     -0.636083
      34A     -0.625423    35A     -0.617397    36A     -0.597928
      37A     -0.585714    38A     -0.578169    39A     -0.572896
      40A     -0.560517    41A     -0.542931    42A     -0.531843
      43A     -0.524273    44A     -0.522630    45A     -0.509301
      46A     -0.497832    47A     -0.468029    48A     -0.418936
      49A     -0.410220    50A     -0.373554    51A     -0.357327
      52A     -0.321537    53A     -0.288424

  @DF-RHF Final Energy:  -609.49244363888999

   => Energetics <=

    Nuclear Repulsion Energy =            917.0488654803394866
    One-Electron Energy =               -2645.8689441582459949
    Two-Electron Energy =                1119.3276350390167408
    Total Energy =                       -609.4924436388898812
  Basis Set: (AUG-CC-PVTZ AUX)
    Blend: AUG-CC-PVTZ-RI
    Molecular point group: c1

    Geometry (in Angstrom), charge = 0, multiplicity = 1:

       Center              X                  Y                   Z               Mass
    ------------   -----------------  -----------------  -----------------  -----------------
         N           -0.440377880152     1.145689648343    -0.218874543789    14.003074004430
         N            1.818568119848     1.285108648343     0.351229456211    14.003074004430
         C           -1.594718880152     0.319381648343    -0.067675543789    12.000000000000
         C            0.814378119848     0.539336648343    -0.137181543789    12.000000000000
         C           -0.565870880152     2.495792648343     0.332195456211    12.000000000000
         C            1.016421119848    -0.768928351657    -0.628848543789    12.000000000000
         C            3.360205119848    -0.544285351657    -0.069003543789    12.000000000000
         C           -1.704931880152    -0.593532351657     0.991222456211    12.000000000000
         C           -2.650100880152     0.459751648343    -0.976272543789    12.000000000000
         C            2.293408119848    -1.302036351657    -0.580288543789    12.000000000000
         C            3.051403119848     0.741223648343     0.368979456211    12.000000000000
         C           -2.857651880152    -1.367906351657     1.124840456211    12.000000000000
         C           -3.974436380152    -0.413650451657    -0.805093343789    12.000000000000
         C           -3.914077880152    -1.221823351657     0.221441456211    12.000000000000
         C            4.759416119848    -1.090478351657    -0.000238543789    12.000000000000
         H            0.189473119848    -1.335207351657    -1.046181543789     1.007825032230
         H           -0.431189880152     2.513432648343     1.421814456211     1.007825032230
         H           -1.564063880152     2.861404648343     0.084587456211     1.007825032230
         H            0.188458119848     3.142128648343    -0.116078543789     1.007825032230
         H           -0.884699880152    -0.692612351657     1.698940456211     1.007825032230
         H           -2.542582880152     1.161513648343    -1.800208543789     1.007825032230
         H            2.471411119848    -2.309289351657    -0.955581543789     1.007825032230
         H            3.835688119848     1.385477648343     0.768622456211     1.007825032230
         H           -2.938178880152    -2.076315351657     1.946210456211     1.007825032230
         H           -4.624327880152    -0.191487351657    -1.536655543789     1.007825032230
         H            5.115404119848    -1.395610351657    -0.989560543789     1.007825032230
         H            5.451338119848    -0.338216351657     0.388866456211     1.007825032230
         H            4.812731119848    -1.966603351657     0.654326456211     1.007825032230
         H           -4.813061880152    -1.823078351657     0.331937456211     1.007825032230

  Basis Set: AUG-CC-PVTZ
    Blend: AUG-CC-PVTZ
  Basis Set: (AUG-CC-PVTZ AUX)
    Blend: AUG-CC-PVTZ-JKFIT
	 Reference Energy          =    -609.4924436388899949 [Eh]
	 Singles Energy            =      -0.0000000000000000 [Eh]
	 Same-Spin Energy          =      -0.6806310575669203 [Eh]
	 Opposite-Spin Energy      =      -2.1332514677705152 [Eh]
	 Correlation Energy        =      -2.8138825253374353 [Eh]
	 Total Energy              =    -612.3063261642274711 [Eh]

	 ================> DF-SCS-MP2 Energies <==================
	-----------------------------------------------------------
	 SCS Same-Spin Scale       =       0.3333333333333333 [-]
	 SCS Opposite-Spin Scale   =       1.2000000000000000 [-]
	 SCS Same-Spin Energy      =      -0.2268770191889734 [Eh]
	 SCS Opposite-Spin Energy  =      -2.5599017613246180 [Eh]
	 SCS Correlation Energy    =      -2.7867787805135915 [Eh]
	 SCS Total Energy          =    -612.2792224194035953 [Eh]
	-----------------------------------------------------------

  Dipole Moment: [D]
     X:    -0.5045      Y:    -1.4611      Z:    -0.1875     Total:     1.5571

*** Psi4 exiting successfully. Buy a developer a beer!
