                               Psi4 1.4a3.dev225

  ==> Input File <==

--------------------------------------------------------------------------
#psi4
#
memory 32 gb

molecule  {
0 1
  N       -0.4697210     1.1445100    -0.2216410
  N        1.7892250     1.2839290     0.3484630
  C       -1.6240620     0.3182020    -0.0704420
  C        0.7850350     0.5381570    -0.1399480
  C       -0.5952140     2.4946130     0.3294290
  C        0.9870780    -0.7701080    -0.6316150
  C        3.3308620    -0.5454650    -0.0717700
  C       -1.7342750    -0.5947120     0.9884560
  C       -2.6794440     0.4585720    -0.9790390
  C        2.2640650    -1.3032160    -0.5830550
  C        3.0220600     0.7400440     0.3662130
  C       -2.8869950    -1.3690860     1.1220740
  C       -3.6717865    -0.1958799    -0.8507722
  C       -3.9434210    -1.2230030     0.2186750
  C        4.7300730    -1.0916580    -0.0030050
  H        0.1601300    -1.3363870    -1.0489480
  H       -0.4605330     2.5122530     1.4190480
  H       -1.5934070     2.8602250     0.0818210
  H        0.1591150     3.1409490    -0.1188450
  H       -0.9140430    -0.6937920     1.6961740
  H       -2.5719260     1.1603340    -1.8029750
  H        2.4420680    -2.3104690    -0.9583480
  H        3.8063450     1.3842980     0.7658560
  H       -2.9675220    -2.0774950     1.9434440
  H       -4.6536710    -0.1926670    -1.5394220
  H        5.0860610    -1.3967900    -0.9923270
  H        5.4219950    -0.3393960     0.3861000
  H        4.7833880    -1.9677830     0.6515600
  H       -4.8424050    -1.8242580     0.3291710
units angstrom
no_reorient  #important for SAPT in psi4, default
symmetry c1  #important for SAPT in psi4, default
}

set PROPERTIES_ORIGIN ["COM"]
properties('MP2/aug-cc-pvtz', properties = ['dipole'])
--------------------------------------------------------------------------

    Molecular point group: c1
  Charge       = 0
  Multiplicity = 1
  Basis Set: AUG-CC-PVTZ
    Blend: AUG-CC-PVTZ
  Basis Set: (AUG-CC-PVTZ AUX)
    Blend: AUG-CC-PVTZ-JKFIT

    Orbital Energies [Eh]
    ---------------------

    Doubly Occupied:

       1A    -15.573725     2A    -15.549205     3A    -11.308959
       4A    -11.277154     5A    -11.265600     6A    -11.250305
       7A    -11.246546     8A    -11.246315     9A    -11.240780
      10A    -11.235645    11A    -11.234926    12A    -11.230482
      13A    -11.229160    14A    -11.225265    15A    -11.211180
      16A     -1.290980    17A     -1.219564    18A     -1.157701
      19A     -1.090055    20A     -1.048526    21A     -1.036250
      22A     -0.995866    23A     -0.949775    24A     -0.908152
      25A     -0.847351    26A     -0.846483    27A     -0.813299
      28A     -0.788732    29A     -0.723234    30A     -0.687958
      31A     -0.675021    32A     -0.655348    33A     -0.635808
      34A     -0.621732    35A     -0.605339    36A     -0.598822
      37A     -0.588915    38A     -0.578886    39A     -0.575867
      40A     -0.561240    41A     -0.544055    42A     -0.538635
      43A     -0.526431    44A     -0.523775    45A     -0.514079
      46A     -0.505995    47A     -0.457307    48A     -0.416098
      49A     -0.410271    50A     -0.376454    51A     -0.369213
      52A     -0.329962    53A     -0.283320

  @DF-RHF Final Energy:  -609.47084103234442

   => Energetics <=

    Nuclear Repulsion Energy =            922.7472226530622947
    One-Electron Energy =               -2657.1926365806466492
    Two-Electron Energy =                1124.9745728952400441
    Total Energy =                       -609.4708410323444241
  Basis Set: (AUG-CC-PVTZ AUX)
    Blend: AUG-CC-PVTZ-RI
    Molecular point group: c1

    Geometry (in Angstrom), charge = 0, multiplicity = 1:

       Center              X                  Y                   Z               Mass
    ------------   -----------------  -----------------  -----------------  -----------------
         N           -0.460486917603     1.132427688688    -0.216275311098    14.003074004430
         N            1.798459082397     1.271846688688     0.353828688902    14.003074004430
         C           -1.614827917603     0.306119688688    -0.065076311098    12.000000000000
         C            0.794269082397     0.526074688688    -0.134582311098    12.000000000000
         C           -0.585979917603     2.482530688688     0.334794688902    12.000000000000
         C            0.996312082397    -0.782190311312    -0.626249311098    12.000000000000
         C            3.340096082397    -0.557547311312    -0.066404311098    12.000000000000
         C           -1.725040917603    -0.606794311312     0.993821688902    12.000000000000
         C           -2.670209917603     0.446489688688    -0.973673311098    12.000000000000
         C            2.273299082397    -1.315298311312    -0.577689311098    12.000000000000
         C            3.031294082397     0.727961688688     0.371578688902    12.000000000000
         C           -2.877760917603    -1.381168311312     1.127439688902    12.000000000000
         C           -3.662552417603    -0.207962211312    -0.845406511098    12.000000000000
         C           -3.934186917603    -1.235085311312     0.224040688902    12.000000000000
         C            4.739307082397    -1.103740311312     0.002360688902    12.000000000000
         H            0.169364082397    -1.348469311312    -1.043582311098     1.007825032230
         H           -0.451298917603     2.500170688688     1.424413688902     1.007825032230
         H           -1.584172917603     2.848142688688     0.087186688902     1.007825032230
         H            0.168349082397     3.128866688688    -0.113479311098     1.007825032230
         H           -0.904808917603    -0.705874311312     1.701539688902     1.007825032230
         H           -2.562691917603     1.148251688688    -1.797609311098     1.007825032230
         H            2.451302082397    -2.322551311312    -0.952982311098     1.007825032230
         H            3.815579082397     1.372215688688     0.771221688902     1.007825032230
         H           -2.958287917603    -2.089577311312     1.948809688902     1.007825032230
         H           -4.644436917603    -0.204749311312    -1.534056311098     1.007825032230
         H            5.095295082397    -1.408872311312    -0.986961311098     1.007825032230
         H            5.431229082397    -0.351478311312     0.391465688902     1.007825032230
         H            4.792622082397    -1.979865311312     0.656925688902     1.007825032230
         H           -4.833170917603    -1.836340311312     0.334536688902     1.007825032230

  Basis Set: AUG-CC-PVTZ
    Blend: AUG-CC-PVTZ
  Basis Set: (AUG-CC-PVTZ AUX)
    Blend: AUG-CC-PVTZ-JKFIT
	 Reference Energy          =    -609.4708410323444241 [Eh]
	 Singles Energy            =      -0.0000000000000000 [Eh]
	 Same-Spin Energy          =      -0.6808331951177298 [Eh]
	 Opposite-Spin Energy      =      -2.1325234608237307 [Eh]
	 Correlation Energy        =      -2.8133566559414604 [Eh]
	 Total Energy              =    -612.2841976882858717 [Eh]

	 ================> DF-SCS-MP2 Energies <==================
	-----------------------------------------------------------
	 SCS Same-Spin Scale       =       0.3333333333333333 [-]
	 SCS Opposite-Spin Scale   =       1.2000000000000000 [-]
	 SCS Same-Spin Energy      =      -0.2269443983725766 [Eh]
	 SCS Opposite-Spin Energy  =      -2.5590281529884766 [Eh]
	 SCS Correlation Energy    =      -2.7859725513610534 [Eh]
	 SCS Total Energy          =    -612.2568135837054797 [Eh]
	-----------------------------------------------------------

  Dipole Moment: [D]
     X:    -0.4333      Y:    -1.4740      Z:    -0.1035     Total:     1.5399

*** Psi4 exiting successfully. Buy a developer a beer!
