                               Psi4 1.4a3.dev225

  ==> Input File <==

--------------------------------------------------------------------------
#psi4
#
memory 32 gb

molecule  {
0 1
  N       -0.4697210     1.1445100    -0.2216410
  N        1.7892250     1.2839290     0.3484630
  C       -1.6240620     0.3182020    -0.0704420
  C        0.7850350     0.5381570    -0.1399480
  C       -0.5952140     2.4946130     0.3294290
  C        0.9870780    -0.7701080    -0.6316150
  C        3.3308620    -0.5454650    -0.0717700
  C       -1.7342750    -0.5947120     0.9884560
  C       -2.6794440     0.4585720    -0.9790390
  C        2.2640650    -1.3032160    -0.5830550
  C        3.0220600     0.7400440     0.3662130
  C       -2.8869950    -1.3690860     1.1220740
  C       -3.8377830    -0.3053550    -0.8293160
  C       -3.9434210    -1.2230030     0.2186750
  C        4.7300730    -1.0916580    -0.0030050
  H        0.1982146    -1.3103073    -1.0297280
  H       -0.4605330     2.5122530     1.4190480
  H       -1.5934070     2.8602250     0.0818210
  H        0.1591150     3.1409490    -0.1188450
  H       -0.9140430    -0.6937920     1.6961740
  H       -2.5719260     1.1603340    -1.8029750
  H        2.4420680    -2.3104690    -0.9583480
  H        3.8063450     1.3842980     0.7658560
  H       -2.9675220    -2.0774950     1.9434440
  H       -4.6536710    -0.1926670    -1.5394220
  H        5.0860610    -1.3967900    -0.9923270
  H        5.4219950    -0.3393960     0.3861000
  H        4.7833880    -1.9677830     0.6515600
  H       -4.8424050    -1.8242580     0.3291710
units angstrom
no_reorient  #important for SAPT in psi4, default
symmetry c1  #important for SAPT in psi4, default
}

set PROPERTIES_ORIGIN ["COM"]
properties('MP2/aug-cc-pvtz', properties = ['dipole'])
--------------------------------------------------------------------------

    Molecular point group: c1
  Charge       = 0
  Multiplicity = 1
  Basis Set: AUG-CC-PVTZ
    Blend: AUG-CC-PVTZ
  Basis Set: (AUG-CC-PVTZ AUX)
    Blend: AUG-CC-PVTZ-JKFIT

    Orbital Energies [Eh]
    ---------------------

    Doubly Occupied:

       1A    -15.572840     2A    -15.548651     3A    -11.308195
       4A    -11.275478     5A    -11.265447     6A    -11.249943
       7A    -11.245183     8A    -11.242138     9A    -11.241904
      10A    -11.238205    11A    -11.237856    12A    -11.236965
      13A    -11.230112    14A    -11.225020    15A    -11.223239
      16A     -1.290128    17A     -1.217265    18A     -1.142340
      19A     -1.090174    20A     -1.039329    21A     -1.018814
      22A     -1.008949    23A     -0.949254    24A     -0.907471
      25A     -0.849787    26A     -0.839460    27A     -0.829321
      28A     -0.786004    29A     -0.725021    30A     -0.685747
      31A     -0.674315    32A     -0.648315    33A     -0.642658
      34A     -0.627789    35A     -0.609820    36A     -0.593912
      37A     -0.588052    38A     -0.583798    39A     -0.576566
      40A     -0.561657    41A     -0.543345    42A     -0.534174
      43A     -0.523203    44A     -0.515384    45A     -0.508035
      46A     -0.500120    47A     -0.499394    48A     -0.418003
      49A     -0.410443    50A     -0.373449    51A     -0.343019
      52A     -0.339054    53A     -0.286451

  @DF-RHF Final Energy:  -609.53307784215485

   => Energetics <=

    Nuclear Repulsion Energy =            919.8467903601385842
    One-Electron Energy =               -2651.5173436597610817
    Two-Electron Energy =                1122.1374754574676444
    Total Energy =                       -609.5330778421548530
  Basis Set: (AUG-CC-PVTZ AUX)
    Blend: AUG-CC-PVTZ-RI
    Molecular point group: c1

    Geometry (in Angstrom), charge = 0, multiplicity = 1:

       Center              X                  Y                   Z               Mass
    ------------   -----------------  -----------------  -----------------  -----------------
         N           -0.450626137251     1.138925999703    -0.217672700600    14.003074004430
         N            1.808319862749     1.278344999703     0.352431299400    14.003074004430
         C           -1.604967137251     0.312617999703    -0.066473700600    12.000000000000
         C            0.804129862749     0.532572999703    -0.135979700600    12.000000000000
         C           -0.576119137251     2.489028999703     0.333397299400    12.000000000000
         C            1.006172862749    -0.775692000297    -0.627646700600    12.000000000000
         C            3.349956862749    -0.551049000297    -0.067801700600    12.000000000000
         C           -1.715180137251    -0.600296000297     0.992424299400    12.000000000000
         C           -2.660349137251     0.452987999703    -0.975070700600    12.000000000000
         C            2.283159862749    -1.308800000297    -0.579086700600    12.000000000000
         C            3.041154862749     0.734459999703     0.370181299400    12.000000000000
         C           -2.867900137251    -1.374670000297     1.126042299400    12.000000000000
         C           -3.818688137251    -0.310939000297    -0.825347700600    12.000000000000
         C           -3.924326137251    -1.228587000297     0.222643299400    12.000000000000
         C            4.749167862749    -1.097242000297     0.000963299400    12.000000000000
         H            0.217309462749    -1.315891300297    -1.025759700600     1.007825032230
         H           -0.441438137251     2.506668999703     1.423016299400     1.007825032230
         H           -1.574312137251     2.854640999703     0.085789299400     1.007825032230
         H            0.178209862749     3.135364999703    -0.114876700600     1.007825032230
         H           -0.894948137251    -0.699376000297     1.700142299400     1.007825032230
         H           -2.552831137251     1.154749999703    -1.799006700600     1.007825032230
         H            2.461162862749    -2.316053000297    -0.954379700600     1.007825032230
         H            3.825439862749     1.378713999703     0.769824299400     1.007825032230
         H           -2.948427137251    -2.083079000297     1.947412299400     1.007825032230
         H           -4.634576137251    -0.198251000297    -1.535453700600     1.007825032230
         H            5.105155862749    -1.402374000297    -0.988358700600     1.007825032230
         H            5.441089862749    -0.344980000297     0.390068299400     1.007825032230
         H            4.802482862749    -1.973367000297     0.655528299400     1.007825032230
         H           -4.823310137251    -1.829842000297     0.333139299400     1.007825032230

  Basis Set: AUG-CC-PVTZ
    Blend: AUG-CC-PVTZ
  Basis Set: (AUG-CC-PVTZ AUX)
    Blend: AUG-CC-PVTZ-JKFIT
	 Reference Energy          =    -609.5330778421548530 [Eh]
	 Singles Energy            =      -0.0000000000000000 [Eh]
	 Same-Spin Energy          =      -0.6809510443644936 [Eh]
	 Opposite-Spin Energy      =      -2.1303111139488453 [Eh]
	 Correlation Energy        =      -2.8112621583133390 [Eh]
	 Total Energy              =    -612.3443400004681507 [Eh]

	 ================> DF-SCS-MP2 Energies <==================
	-----------------------------------------------------------
	 SCS Same-Spin Scale       =       0.3333333333333333 [-]
	 SCS Opposite-Spin Scale   =       1.2000000000000000 [-]
	 SCS Same-Spin Energy      =      -0.2269836814548312 [Eh]
	 SCS Opposite-Spin Energy  =      -2.5563733367386141 [Eh]
	 SCS Correlation Energy    =      -2.7833570181934455 [Eh]
	 SCS Total Energy          =    -612.3164348603482949 [Eh]
	-----------------------------------------------------------

  Dipole Moment: [D]
     X:    -0.5036      Y:    -1.4665      Z:    -0.1696     Total:     1.5598

*** Psi4 exiting successfully. Buy a developer a beer!
