                               Psi4 1.4a3.dev225

  ==> Input File <==

--------------------------------------------------------------------------
#psi4
#
memory 32 gb

molecule  {
0 1
  N       -0.4697210     1.1445100    -0.2216410
  N        1.7892250     1.2839290     0.3484630
  C       -1.6240620     0.3182020    -0.0704420
  C        0.7850350     0.5381570    -0.1399480
  C       -0.5952140     2.4946130     0.3294290
  C        0.9799242    -0.7237856    -0.6142063
  C        3.3308620    -0.5454650    -0.0717700
  C       -1.7342750    -0.5947120     0.9884560
  C       -2.6794440     0.4585720    -0.9790390
  C        2.2640650    -1.3032160    -0.5830550
  C        3.0220600     0.7400440     0.3662130
  C       -2.8869950    -1.3690860     1.1220740
  C       -3.8377830    -0.3053550    -0.8293160
  C       -3.9434210    -1.2230030     0.2186750
  C        4.7300730    -1.0916580    -0.0030050
  H        0.1601300    -1.3363870    -1.0489480
  H       -0.4605330     2.5122530     1.4190480
  H       -1.5934070     2.8602250     0.0818210
  H        0.1591150     3.1409490    -0.1188450
  H       -0.9140430    -0.6937920     1.6961740
  H       -2.5719260     1.1603340    -1.8029750
  H        2.4420680    -2.3104690    -0.9583480
  H        3.8063450     1.3842980     0.7658560
  H       -2.9675220    -2.0774950     1.9434440
  H       -4.6536710    -0.1926670    -1.5394220
  H        5.0860610    -1.3967900    -0.9923270
  H        5.4219950    -0.3393960     0.3861000
  H        4.7833880    -1.9677830     0.6515600
  H       -4.8424050    -1.8242580     0.3291710
units angstrom
no_reorient  #important for SAPT in psi4, default
symmetry c1  #important for SAPT in psi4, default
}

set PROPERTIES_ORIGIN ["COM"]
properties('MP2/aug-cc-pvtz', properties = ['dipole'])
--------------------------------------------------------------------------

    Molecular point group: c1
  Charge       = 0
  Multiplicity = 1
  Basis Set: AUG-CC-PVTZ
    Blend: AUG-CC-PVTZ
  Basis Set: (AUG-CC-PVTZ AUX)
    Blend: AUG-CC-PVTZ-JKFIT

    Orbital Energies [Eh]
    ---------------------

    Doubly Occupied:

       1A    -15.569736     2A    -15.550305     3A    -11.301460
       4A    -11.274031     5A    -11.267361     6A    -11.254171
       7A    -11.243992     8A    -11.241004     9A    -11.240765
      10A    -11.236947    11A    -11.236451    12A    -11.235531
      13A    -11.232362    14A    -11.227325    15A    -11.226298
      16A     -1.291051    17A     -1.217752    18A     -1.141177
      19A     -1.088947    20A     -1.041313    21A     -1.017586
      22A     -1.007736    23A     -0.949729    24A     -0.907331
      25A     -0.851131    26A     -0.837678    27A     -0.828301
      28A     -0.785502    29A     -0.724481    30A     -0.684746
      31A     -0.676082    32A     -0.647392    33A     -0.635656
      34A     -0.617570    35A     -0.610914    36A     -0.593663
      37A     -0.588530    38A     -0.583717    39A     -0.577396
      40A     -0.561595    41A     -0.544898    42A     -0.535324
      43A     -0.525601    44A     -0.512176    45A     -0.505255
      46A     -0.498869    47A     -0.495945    48A     -0.418174
      49A     -0.412198    50A     -0.370115    51A     -0.342216
      52A     -0.338522    53A     -0.288946

  @DF-RHF Final Energy:  -609.53013674148178

   => Energetics <=

    Nuclear Repulsion Energy =            920.4048037313888244
    One-Electron Energy =               -2652.6839735215144174
    Two-Electron Energy =                1122.7490330486439234
    Total Energy =                       -609.5301367414817832
  Basis Set: (AUG-CC-PVTZ AUX)
    Blend: AUG-CC-PVTZ-RI
    Molecular point group: c1

    Geometry (in Angstrom), charge = 0, multiplicity = 1:

       Center              X                  Y                   Z               Mass
    ------------   -----------------  -----------------  -----------------  -----------------
         N           -0.449999088440     1.136252889850    -0.218629384014    14.003074004430
         N            1.808946911560     1.275671889850     0.351474615986    14.003074004430
         C           -1.604340088440     0.309944889850    -0.067430384014    12.000000000000
         C            0.804756911560     0.529899889850    -0.136936384014    12.000000000000
         C           -0.575492088440     2.486355889850     0.332440615986    12.000000000000
         C            0.999646111560    -0.732042710150    -0.611194684014    12.000000000000
         C            3.350583911560    -0.553722110150    -0.068758384014    12.000000000000
         C           -1.714553088440    -0.602969110150     0.991467615986    12.000000000000
         C           -2.659722088440     0.450314889850    -0.976027384014    12.000000000000
         C            2.283786911560    -1.311473110150    -0.580043384014    12.000000000000
         C            3.041781911560     0.731786889850     0.369224615986    12.000000000000
         C           -2.867273088440    -1.377343110150     1.125085615986    12.000000000000
         C           -3.818061088440    -0.313612110150    -0.826304384014    12.000000000000
         C           -3.923699088440    -1.231260110150     0.221686615986    12.000000000000
         C            4.749794911560    -1.099915110150     0.000006615986    12.000000000000
         H            0.179851911560    -1.344644110150    -1.045936384014     1.007825032230
         H           -0.440811088440     2.503995889850     1.422059615986     1.007825032230
         H           -1.573685088440     2.851967889850     0.084832615986     1.007825032230
         H            0.178836911560     3.132691889850    -0.115833384014     1.007825032230
         H           -0.894321088440    -0.702049110150     1.699185615986     1.007825032230
         H           -2.552204088440     1.152076889850    -1.799963384014     1.007825032230
         H            2.461789911560    -2.318726110150    -0.955336384014     1.007825032230
         H            3.826066911560     1.376040889850     0.768867615986     1.007825032230
         H           -2.947800088440    -2.085752110150     1.946455615986     1.007825032230
         H           -4.633949088440    -0.200924110150    -1.536410384014     1.007825032230
         H            5.105782911560    -1.405047110150    -0.989315384014     1.007825032230
         H            5.441716911560    -0.347653110150     0.389111615986     1.007825032230
         H            4.803109911560    -1.976040110150     0.654571615986     1.007825032230
         H           -4.822683088440    -1.832515110150     0.332182615986     1.007825032230

  Basis Set: AUG-CC-PVTZ
    Blend: AUG-CC-PVTZ
  Basis Set: (AUG-CC-PVTZ AUX)
    Blend: AUG-CC-PVTZ-JKFIT
	 Reference Energy          =    -609.5301367414817832 [Eh]
	 Singles Energy            =      -0.0000000000000000 [Eh]
	 Same-Spin Energy          =      -0.6815631845852032 [Eh]
	 Opposite-Spin Energy      =      -2.1310965628792222 [Eh]
	 Correlation Energy        =      -2.8126597474644255 [Eh]
	 Total Energy              =    -612.3427964889461919 [Eh]

	 ================> DF-SCS-MP2 Energies <==================
	-----------------------------------------------------------
	 SCS Same-Spin Scale       =       0.3333333333333333 [-]
	 SCS Opposite-Spin Scale   =       1.2000000000000000 [-]
	 SCS Same-Spin Energy      =      -0.2271877281950677 [Eh]
	 SCS Opposite-Spin Energy  =      -2.5573158754550667 [Eh]
	 SCS Correlation Energy    =      -2.7845036036501343 [Eh]
	 SCS Total Energy          =    -612.3146403451319202 [Eh]
	-----------------------------------------------------------

  Dipole Moment: [D]
     X:    -0.3341      Y:    -1.5037      Z:    -0.1680     Total:     1.5495

*** Psi4 exiting successfully. Buy a developer a beer!
