                               Psi4 1.4a3.dev225

  ==> Input File <==

--------------------------------------------------------------------------
#psi4
#
memory 32 gb

molecule  {
0 1
  N       -0.4697210     1.1445100    -0.2216410
  N        1.7892250     1.2839290     0.3484630
  C       -1.6240620     0.3182020    -0.0704420
  C        0.7850350     0.5381570    -0.1399480
  C       -0.5952140     2.4946130     0.3294290
  C        0.9870780    -0.7701080    -0.6316150
  C        3.3308620    -0.5454650    -0.0717700
  C       -1.7342750    -0.5947120     0.9884560
  C       -2.6794440     0.4585720    -0.9790390
  C        2.2640650    -1.3032160    -0.5830550
  C        3.0220600     0.7400440     0.3662130
  C       -2.8745288    -1.3519923     1.1099309
  C       -3.8377830    -0.3053550    -0.8293160
  C       -3.9434210    -1.2230030     0.2186750
  C        4.7300730    -1.0916580    -0.0030050
  H        0.1601300    -1.3363870    -1.0489480
  H       -0.4605330     2.5122530     1.4190480
  H       -1.5934070     2.8602250     0.0818210
  H        0.1591150     3.1409490    -0.1188450
  H       -0.9140430    -0.6937920     1.6961740
  H       -2.5719260     1.1603340    -1.8029750
  H        2.4420680    -2.3104690    -0.9583480
  H        3.8063450     1.3842980     0.7658560
  H       -2.9675220    -2.0774950     1.9434440
  H       -4.6536710    -0.1926670    -1.5394220
  H        5.0860610    -1.3967900    -0.9923270
  H        5.4219950    -0.3393960     0.3861000
  H        4.7833880    -1.9677830     0.6515600
  H       -4.8424050    -1.8242580     0.3291710
units angstrom
no_reorient  #important for SAPT in psi4, default
symmetry c1  #important for SAPT in psi4, default
}

set PROPERTIES_ORIGIN ["COM"]
properties('MP2/aug-cc-pvtz', properties = ['dipole'])
--------------------------------------------------------------------------

    Molecular point group: c1
  Charge       = 0
  Multiplicity = 1
  Basis Set: AUG-CC-PVTZ
    Blend: AUG-CC-PVTZ
  Basis Set: (AUG-CC-PVTZ AUX)
    Blend: AUG-CC-PVTZ-JKFIT

    Orbital Energies [Eh]
    ---------------------

    Doubly Occupied:

       1A    -15.572823     2A    -15.549110     3A    -11.308694
       4A    -11.275513     5A    -11.265690     6A    -11.250386
       7A    -11.245244     8A    -11.241797     9A    -11.241343
      10A    -11.237748    11A    -11.236261    12A    -11.235403
      13A    -11.230490    14A    -11.229036    15A    -11.225247
      16A     -1.290289    17A     -1.217647    18A     -1.144238
      19A     -1.090050    20A     -1.038074    21A     -1.020837
      22A     -1.008416    23A     -0.949467    24A     -0.907921
      25A     -0.847093    26A     -0.839318    27A     -0.828003
      28A     -0.785682    29A     -0.724342    30A     -0.686300
      31A     -0.674522    32A     -0.648995    33A     -0.637407
      34A     -0.622103    35A     -0.608813    36A     -0.592574
      37A     -0.587559    38A     -0.584895    39A     -0.576829
      40A     -0.562058    41A     -0.543441    42A     -0.534614
      43A     -0.523481    44A     -0.515983    45A     -0.507843
      46A     -0.500275    47A     -0.497046    48A     -0.418006
      49A     -0.410399    50A     -0.373783    51A     -0.344522
      52A     -0.338862    53A     -0.286531

  @DF-RHF Final Energy:  -609.53309373017680

   => Energetics <=

    Nuclear Repulsion Energy =            920.1045187177522848
    One-Electron Energy =               -2652.0492176540265064
    Two-Electron Energy =                1122.4116052060974198
    Total Energy =                       -609.5330937301766880
  Basis Set: (AUG-CC-PVTZ AUX)
    Blend: AUG-CC-PVTZ-RI
    Molecular point group: c1

    Geometry (in Angstrom), charge = 0, multiplicity = 1:

       Center              X                  Y                   Z               Mass
    ------------   -----------------  -----------------  -----------------  -----------------
         N           -0.451187484926     1.138023291705    -0.216839411777    14.003074004430
         N            1.807758515074     1.277442291705     0.353264588223    14.003074004430
         C           -1.605528484926     0.311715291705    -0.065640411777    12.000000000000
         C            0.803568515074     0.531670291705    -0.135146411777    12.000000000000
         C           -0.576680484926     2.488126291705     0.334230588223    12.000000000000
         C            1.005611515074    -0.776594708295    -0.626813411777    12.000000000000
         C            3.349395515074    -0.551951708295    -0.066968411777    12.000000000000
         C           -1.715741484926    -0.601198708295     0.993257588223    12.000000000000
         C           -2.660910484926     0.452085291705    -0.974237411777    12.000000000000
         C            2.282598515074    -1.309702708295    -0.578253411777    12.000000000000
         C            3.040593515074     0.733557291705     0.371014588223    12.000000000000
         C           -2.855995284926    -1.358479008295     1.114732488223    12.000000000000
         C           -3.819249484926    -0.311841708295    -0.824514411777    12.000000000000
         C           -3.924887484926    -1.229489708295     0.223476588223    12.000000000000
         C            4.748606515074    -1.098144708295     0.001796588223    12.000000000000
         H            0.178663515074    -1.342873708295    -1.044146411777     1.007825032230
         H           -0.441999484926     2.505766291705     1.423849588223     1.007825032230
         H           -1.574873484926     2.853738291705     0.086622588223     1.007825032230
         H            0.177648515074     3.134462291705    -0.114043411777     1.007825032230
         H           -0.895509484926    -0.700278708295     1.700975588223     1.007825032230
         H           -2.553392484926     1.153847291705    -1.798173411777     1.007825032230
         H            2.460601515074    -2.316955708295    -0.953546411777     1.007825032230
         H            3.824878515074     1.377811291705     0.770657588223     1.007825032230
         H           -2.948988484926    -2.083981708295     1.948245588223     1.007825032230
         H           -4.635137484926    -0.199153708295    -1.534620411777     1.007825032230
         H            5.104594515074    -1.403276708295    -0.987525411777     1.007825032230
         H            5.440528515074    -0.345882708295     0.390901588223     1.007825032230
         H            4.801921515074    -1.974269708295     0.656361588223     1.007825032230
         H           -4.823871484926    -1.830744708295     0.333972588223     1.007825032230

  Basis Set: AUG-CC-PVTZ
    Blend: AUG-CC-PVTZ
  Basis Set: (AUG-CC-PVTZ AUX)
    Blend: AUG-CC-PVTZ-JKFIT
	 Reference Energy          =    -609.5330937301768017 [Eh]
	 Singles Energy            =      -0.0000000000000000 [Eh]
	 Same-Spin Energy          =      -0.6811647174877654 [Eh]
	 Opposite-Spin Energy      =      -2.1306839179312242 [Eh]
	 Correlation Energy        =      -2.8118486354189898 [Eh]
	 Total Energy              =    -612.3449423655957844 [Eh]

	 ================> DF-SCS-MP2 Energies <==================
	-----------------------------------------------------------
	 SCS Same-Spin Scale       =       0.3333333333333333 [-]
	 SCS Opposite-Spin Scale   =       1.2000000000000000 [-]
	 SCS Same-Spin Energy      =      -0.2270549058292551 [Eh]
	 SCS Opposite-Spin Energy  =      -2.5568207015174691 [Eh]
	 SCS Correlation Energy    =      -2.7838756073467241 [Eh]
	 SCS Total Energy          =    -612.3169693375235738 [Eh]
	-----------------------------------------------------------

  Dipole Moment: [D]
     X:    -0.4907      Y:    -1.4545      Z:    -0.1766     Total:     1.5452

*** Psi4 exiting successfully. Buy a developer a beer!
