                               Psi4 1.4a3.dev225

  ==> Input File <==

--------------------------------------------------------------------------
#psi4
#
memory 32 gb

molecule  {
0 1
  N       -0.4697210     1.1445100    -0.2216410
  N        1.7892250     1.2839290     0.3484630
  C       -1.6240620     0.3182020    -0.0704420
  C        0.7999916     0.5492647    -0.1326735
  C       -0.5952140     2.4946130     0.3294290
  C        0.9870780    -0.7701080    -0.6316150
  C        3.3308620    -0.5454650    -0.0717700
  C       -1.7342750    -0.5947120     0.9884560
  C       -2.6794440     0.4585720    -0.9790390
  C        2.2640650    -1.3032160    -0.5830550
  C        3.0220600     0.7400440     0.3662130
  C       -2.8869950    -1.3690860     1.1220740
  C       -3.8377830    -0.3053550    -0.8293160
  C       -3.9434210    -1.2230030     0.2186750
  C        4.7300730    -1.0916580    -0.0030050
  H        0.1601300    -1.3363870    -1.0489480
  H       -0.4605330     2.5122530     1.4190480
  H       -1.5934070     2.8602250     0.0818210
  H        0.1591150     3.1409490    -0.1188450
  H       -0.9140430    -0.6937920     1.6961740
  H       -2.5719260     1.1603340    -1.8029750
  H        2.4420680    -2.3104690    -0.9583480
  H        3.8063450     1.3842980     0.7658560
  H       -2.9675220    -2.0774950     1.9434440
  H       -4.6536710    -0.1926670    -1.5394220
  H        5.0860610    -1.3967900    -0.9923270
  H        5.4219950    -0.3393960     0.3861000
  H        4.7833880    -1.9677830     0.6515600
  H       -4.8424050    -1.8242580     0.3291710
units angstrom
no_reorient  #important for SAPT in psi4, default
symmetry c1  #important for SAPT in psi4, default
}

set PROPERTIES_ORIGIN ["COM"]
properties('MP2/aug-cc-pvtz', properties = ['dipole'])
--------------------------------------------------------------------------

    Molecular point group: c1
  Charge       = 0
  Multiplicity = 1
  Basis Set: AUG-CC-PVTZ
    Blend: AUG-CC-PVTZ
  Basis Set: (AUG-CC-PVTZ AUX)
    Blend: AUG-CC-PVTZ-JKFIT

    Orbital Energies [Eh]
    ---------------------

    Doubly Occupied:

       1A    -15.571599     2A    -15.548529     3A    -11.308554
       4A    -11.275149     5A    -11.265826     6A    -11.250183
       7A    -11.244220     8A    -11.241774     9A    -11.241566
      10A    -11.237773    11A    -11.237329    12A    -11.236502
      13A    -11.231291    14A    -11.230663    15A    -11.225641
      16A     -1.290904    17A     -1.219728    18A     -1.141752
      19A     -1.091817    20A     -1.036814    21A     -1.018366
      22A     -1.008361    23A     -0.948766    24A     -0.907899
      25A     -0.847109    26A     -0.838808    27A     -0.828787
      28A     -0.785839    29A     -0.724195    30A     -0.685147
      31A     -0.675085    32A     -0.647731    33A     -0.639310
      34A     -0.622911    35A     -0.609359    36A     -0.593609
      37A     -0.586766    38A     -0.583609    39A     -0.576947
      40A     -0.561897    41A     -0.543985    42A     -0.533022
      43A     -0.525059    44A     -0.514748    45A     -0.507893
      46A     -0.499778    47A     -0.498658    48A     -0.417631
      49A     -0.410348    50A     -0.374937    51A     -0.342633
      52A     -0.338481    53A     -0.287303

  @DF-RHF Final Energy:  -609.53408253966950

   => Energetics <=

    Nuclear Repulsion Energy =            919.5902616467817552
    One-Electron Energy =               -2651.0235104809935365
    Two-Electron Energy =                1121.8991662945422831
    Total Energy =                       -609.5340825396694981
  Basis Set: (AUG-CC-PVTZ AUX)
    Blend: AUG-CC-PVTZ-RI
    Molecular point group: c1

    Geometry (in Angstrom), charge = 0, multiplicity = 1:

       Center              X                  Y                   Z               Mass
    ------------   -----------------  -----------------  -----------------  -----------------
         N           -0.451338330116     1.138385867718    -0.218015548761    14.003074004430
         N            1.807607669884     1.277804867718     0.352088451239    14.003074004430
         C           -1.605679330116     0.312077867718    -0.066816548761    12.000000000000
         C            0.818374269884     0.543140567718    -0.129048048761    12.000000000000
         C           -0.576831330116     2.488488867718     0.333054451239    12.000000000000
         C            1.005460669884    -0.776232132282    -0.627989548761    12.000000000000
         C            3.349244669884    -0.551589132282    -0.068144548761    12.000000000000
         C           -1.715892330116    -0.600836132282     0.992081451239    12.000000000000
         C           -2.661061330116     0.452447867718    -0.975413548761    12.000000000000
         C            2.282447669884    -1.309340132282    -0.579429548761    12.000000000000
         C            3.040442669884     0.733919867718     0.369838451239    12.000000000000
         C           -2.868612330116    -1.375210132282     1.125699451239    12.000000000000
         C           -3.819400330116    -0.311479132282    -0.825690548761    12.000000000000
         C           -3.925038330116    -1.229127132282     0.222300451239    12.000000000000
         C            4.748455669884    -1.097782132282     0.000620451239    12.000000000000
         H            0.178512669884    -1.342511132282    -1.045322548761     1.007825032230
         H           -0.442150330116     2.506128867718     1.422673451239     1.007825032230
         H           -1.575024330116     2.854100867718     0.085446451239     1.007825032230
         H            0.177497669884     3.134824867718    -0.115219548761     1.007825032230
         H           -0.895660330116    -0.699916132282     1.699799451239     1.007825032230
         H           -2.553543330116     1.154209867718    -1.799349548761     1.007825032230
         H            2.460450669884    -2.316593132282    -0.954722548761     1.007825032230
         H            3.824727669884     1.378173867718     0.769481451239     1.007825032230
         H           -2.949139330116    -2.083619132282     1.947069451239     1.007825032230
         H           -4.635288330116    -0.198791132282    -1.535796548761     1.007825032230
         H            5.104443669884    -1.402914132282    -0.988701548761     1.007825032230
         H            5.440377669884    -0.345520132282     0.389725451239     1.007825032230
         H            4.801770669884    -1.973907132282     0.655185451239     1.007825032230
         H           -4.824022330116    -1.830382132282     0.332796451239     1.007825032230

  Basis Set: AUG-CC-PVTZ
    Blend: AUG-CC-PVTZ
  Basis Set: (AUG-CC-PVTZ AUX)
    Blend: AUG-CC-PVTZ-JKFIT
	 Reference Energy          =    -609.5340825396694981 [Eh]
	 Singles Energy            =      -0.0000000000000000 [Eh]
	 Same-Spin Energy          =      -0.6808104455321797 [Eh]
	 Opposite-Spin Energy      =      -2.1303218510294406 [Eh]
	 Correlation Energy        =      -2.8111322965616203 [Eh]
	 Total Energy              =    -612.3452148362310936 [Eh]

	 ================> DF-SCS-MP2 Energies <==================
	-----------------------------------------------------------
	 SCS Same-Spin Scale       =       0.3333333333333333 [-]
	 SCS Opposite-Spin Scale   =       1.2000000000000000 [-]
	 SCS Same-Spin Energy      =      -0.2269368151773932 [Eh]
	 SCS Opposite-Spin Energy  =      -2.5563862212353285 [Eh]
	 SCS Correlation Energy    =      -2.7833230364127219 [Eh]
	 SCS Total Energy          =    -612.3174055760822512 [Eh]
	-----------------------------------------------------------

  Dipole Moment: [D]
     X:    -0.4128      Y:    -1.4859      Z:    -0.1654     Total:     1.5510

*** Psi4 exiting successfully. Buy a developer a beer!
