                               Psi4 1.4a3.dev225

  ==> Input File <==

--------------------------------------------------------------------------
#psi4
#
memory 32 gb

molecule  {
0 1
  N       -0.4697210     1.1445100    -0.2216410
  N        1.7892250     1.2839290     0.3484630
  C       -1.6240620     0.3182020    -0.0704420
  C        0.7850350     0.5381570    -0.1399480
  C       -0.5952140     2.4946130     0.3294290
  C        0.9870780    -0.7701080    -0.6316150
  C        3.3308620    -0.5454650    -0.0717700
  C       -1.7342750    -0.5947120     0.9884560
  C       -2.6794440     0.4585720    -0.9790390
  C        2.2640650    -1.3032160    -0.5830550
  C        3.0220600     0.7400440     0.3662130
  C       -2.8869950    -1.3690860     1.1220740
  C       -3.8377830    -0.3053550    -0.8293160
  C       -3.9434210    -1.2230030     0.2186750
  C        4.7300730    -1.0916580    -0.0030050
  H        0.1601300    -1.3363870    -1.0489480
  H       -0.4605330     2.5122530     1.4190480
  H       -1.5934070     2.8602250     0.0818210
  H        0.1591150     3.1409490    -0.1188450
  H       -0.9140430    -0.6937920     1.6961740
  H       -2.5719260     1.1603340    -1.8029750
  H        2.4420680    -2.3104690    -0.9583480
  H        3.8063450     1.3842980     0.7658560
  H       -2.9675220    -2.0774950     1.9434440
  H       -4.6536710    -0.1926670    -1.5394220
  H        5.0698029    -1.3828545    -0.9471443
  H        5.4219950    -0.3393960     0.3861000
  H        4.7833880    -1.9677830     0.6515600
  H       -4.8424050    -1.8242580     0.3291710
units angstrom
no_reorient  #important for SAPT in psi4, default
symmetry c1  #important for SAPT in psi4, default
}

set PROPERTIES_ORIGIN ["COM"]
properties('MP2/aug-cc-pvtz', properties = ['dipole'])
--------------------------------------------------------------------------

    Molecular point group: c1
  Charge       = 0
  Multiplicity = 1
  Basis Set: AUG-CC-PVTZ
    Blend: AUG-CC-PVTZ
  Basis Set: (AUG-CC-PVTZ AUX)
    Blend: AUG-CC-PVTZ-JKFIT

    Orbital Energies [Eh]
    ---------------------

    Doubly Occupied:

       1A    -15.572670     2A    -15.548849     3A    -11.308399
       4A    -11.275279     5A    -11.265280     6A    -11.250129
       7A    -11.245080     8A    -11.241966     9A    -11.241745
      10A    -11.238027    11A    -11.237624    12A    -11.236761
      13A    -11.230027    14A    -11.228769    15A    -11.219053
      16A     -1.290020    17A     -1.217256    18A     -1.142186
      19A     -1.090281    20A     -1.038357    21A     -1.018625
      22A     -1.008923    23A     -0.951672    24A     -0.908667
      25A     -0.846952    26A     -0.839610    27A     -0.829412
      28A     -0.785720    29A     -0.724481    30A     -0.685442
      31A     -0.674298    32A     -0.648187    33A     -0.638703
      34A     -0.622588    35A     -0.609829    36A     -0.593757
      37A     -0.588016    38A     -0.584798    39A     -0.581381
      40A     -0.561550    41A     -0.545604    42A     -0.534215
      43A     -0.523906    44A     -0.514426    45A     -0.507660
      46A     -0.499963    47A     -0.498651    48A     -0.418068
      49A     -0.410304    50A     -0.373572    51A     -0.342790
      52A     -0.338899    53A     -0.286463

  @DF-RHF Final Energy:  -609.53272561940958

   => Energetics <=

    Nuclear Repulsion Energy =            919.8357500856778870
    One-Electron Energy =               -2651.5071682034431433
    Two-Electron Energy =                1122.1386924983557947
    Total Energy =                       -609.5327256194095753
  Basis Set: (AUG-CC-PVTZ AUX)
    Blend: AUG-CC-PVTZ-RI
    Molecular point group: c1

    Geometry (in Angstrom), charge = 0, multiplicity = 1:

       Center              X                  Y                   Z               Mass
    ------------   -----------------  -----------------  -----------------  -----------------
         N           -0.450349693063     1.138987777890    -0.217804774227    14.003074004430
         N            1.808596306937     1.278406777890     0.352299225773    14.003074004430
         C           -1.604690693063     0.312679777890    -0.066605774227    12.000000000000
         C            0.804406306937     0.532634777890    -0.136111774227    12.000000000000
         C           -0.575842693063     2.489090777890     0.333265225773    12.000000000000
         C            1.006449306937    -0.775630222110    -0.627778774227    12.000000000000
         C            3.350233306937    -0.550987222110    -0.067933774227    12.000000000000
         C           -1.714903693063    -0.600234222110     0.992292225773    12.000000000000
         C           -2.660072693063     0.453049777890    -0.975202774227    12.000000000000
         C            2.283436306937    -1.308738222110    -0.579218774227    12.000000000000
         C            3.041431306937     0.734521777890     0.370049225773    12.000000000000
         C           -2.867623693063    -1.374608222110     1.125910225773    12.000000000000
         C           -3.818411693063    -0.310877222110    -0.825479774227    12.000000000000
         C           -3.924049693063    -1.228525222110     0.222511225773    12.000000000000
         C            4.749444306937    -1.097180222110     0.000831225773    12.000000000000
         H            0.179501306937    -1.341909222110    -1.045111774227     1.007825032230
         H           -0.441161693063     2.506730777890     1.422884225773     1.007825032230
         H           -1.574035693063     2.854702777890     0.085657225773     1.007825032230
         H            0.178486306937     3.135426777890    -0.115008774227     1.007825032230
         H           -0.894671693063    -0.699314222110     1.700010225773     1.007825032230
         H           -2.552554693063     1.154811777890    -1.799138774227     1.007825032230
         H            2.461439306937    -2.315991222110    -0.954511774227     1.007825032230
         H            3.825716306937     1.378775777890     0.769692225773     1.007825032230
         H           -2.948150693063    -2.083017222110     1.947280225773     1.007825032230
         H           -4.634299693063    -0.198189222110    -1.535585774227     1.007825032230
         H            5.089174206937    -1.388376722110    -0.943308074227     1.007825032230
         H            5.441366306937    -0.344918222110     0.389936225773     1.007825032230
         H            4.802759306937    -1.973305222110     0.655396225773     1.007825032230
         H           -4.823033693063    -1.829780222110     0.333007225773     1.007825032230

  Basis Set: AUG-CC-PVTZ
    Blend: AUG-CC-PVTZ
  Basis Set: (AUG-CC-PVTZ AUX)
    Blend: AUG-CC-PVTZ-JKFIT
	 Reference Energy          =    -609.5327256194095753 [Eh]
	 Singles Energy            =      -0.0000000000000000 [Eh]
	 Same-Spin Energy          =      -0.6811579633449176 [Eh]
	 Opposite-Spin Energy      =      -2.1304949229192873 [Eh]
	 Correlation Energy        =      -2.8116528862642047 [Eh]
	 Total Energy              =    -612.3443785056738307 [Eh]

	 ================> DF-SCS-MP2 Energies <==================
	-----------------------------------------------------------
	 SCS Same-Spin Scale       =       0.3333333333333333 [-]
	 SCS Opposite-Spin Scale   =       1.2000000000000000 [-]
	 SCS Same-Spin Energy      =      -0.2270526544483059 [Eh]
	 SCS Opposite-Spin Energy  =      -2.5565939075031445 [Eh]
	 SCS Correlation Energy    =      -2.7836465619514503 [Eh]
	 SCS Total Energy          =    -612.3163721813609754 [Eh]
	-----------------------------------------------------------

  Dipole Moment: [D]
     X:    -0.4685      Y:    -1.4748      Z:    -0.1819     Total:     1.5581

*** Psi4 exiting successfully. Buy a developer a beer!
