                               Psi4 1.4a3.dev225

  ==> Input File <==

--------------------------------------------------------------------------
#psi4
#
memory 32 gb

molecule  {
0 1
  N       -0.4697210     1.1445100    -0.2216410
  N        1.7892250     1.2839290     0.3484630
  C       -1.6240620     0.3182020    -0.0704420
  C        0.7850350     0.5381570    -0.1399480
  C       -0.5952140     2.4946130     0.3294290
  C        0.9870780    -0.7701080    -0.6316150
  C        3.3308620    -0.5454650    -0.0717700
  C       -1.7342750    -0.5947120     0.9884560
  C       -2.6794440     0.4585720    -0.9790390
  C        2.2640650    -1.3032160    -0.5830550
  C        3.0220600     0.7400440     0.3662130
  C       -2.8869950    -1.3690860     1.1220740
  C       -3.8377830    -0.3053550    -0.8293160
  C       -3.9434210    -1.2230030     0.2186750
  C        4.7300730    -1.0916580    -0.0030050
  H        0.1601300    -1.3363870    -1.0489480
  H       -0.4605330     2.5122530     1.4190480
  H       -1.5934070     2.8602250     0.0818210
  H        0.1591150     3.1409490    -0.1188450
  H       -0.9140430    -0.6937920     1.6961740
  H       -2.5719260     1.1603340    -1.8029750
  H        2.4420680    -2.3104690    -0.9583480
  H        3.8063450     1.3842980     0.7658560
  H       -2.9675220    -2.0774950     1.9434440
  H       -4.6536710    -0.1926670    -1.5394220
  H        5.0210286    -1.3410480    -0.8115962
  H        5.4219950    -0.3393960     0.3861000
  H        4.7833880    -1.9677830     0.6515600
  H       -4.8424050    -1.8242580     0.3291710
units angstrom
no_reorient  #important for SAPT in psi4, default
symmetry c1  #important for SAPT in psi4, default
}

set PROPERTIES_ORIGIN ["COM"]
properties('MP2/aug-cc-pvtz', properties = ['dipole'])
--------------------------------------------------------------------------

    Molecular point group: c1
  Charge       = 0
  Multiplicity = 1
  Basis Set: AUG-CC-PVTZ
    Blend: AUG-CC-PVTZ
  Basis Set: (AUG-CC-PVTZ AUX)
    Blend: AUG-CC-PVTZ-JKFIT

    Orbital Energies [Eh]
    ---------------------

    Doubly Occupied:

       1A    -15.572381     2A    -15.548543     3A    -11.308023
       4A    -11.275102     5A    -11.264729     6A    -11.249930
       7A    -11.244882     8A    -11.241819     9A    -11.241601
      10A    -11.237879    11A    -11.237452    12A    -11.236601
      13A    -11.229250    14A    -11.228479    15A    -11.200473
      16A     -1.289730    17A     -1.216981    18A     -1.142053
      19A     -1.092560    20A     -1.040813    21A     -1.018581
      22A     -1.009723    23A     -0.962124    24A     -0.912414
      25A     -0.847250    26A     -0.841120    27A     -0.829998
      28A     -0.786422    29A     -0.724384    30A     -0.685735
      31A     -0.674494    32A     -0.648231    33A     -0.641987
      34A     -0.622771    35A     -0.612989    36A     -0.601216
      37A     -0.593434    38A     -0.587542    39A     -0.582774
      40A     -0.561418    41A     -0.549212    42A     -0.534119
      43A     -0.524456    44A     -0.514059    45A     -0.507274
      46A     -0.499831    47A     -0.498369    48A     -0.418163
      49A     -0.410275    50A     -0.373492    51A     -0.342715
      52A     -0.338776    53A     -0.286458

  @DF-RHF Final Energy:  -609.49991295821053

   => Energetics <=

    Nuclear Repulsion Energy =            920.6242270577456566
    One-Electron Energy =               -2652.9661096406316574
    Two-Electron Energy =                1122.8419696246755848
    Total Energy =                       -609.4999129582104160
  Basis Set: (AUG-CC-PVTZ AUX)
    Blend: AUG-CC-PVTZ-RI
    Molecular point group: c1

    Geometry (in Angstrom), charge = 0, multiplicity = 1:

       Center              X                  Y                   Z               Mass
    ------------   -----------------  -----------------  -----------------  -----------------
         N           -0.450101575620     1.138775106015    -0.218494314578    14.003074004430
         N            1.808844424380     1.278194106015     0.351609685422    14.003074004430
         C           -1.604442575620     0.312467106015    -0.067295314578    12.000000000000
         C            0.804654424380     0.532422106015    -0.136801314578    12.000000000000
         C           -0.575594575620     2.488878106015     0.332575685422    12.000000000000
         C            1.006697424380    -0.775842893985    -0.628468314578    12.000000000000
         C            3.350481424380    -0.551199893985    -0.068623314578    12.000000000000
         C           -1.714655575620    -0.600446893985     0.991602685422    12.000000000000
         C           -2.659824575620     0.452837106015    -0.975892314578    12.000000000000
         C            2.283684424380    -1.308950893985    -0.579908314578    12.000000000000
         C            3.041679424380     0.734309106015     0.369359685422    12.000000000000
         C           -2.867375575620    -1.374820893985     1.125220685422    12.000000000000
         C           -3.818163575620    -0.311089893985    -0.826169314578    12.000000000000
         C           -3.923801575620    -1.228737893985     0.221821685422    12.000000000000
         C            4.749692424380    -1.097392893985     0.000141685422    12.000000000000
         H            0.179749424380    -1.342121893985    -1.045801314578     1.007825032230
         H           -0.440913575620     2.506518106015     1.422194685422     1.007825032230
         H           -1.573787575620     2.854490106015     0.084967685422     1.007825032230
         H            0.178734424380     3.135214106015    -0.115698314578     1.007825032230
         H           -0.894423575620    -0.699526893985     1.699320685422     1.007825032230
         H           -2.552306575620     1.154599106015    -1.799828314578     1.007825032230
         H            2.461687424380    -2.316203893985    -0.955201314578     1.007825032230
         H            3.825964424380     1.378563106015     0.769002685422     1.007825032230
         H           -2.947902575620    -2.083229893985     1.946590685422     1.007825032230
         H           -4.634051575620    -0.198401893985    -1.536275314578     1.007825032230
         H            5.040648024380    -1.346782893985    -0.808449514578     1.007825032230
         H            5.441614424380    -0.345130893985     0.389246685422     1.007825032230
         H            4.803007424380    -1.973517893985     0.654706685422     1.007825032230
         H           -4.822785575620    -1.829992893985     0.332317685422     1.007825032230

  Basis Set: AUG-CC-PVTZ
    Blend: AUG-CC-PVTZ
  Basis Set: (AUG-CC-PVTZ AUX)
    Blend: AUG-CC-PVTZ-JKFIT
	 Reference Energy          =    -609.4999129582105297 [Eh]
	 Singles Energy            =      -0.0000000000000000 [Eh]
	 Same-Spin Energy          =      -0.6812895973536623 [Eh]
	 Opposite-Spin Energy      =      -2.1301659295485718 [Eh]
	 Correlation Energy        =      -2.8114555269022343 [Eh]
	 Total Energy              =    -612.3113684851127800 [Eh]

	 ================> DF-SCS-MP2 Energies <==================
	-----------------------------------------------------------
	 SCS Same-Spin Scale       =       0.3333333333333333 [-]
	 SCS Opposite-Spin Scale   =       1.2000000000000000 [-]
	 SCS Same-Spin Energy      =      -0.2270965324512208 [Eh]
	 SCS Opposite-Spin Energy  =      -2.5561991154582859 [Eh]
	 SCS Correlation Energy    =      -2.7832956479095068 [Eh]
	 SCS Total Energy          =    -612.2832086061200698 [Eh]
	-----------------------------------------------------------

  Dipole Moment: [D]
     X:    -0.4222      Y:    -1.4973      Z:    -0.2087     Total:     1.5696

*** Psi4 exiting successfully. Buy a developer a beer!
