                               Psi4 1.4a3.dev225

  ==> Input File <==

--------------------------------------------------------------------------
#psi4
#
memory 32 gb

molecule  {
0 1
  N       -0.4697210     1.1445100    -0.2216410
  N        1.7892250     1.2839290     0.3484630
  C       -1.6240620     0.3182020    -0.0704420
  C        0.7850350     0.5381570    -0.1399480
  C       -0.5952140     2.4946130     0.3294290
  C        0.9870780    -0.7701080    -0.6316150
  C        3.3308620    -0.5454650    -0.0717700
  C       -1.7342750    -0.5947120     0.9884560
  C       -2.6794440     0.4585720    -0.9790390
  C        2.2640650    -1.3032160    -0.5830550
  C        3.0220600     0.7400440     0.3662130
  C       -2.8869950    -1.3690860     1.1220740
  C       -3.8377830    -0.3053550    -0.8293160
  C       -3.9434210    -1.2230030     0.2186750
  C        4.7300730    -1.0916580    -0.0030050
  H        0.1601300    -1.3363870    -1.0489480
  H       -0.4605330     2.5122530     1.4190480
  H       -1.5934070     2.8602250     0.0818210
  H        0.1591150     3.1409490    -0.1188450
  H       -0.9140430    -0.6937920     1.6961740
  H       -2.5739031     1.1474294    -1.7878237
  H        2.4420680    -2.3104690    -0.9583480
  H        3.8063450     1.3842980     0.7658560
  H       -2.9675220    -2.0774950     1.9434440
  H       -4.6536710    -0.1926670    -1.5394220
  H        5.0860610    -1.3967900    -0.9923270
  H        5.4219950    -0.3393960     0.3861000
  H        4.7833880    -1.9677830     0.6515600
  H       -4.8424050    -1.8242580     0.3291710
units angstrom
no_reorient  #important for SAPT in psi4, default
symmetry c1  #important for SAPT in psi4, default
}

set PROPERTIES_ORIGIN ["COM"]
properties('MP2/aug-cc-pvtz', properties = ['dipole'])
--------------------------------------------------------------------------

    Molecular point group: c1
  Charge       = 0
  Multiplicity = 1
  Basis Set: AUG-CC-PVTZ
    Blend: AUG-CC-PVTZ
  Basis Set: (AUG-CC-PVTZ AUX)
    Blend: AUG-CC-PVTZ-JKFIT

    Orbital Energies [Eh]
    ---------------------

    Doubly Occupied:

       1A    -15.572848     2A    -15.549023     3A    -11.308622
       4A    -11.275190     5A    -11.265588     6A    -11.250273
       7A    -11.245232     8A    -11.241961     9A    -11.241653
      10A    -11.237969    11A    -11.237574    12A    -11.234557
      13A    -11.230399    14A    -11.228920    15A    -11.225186
      16A     -1.290197    17A     -1.217441    18A     -1.142260
      19A     -1.089942    20A     -1.038036    21A     -1.019098
      22A     -1.008922    23A     -0.949402    24A     -0.907596
      25A     -0.847018    26A     -0.839279    27A     -0.830207
      28A     -0.785647    29A     -0.724778    30A     -0.686709
      31A     -0.674434    32A     -0.648311    33A     -0.638787
      34A     -0.622875    35A     -0.609819    36A     -0.594316
      37A     -0.588764    38A     -0.583928    39A     -0.576723
      40A     -0.561634    41A     -0.543274    42A     -0.534304
      43A     -0.523382    44A     -0.514741    45A     -0.508201
      46A     -0.500450    47A     -0.498726    48A     -0.418060
      49A     -0.410349    50A     -0.373650    51A     -0.342746
      52A     -0.338895    53A     -0.286513

  @DF-RHF Final Energy:  -609.53387042317195

   => Energetics <=

    Nuclear Repulsion Energy =            919.7117132503396988
    One-Electron Energy =               -2651.2623546600589179
    Two-Electron Energy =                1122.0167709865472716
    Total Energy =                       -609.5338704231719476
  Basis Set: (AUG-CC-PVTZ AUX)
    Blend: AUG-CC-PVTZ-RI
    Molecular point group: c1

    Geometry (in Angstrom), charge = 0, multiplicity = 1:

       Center              X                  Y                   Z               Mass
    ------------   -----------------  -----------------  -----------------  -----------------
         N           -0.450422341265     1.139124314898    -0.217652002908    14.003074004430
         N            1.808523658735     1.278543314898     0.352451997092    14.003074004430
         C           -1.604763341265     0.312816314898    -0.066453002908    12.000000000000
         C            0.804333658735     0.532771314898    -0.135959002908    12.000000000000
         C           -0.575915341265     2.489227314898     0.333417997092    12.000000000000
         C            1.006376658735    -0.775493685102    -0.627626002908    12.000000000000
         C            3.350160658735    -0.550850685102    -0.067781002908    12.000000000000
         C           -1.714976341265    -0.600097685102     0.992444997092    12.000000000000
         C           -2.660145341265     0.453186314898    -0.975050002908    12.000000000000
         C            2.283363658735    -1.308601685102    -0.579066002908    12.000000000000
         C            3.041358658735     0.734658314898     0.370201997092    12.000000000000
         C           -2.867696341265    -1.374471685102     1.126062997092    12.000000000000
         C           -3.818484341265    -0.310740685102    -0.825327002908    12.000000000000
         C           -3.924122341265    -1.228388685102     0.222663997092    12.000000000000
         C            4.749371658735    -1.097043685102     0.000983997092    12.000000000000
         H            0.179428658735    -1.341772685102    -1.044959002908     1.007825032230
         H           -0.441234341265     2.506867314898     1.423036997092     1.007825032230
         H           -1.574108341265     2.854839314898     0.085809997092     1.007825032230
         H            0.178413658735     3.135563314898    -0.114856002908     1.007825032230
         H           -0.894744341265    -0.699177685102     1.700162997092     1.007825032230
         H           -2.554604441265     1.142043714898    -1.783834702908     1.007825032230
         H            2.461366658735    -2.315854685102    -0.954359002908     1.007825032230
         H            3.825643658735     1.378912314898     0.769844997092     1.007825032230
         H           -2.948223341265    -2.082880685102     1.947432997092     1.007825032230
         H           -4.634372341265    -0.198052685102    -1.535433002908     1.007825032230
         H            5.105359658735    -1.402175685102    -0.988338002908     1.007825032230
         H            5.441293658735    -0.344781685102     0.390088997092     1.007825032230
         H            4.802686658735    -1.973168685102     0.655548997092     1.007825032230
         H           -4.823106341265    -1.829643685102     0.333159997092     1.007825032230

  Basis Set: AUG-CC-PVTZ
    Blend: AUG-CC-PVTZ
  Basis Set: (AUG-CC-PVTZ AUX)
    Blend: AUG-CC-PVTZ-JKFIT
	 Reference Energy          =    -609.5338704231719476 [Eh]
	 Singles Energy            =      -0.0000000000000000 [Eh]
	 Same-Spin Energy          =      -0.6810870233594576 [Eh]
	 Opposite-Spin Energy      =      -2.1306011374256810 [Eh]
	 Correlation Energy        =      -2.8116881607851387 [Eh]
	 Total Energy              =    -612.3455585839570858 [Eh]

	 ================> DF-SCS-MP2 Energies <==================
	-----------------------------------------------------------
	 SCS Same-Spin Scale       =       0.3333333333333333 [-]
	 SCS Opposite-Spin Scale   =       1.2000000000000000 [-]
	 SCS Same-Spin Energy      =      -0.2270290077864859 [Eh]
	 SCS Opposite-Spin Energy  =      -2.5567213649108171 [Eh]
	 SCS Correlation Energy    =      -2.7837503726973032 [Eh]
	 SCS Total Energy          =    -612.3176207958692885 [Eh]
	-----------------------------------------------------------

  Dipole Moment: [D]
     X:    -0.4920      Y:    -1.4604      Z:    -0.1692     Total:     1.5503

*** Psi4 exiting successfully. Buy a developer a beer!
