                               Psi4 1.4a3.dev225

  ==> Input File <==

--------------------------------------------------------------------------
#psi4
#
memory 32 gb

molecule  {
0 1
  N       -0.4697210     1.1445100    -0.2216410
  N        1.7892250     1.2839290     0.3484630
  C       -1.6240620     0.3182020    -0.0704420
  C        0.7850350     0.5381570    -0.1399480
  C       -0.5952140     2.4946130     0.3294290
  C        0.9870780    -0.7701080    -0.6316150
  C        3.3308620    -0.5454650    -0.0717700
  C       -1.7342750    -0.5947120     0.9884560
  C       -2.6794440     0.4585720    -0.9790390
  C        2.2640650    -1.3032160    -0.5830550
  C        3.0220600     0.7400440     0.3662130
  C       -2.8869950    -1.3690860     1.1220740
  C       -3.8377830    -0.3053550    -0.8293160
  C       -3.9282971    -1.0916260     0.0686372
  C        4.7300730    -1.0916580    -0.0030050
  H        0.1601300    -1.3363870    -1.0489480
  H       -0.4605330     2.5122530     1.4190480
  H       -1.5934070     2.8602250     0.0818210
  H        0.1591150     3.1409490    -0.1188450
  H       -0.9140430    -0.6937920     1.6961740
  H       -2.5719260     1.1603340    -1.8029750
  H        2.4420680    -2.3104690    -0.9583480
  H        3.8063450     1.3842980     0.7658560
  H       -2.9675220    -2.0774950     1.9434440
  H       -4.6536710    -0.1926670    -1.5394220
  H        5.0860610    -1.3967900    -0.9923270
  H        5.4219950    -0.3393960     0.3861000
  H        4.7833880    -1.9677830     0.6515600
  H       -4.8424050    -1.8242580     0.3291710
units angstrom
no_reorient  #important for SAPT in psi4, default
symmetry c1  #important for SAPT in psi4, default
}

set PROPERTIES_ORIGIN ["COM"]
properties('MP2/aug-cc-pvtz', properties = ['dipole'])
--------------------------------------------------------------------------

    Molecular point group: c1
  Charge       = 0
  Multiplicity = 1
  Basis Set: AUG-CC-PVTZ
    Blend: AUG-CC-PVTZ
  Basis Set: (AUG-CC-PVTZ AUX)
    Blend: AUG-CC-PVTZ-JKFIT

    Orbital Energies [Eh]
    ---------------------

    Doubly Occupied:

       1A    -15.572335     2A    -15.549076     3A    -11.308512
       4A    -11.273689     5A    -11.265859     6A    -11.251029
       7A    -11.250582     8A    -11.244498     9A    -11.238812
      10A    -11.236494    11A    -11.232715    12A    -11.230583
      13A    -11.229112    14A    -11.225335    15A    -11.213237
      16A     -1.290020    17A     -1.218007    18A     -1.160472
      19A     -1.090690    20A     -1.043022    21A     -1.035325
      22A     -0.998474    23A     -0.949405    24A     -0.908082
      25A     -0.847218    26A     -0.842022    27A     -0.825886
      28A     -0.782356    29A     -0.726991    30A     -0.678422
      31A     -0.672387    32A     -0.650937    33A     -0.636510
      34A     -0.623975    35A     -0.617451    36A     -0.600527
      37A     -0.585164    38A     -0.583138    39A     -0.576738
      40A     -0.557848    41A     -0.542845    42A     -0.531144
      43A     -0.524789    44A     -0.522901    45A     -0.514079
      46A     -0.507843    47A     -0.457031    48A     -0.419638
      49A     -0.410384    50A     -0.374706    51A     -0.368542
      52A     -0.325446    53A     -0.287759

  @DF-RHF Final Energy:  -609.47162825280691

   => Energetics <=

    Nuclear Repulsion Energy =            921.9237064413151757
    One-Electron Energy =               -2655.5705801985172911
    Two-Electron Energy =                1124.1752455043954342
    Total Energy =                       -609.4716282528067950
  Basis Set: (AUG-CC-PVTZ AUX)
    Blend: AUG-CC-PVTZ-RI
    Molecular point group: c1

    Geometry (in Angstrom), charge = 0, multiplicity = 1:

       Center              X                  Y                   Z               Mass
    ------------   -----------------  -----------------  -----------------  -----------------
         N           -0.451348463588     1.131101075996    -0.208487037822    14.003074004430
         N            1.807597536412     1.270520075996     0.361616962178    14.003074004430
         C           -1.605689463588     0.304793075996    -0.057288037822    12.000000000000
         C            0.803407536412     0.524748075996    -0.126794037822    12.000000000000
         C           -0.576841463588     2.481204075996     0.342582962178    12.000000000000
         C            1.005450536412    -0.783516924004    -0.618461037822    12.000000000000
         C            3.349234536412    -0.558873924004    -0.058616037822    12.000000000000
         C           -1.715902463588    -0.608120924004     1.001609962178    12.000000000000
         C           -2.661071463588     0.445163075996    -0.965885037822    12.000000000000
         C            2.282437536412    -1.316624924004    -0.569901037822    12.000000000000
         C            3.040432536412     0.726635075996     0.379366962178    12.000000000000
         C           -2.868622463588    -1.382494924004     1.135227962178    12.000000000000
         C           -3.819410463588    -0.318763924004    -0.816162037822    12.000000000000
         C           -3.909924563588    -1.105034924004     0.081791162178    12.000000000000
         C            4.748445536412    -1.105066924004     0.010148962178    12.000000000000
         H            0.178502536412    -1.349795924004    -1.035794037822     1.007825032230
         H           -0.442160463588     2.498844075996     1.432201962178     1.007825032230
         H           -1.575034463588     2.846816075996     0.094974962178     1.007825032230
         H            0.177487536412     3.127540075996    -0.105691037822     1.007825032230
         H           -0.895670463588    -0.707200924004     1.709327962178     1.007825032230
         H           -2.553553463588     1.146925075996    -1.789821037822     1.007825032230
         H            2.460440536412    -2.323877924004    -0.945194037822     1.007825032230
         H            3.824717536412     1.370889075996     0.779009962178     1.007825032230
         H           -2.949149463588    -2.090903924004     1.956597962178     1.007825032230
         H           -4.635298463588    -0.206075924004    -1.526268037822     1.007825032230
         H            5.104433536412    -1.410198924004    -0.979173037822     1.007825032230
         H            5.440367536412    -0.352804924004     0.399253962178     1.007825032230
         H            4.801760536412    -1.981191924004     0.664713962178     1.007825032230
         H           -4.824032463588    -1.837666924004     0.342324962178     1.007825032230

  Basis Set: AUG-CC-PVTZ
    Blend: AUG-CC-PVTZ
  Basis Set: (AUG-CC-PVTZ AUX)
    Blend: AUG-CC-PVTZ-JKFIT
	 Reference Energy          =    -609.4716282528069087 [Eh]
	 Singles Energy            =      -0.0000000000000000 [Eh]
	 Same-Spin Energy          =      -0.6806137672424792 [Eh]
	 Opposite-Spin Energy      =      -2.1321796858208333 [Eh]
	 Correlation Energy        =      -2.8127934530633123 [Eh]
	 Total Energy              =    -612.2844217058702725 [Eh]

	 ================> DF-SCS-MP2 Energies <==================
	-----------------------------------------------------------
	 SCS Same-Spin Scale       =       0.3333333333333333 [-]
	 SCS Opposite-Spin Scale   =       1.2000000000000000 [-]
	 SCS Same-Spin Energy      =      -0.2268712557474931 [Eh]
	 SCS Opposite-Spin Energy  =      -2.5586156229849997 [Eh]
	 SCS Correlation Energy    =      -2.7854868787324927 [Eh]
	 SCS Total Energy          =    -612.2571151315394218 [Eh]
	-----------------------------------------------------------

  Dipole Moment: [D]
     X:    -0.4167      Y:    -1.4431      Z:    -0.1383     Total:     1.5084

*** Psi4 exiting successfully. Buy a developer a beer!
