                               Psi4 1.4a3.dev225

  ==> Input File <==

--------------------------------------------------------------------------
#psi4
#
memory 32 gb

molecule  {
0 1
  N       -0.4697210     1.1445100    -0.2216410
  N        1.7892250     1.2839290     0.3484630
  C       -1.6240620     0.3182020    -0.0704420
  C        0.7850350     0.5381570    -0.1399480
  C       -0.5952140     2.4946130     0.3294290
  C        0.9870780    -0.7701080    -0.6316150
  C        3.3308620    -0.5454650    -0.0717700
  C       -1.7342750    -0.5947120     0.9884560
  C       -2.6794440     0.4585720    -0.9790390
  C        2.2640650    -1.3032160    -0.5830550
  C        3.0220600     0.7400440     0.3662130
  C       -2.8869950    -1.3690860     1.1220740
  C       -3.8377830    -0.3053550    -0.8293160
  C       -3.9434210    -1.2230030     0.2186750
  C        4.7300730    -1.0916580    -0.0030050
  H        0.1601300    -1.3363870    -1.0489480
  H       -0.4605330     2.5122530     1.4190480
  H       -1.5934070     2.8602250     0.0818210
  H        0.1591150     3.1409490    -0.1188450
  H       -0.9140430    -0.6937920     1.6961740
  H       -2.5719260     1.1603340    -1.8029750
  H        2.4420680    -2.3104690    -0.9583480
  H        3.8063450     1.3842980     0.7658560
  H       -2.9675220    -2.0774950     1.9434440
  H       -4.6536710    -0.1926670    -1.5394220
  H        5.0860610    -1.3967900    -0.9923270
  H        5.4219950    -0.3393960     0.3861000
  H        4.7785188    -1.8877672     0.5917791
  H       -4.8424050    -1.8242580     0.3291710
units angstrom
no_reorient  #important for SAPT in psi4, default
symmetry c1  #important for SAPT in psi4, default
}

set PROPERTIES_ORIGIN ["COM"]
properties('MP2/aug-cc-pvtz', properties = ['dipole'])
--------------------------------------------------------------------------

    Molecular point group: c1
  Charge       = 0
  Multiplicity = 1
  Basis Set: AUG-CC-PVTZ
    Blend: AUG-CC-PVTZ
  Basis Set: (AUG-CC-PVTZ AUX)
    Blend: AUG-CC-PVTZ-JKFIT

    Orbital Energies [Eh]
    ---------------------

    Doubly Occupied:

       1A    -15.572535     2A    -15.548721     3A    -11.308231
       4A    -11.275215     5A    -11.265057     6A    -11.250012
       7A    -11.244995     8A    -11.241921     9A    -11.241696
      10A    -11.237978    11A    -11.237571    12A    -11.236699
      13A    -11.229735    14A    -11.228647    15A    -11.212811
      16A     -1.289892    17A     -1.217134    18A     -1.142134
      19A     -1.090787    20A     -1.038938    21A     -1.018601
      22A     -1.009111    23A     -0.954544    24A     -0.909878
      25A     -0.847001    26A     -0.840067    27A     -0.829604
      28A     -0.785901    29A     -0.724430    30A     -0.685486
      31A     -0.674202    32A     -0.648089    33A     -0.639516
      34A     -0.622501    35A     -0.609661    36A     -0.596246
      37A     -0.590474    38A     -0.587227    39A     -0.581553
      40A     -0.561410    41A     -0.546176    42A     -0.534008
      43A     -0.524912    44A     -0.514182    45A     -0.507522
      46A     -0.499933    47A     -0.498561    48A     -0.418342
      49A     -0.410007    50A     -0.373528    51A     -0.342780
      52A     -0.338868    53A     -0.286470

  @DF-RHF Final Energy:  -609.52769416770627

   => Energetics <=

    Nuclear Repulsion Energy =            920.0732324196206946
    One-Electron Energy =               -2651.9588507690586994
    Two-Electron Energy =                1122.3579241817319598
    Total Energy =                       -609.5276941677061586
  Basis Set: (AUG-CC-PVTZ AUX)
    Blend: AUG-CC-PVTZ-RI
    Molecular point group: c1

    Geometry (in Angstrom), charge = 0, multiplicity = 1:

       Center              X                  Y                   Z               Mass
    ------------   -----------------  -----------------  -----------------  -----------------
         N           -0.450407629000     1.138651623911    -0.217270818845    14.003074004430
         N            1.808538371000     1.278070623911     0.352833181155    14.003074004430
         C           -1.604748629000     0.312343623911    -0.066071818845    12.000000000000
         C            0.804348371000     0.532298623911    -0.135577818845    12.000000000000
         C           -0.575900629000     2.488754623911     0.333799181155    12.000000000000
         C            1.006391371000    -0.775966376089    -0.627244818845    12.000000000000
         C            3.350175371000    -0.551323376089    -0.067399818845    12.000000000000
         C           -1.714961629000    -0.600570376089     0.992826181155    12.000000000000
         C           -2.660130629000     0.452713623911    -0.974668818845    12.000000000000
         C            2.283378371000    -1.309074376089    -0.578684818845    12.000000000000
         C            3.041373371000     0.734185623911     0.370583181155    12.000000000000
         C           -2.867681629000    -1.374944376089     1.126444181155    12.000000000000
         C           -3.818469629000    -0.311213376089    -0.824945818845    12.000000000000
         C           -3.924107629000    -1.228861376089     0.223045181155    12.000000000000
         C            4.749386371000    -1.097516376089     0.001365181155    12.000000000000
         H            0.179443371000    -1.342245376089    -1.044577818845     1.007825032230
         H           -0.441219629000     2.506394623911     1.423418181155     1.007825032230
         H           -1.574093629000     2.854366623911     0.086191181155     1.007825032230
         H            0.178428371000     3.135090623911    -0.114474818845     1.007825032230
         H           -0.894729629000    -0.699650376089     1.700544181155     1.007825032230
         H           -2.552612629000     1.154475623911    -1.798604818845     1.007825032230
         H            2.461381371000    -2.316327376089    -0.953977818845     1.007825032230
         H            3.825658371000     1.378439623911     0.770226181155     1.007825032230
         H           -2.948208629000    -2.083353376089     1.947814181155     1.007825032230
         H           -4.634357629000    -0.198525376089    -1.535051818845     1.007825032230
         H            5.105374371000    -1.402648376089    -0.987956818845     1.007825032230
         H            5.441308371000    -0.345254376089     0.390470181155     1.007825032230
         H            4.797832171000    -1.893625576089     0.596149281155     1.007825032230
         H           -4.823091629000    -1.830116376089     0.333541181155     1.007825032230

  Basis Set: AUG-CC-PVTZ
    Blend: AUG-CC-PVTZ
  Basis Set: (AUG-CC-PVTZ AUX)
    Blend: AUG-CC-PVTZ-JKFIT
	 Reference Energy          =    -609.5276941677062723 [Eh]
	 Singles Energy            =      -0.0000000000000000 [Eh]
	 Same-Spin Energy          =      -0.6811908482682539 [Eh]
	 Opposite-Spin Energy      =      -2.1303069982228209 [Eh]
	 Correlation Energy        =      -2.8114978464910747 [Eh]
	 Total Energy              =    -612.3391920141973515 [Eh]

	 ================> DF-SCS-MP2 Energies <==================
	-----------------------------------------------------------
	 SCS Same-Spin Scale       =       0.3333333333333333 [-]
	 SCS Opposite-Spin Scale   =       1.2000000000000000 [-]
	 SCS Same-Spin Energy      =      -0.2270636160894180 [Eh]
	 SCS Opposite-Spin Energy  =      -2.5563683978673848 [Eh]
	 SCS Correlation Energy    =      -2.7834320139568027 [Eh]
	 SCS Total Energy          =    -612.3111261816630986 [Eh]
	-----------------------------------------------------------

  Dipole Moment: [D]
     X:    -0.4567      Y:    -1.5001      Z:    -0.1476     Total:     1.5750

*** Psi4 exiting successfully. Buy a developer a beer!
