                               Psi4 1.4a3.dev225

  ==> Input File <==

--------------------------------------------------------------------------
#psi4
#
memory 32 gb

molecule  {
0 1
  N       -0.4697210     1.1445100    -0.2216410
  N        1.7892250     1.2839290     0.3484630
  C       -1.7049187     0.2603226    -0.0598511
  C        0.7850350     0.5381570    -0.1399480
  C       -0.5952140     2.4946130     0.3294290
  C        0.9870780    -0.7701080    -0.6316150
  C        3.3308620    -0.5454650    -0.0717700
  C       -1.7342750    -0.5947120     0.9884560
  C       -2.6794440     0.4585720    -0.9790390
  C        2.2640650    -1.3032160    -0.5830550
  C        3.0220600     0.7400440     0.3662130
  C       -2.8869950    -1.3690860     1.1220740
  C       -3.8377830    -0.3053550    -0.8293160
  C       -3.9434210    -1.2230030     0.2186750
  C        4.7300730    -1.0916580    -0.0030050
  H        0.1601300    -1.3363870    -1.0489480
  H       -0.4605330     2.5122530     1.4190480
  H       -1.5934070     2.8602250     0.0818210
  H        0.1591150     3.1409490    -0.1188450
  H       -0.9140430    -0.6937920     1.6961740
  H       -2.5719260     1.1603340    -1.8029750
  H        2.4420680    -2.3104690    -0.9583480
  H        3.8063450     1.3842980     0.7658560
  H       -2.9675220    -2.0774950     1.9434440
  H       -4.6536710    -0.1926670    -1.5394220
  H        5.0860610    -1.3967900    -0.9923270
  H        5.4219950    -0.3393960     0.3861000
  H        4.7833880    -1.9677830     0.6515600
  H       -4.8424050    -1.8242580     0.3291710
units angstrom
no_reorient  #important for SAPT in psi4, default
symmetry c1  #important for SAPT in psi4, default
}

set PROPERTIES_ORIGIN ["COM"]
properties('MP2/aug-cc-pvtz', properties = ['dipole'])
--------------------------------------------------------------------------

    Molecular point group: c1
  Charge       = 0
  Multiplicity = 1
  Basis Set: AUG-CC-PVTZ
    Blend: AUG-CC-PVTZ
  Basis Set: (AUG-CC-PVTZ AUX)
    Blend: AUG-CC-PVTZ-JKFIT

    Orbital Energies [Eh]
    ---------------------

    Doubly Occupied:

       1A    -15.568200     2A    -15.545098     3A    -11.304582
       4A    -11.273395     5A    -11.263050     6A    -11.247954
       7A    -11.245390     8A    -11.245209     9A    -11.240726
      10A    -11.240433    11A    -11.236989    12A    -11.236590
      13A    -11.227239    14A    -11.225948    15A    -11.223250
      16A     -1.277486    17A     -1.207858    18A     -1.152026
      19A     -1.086831    20A     -1.035276    21A     -1.028014
      22A     -1.014773    23A     -0.945120    24A     -0.899111
      25A     -0.844866    26A     -0.843067    27A     -0.827889
      28A     -0.785718    29A     -0.721938    30A     -0.683388
      31A     -0.670038    32A     -0.647705    33A     -0.637015
      34A     -0.622099    35A     -0.609343    36A     -0.603407
      37A     -0.585510    38A     -0.578715    39A     -0.574304
      40A     -0.557741    41A     -0.541309    42A     -0.531118
      43A     -0.521059    44A     -0.514899    45A     -0.512260
      46A     -0.509361    47A     -0.488445    48A     -0.413962
      49A     -0.406987    50A     -0.371340    51A     -0.349301
      52A     -0.345165    53A     -0.285225

  @DF-RHF Final Energy:  -609.52374487590384

   => Energetics <=

    Nuclear Repulsion Energy =            919.3005202069605275
    One-Electron Energy =               -2650.5410885236301510
    Two-Electron Energy =                1121.7168234407658929
    Total Energy =                       -609.5237448759037306
  Basis Set: (AUG-CC-PVTZ AUX)
    Blend: AUG-CC-PVTZ-RI
    Molecular point group: c1

    Geometry (in Angstrom), charge = 0, multiplicity = 1:

       Center              X                  Y                   Z               Mass
    ------------   -----------------  -----------------  -----------------  -----------------
         N           -0.445534854627     1.142564462380    -0.218216425321    14.003074004430
         N            1.813411145373     1.281983462380     0.351887574679    14.003074004430
         C           -1.680732554627     0.258377062380    -0.056426525321    12.000000000000
         C            0.809221145373     0.536211462380    -0.136523425321    12.000000000000
         C           -0.571027854627     2.492667462380     0.332853574679    12.000000000000
         C            1.011264145373    -0.772053537620    -0.628190425321    12.000000000000
         C            3.355048145373    -0.547410537620    -0.068345425321    12.000000000000
         C           -1.710088854627    -0.596657537620     0.991880574679    12.000000000000
         C           -2.655257854627     0.456626462380    -0.975614425321    12.000000000000
         C            2.288251145373    -1.305161537620    -0.579630425321    12.000000000000
         C            3.046246145373     0.738098462380     0.369637574679    12.000000000000
         C           -2.862808854627    -1.371031537620     1.125498574679    12.000000000000
         C           -3.813596854627    -0.307300537620    -0.825891425321    12.000000000000
         C           -3.919234854627    -1.224948537620     0.222099574679    12.000000000000
         C            4.754259145373    -1.093603537620     0.000419574679    12.000000000000
         H            0.184316145373    -1.338332537620    -1.045523425321     1.007825032230
         H           -0.436346854627     2.510307462380     1.422472574679     1.007825032230
         H           -1.569220854627     2.858279462380     0.085245574679     1.007825032230
         H            0.183301145373     3.139003462380    -0.115420425321     1.007825032230
         H           -0.889856854627    -0.695737537620     1.699598574679     1.007825032230
         H           -2.547739854627     1.158388462380    -1.799550425321     1.007825032230
         H            2.466254145373    -2.312414537620    -0.954923425321     1.007825032230
         H            3.830531145373     1.382352462380     0.769280574679     1.007825032230
         H           -2.943335854627    -2.079440537620     1.946868574679     1.007825032230
         H           -4.629484854627    -0.194612537620    -1.535997425321     1.007825032230
         H            5.110247145373    -1.398735537620    -0.988902425321     1.007825032230
         H            5.446181145373    -0.341341537620     0.389524574679     1.007825032230
         H            4.807574145373    -1.969728537620     0.654984574679     1.007825032230
         H           -4.818218854627    -1.826203537620     0.332595574679     1.007825032230

  Basis Set: AUG-CC-PVTZ
    Blend: AUG-CC-PVTZ
  Basis Set: (AUG-CC-PVTZ AUX)
    Blend: AUG-CC-PVTZ-JKFIT
	 Reference Energy          =    -609.5237448759038443 [Eh]
	 Singles Energy            =      -0.0000000000000000 [Eh]
	 Same-Spin Energy          =      -0.6807354239633467 [Eh]
	 Opposite-Spin Energy      =      -2.1304501211302971 [Eh]
	 Correlation Energy        =      -2.8111855450936440 [Eh]
	 Total Energy              =    -612.3349304209974662 [Eh]

	 ================> DF-SCS-MP2 Energies <==================
	-----------------------------------------------------------
	 SCS Same-Spin Scale       =       0.3333333333333333 [-]
	 SCS Opposite-Spin Scale   =       1.2000000000000000 [-]
	 SCS Same-Spin Energy      =      -0.2269118079877822 [Eh]
	 SCS Opposite-Spin Energy  =      -2.5565401453563563 [Eh]
	 SCS Correlation Energy    =      -2.7834519533441386 [Eh]
	 SCS Total Energy          =    -612.3071968292480278 [Eh]
	-----------------------------------------------------------

  Dipole Moment: [D]
     X:    -1.0002      Y:    -1.6321      Z:    -0.1483     Total:     1.9200

*** Psi4 exiting successfully. Buy a developer a beer!
