                               Psi4 1.4a3.dev225

  ==> Input File <==

--------------------------------------------------------------------------
#psi4
#
memory 32 gb

molecule  {
0 1
  N       -0.4697210     1.1445100    -0.2216410
  N        1.7892250     1.2839290     0.3484630
  C       -1.6240620     0.3182020    -0.0704420
  C        0.7850350     0.5381570    -0.1399480
  C       -0.5952140     2.4946130     0.3294290
  C        0.9870780    -0.7701080    -0.6316150
  C        3.3308620    -0.5454650    -0.0717700
  C       -1.7162055    -0.6162835     1.0281976
  C       -2.6794440     0.4585720    -0.9790390
  C        2.2640650    -1.3032160    -0.5830550
  C        3.0220600     0.7400440     0.3662130
  C       -2.8869950    -1.3690860     1.1220740
  C       -3.8377830    -0.3053550    -0.8293160
  C       -3.9434210    -1.2230030     0.2186750
  C        4.7300730    -1.0916580    -0.0030050
  H        0.1601300    -1.3363870    -1.0489480
  H       -0.4605330     2.5122530     1.4190480
  H       -1.5934070     2.8602250     0.0818210
  H        0.1591150     3.1409490    -0.1188450
  H       -0.9140430    -0.6937920     1.6961740
  H       -2.5719260     1.1603340    -1.8029750
  H        2.4420680    -2.3104690    -0.9583480
  H        3.8063450     1.3842980     0.7658560
  H       -2.9675220    -2.0774950     1.9434440
  H       -4.6536710    -0.1926670    -1.5394220
  H        5.0860610    -1.3967900    -0.9923270
  H        5.4219950    -0.3393960     0.3861000
  H        4.7833880    -1.9677830     0.6515600
  H       -4.8424050    -1.8242580     0.3291710
units angstrom
no_reorient  #important for SAPT in psi4, default
symmetry c1  #important for SAPT in psi4, default
}

set PROPERTIES_ORIGIN ["COM"]
properties('MP2/aug-cc-pvtz', properties = ['dipole'])
--------------------------------------------------------------------------

    Molecular point group: c1
  Charge       = 0
  Multiplicity = 1
  Basis Set: AUG-CC-PVTZ
    Blend: AUG-CC-PVTZ
  Basis Set: (AUG-CC-PVTZ AUX)
    Blend: AUG-CC-PVTZ-JKFIT

    Orbital Energies [Eh]
    ---------------------

    Doubly Occupied:

       1A    -15.572839     2A    -15.549234     3A    -11.308710
       4A    -11.280110     5A    -11.265773     6A    -11.250430
       7A    -11.245178     8A    -11.242792     9A    -11.242433
      10A    -11.238921    11A    -11.237908    12A    -11.236580
      13A    -11.230599    14A    -11.229034    15A    -11.225323
      16A     -1.289950    17A     -1.216749    18A     -1.139411
      19A     -1.090090    20A     -1.038077    21A     -1.019614
      22A     -1.005367    23A     -0.949469    24A     -0.907663
      25A     -0.847204    26A     -0.841734    27A     -0.826821
      28A     -0.784504    29A     -0.723998    30A     -0.688004
      31A     -0.674786    32A     -0.647509    33A     -0.640313
      34A     -0.623571    35A     -0.608150    36A     -0.595021
      37A     -0.587353    38A     -0.585227    39A     -0.576775
      40A     -0.561970    41A     -0.543460    42A     -0.534577
      43A     -0.523720    44A     -0.515938    45A     -0.505613
      46A     -0.503212    47A     -0.495664    48A     -0.417196
      49A     -0.410306    50A     -0.373855    51A     -0.341933
      52A     -0.337816    53A     -0.285668

  @DF-RHF Final Energy:  -609.52994237942471

   => Energetics <=

    Nuclear Repulsion Energy =            918.8282533730159685
    One-Electron Energy =               -2649.4880816196778142
    Two-Electron Energy =                1121.1298858672371352
    Total Energy =                       -609.5299423794247105
  Basis Set: (AUG-CC-PVTZ AUX)
    Blend: AUG-CC-PVTZ-RI
    Molecular point group: c1

    Geometry (in Angstrom), charge = 0, multiplicity = 1:

       Center              X                  Y                   Z               Mass
    ------------   -----------------  -----------------  -----------------  -----------------
         N           -0.451526880545     1.140365268659    -0.219982102663    14.003074004430
         N            1.807419119455     1.279784268659     0.350121897337    14.003074004430
         C           -1.605867880545     0.314057268659    -0.068783102663    12.000000000000
         C            0.803229119455     0.534012268659    -0.138289102663    12.000000000000
         C           -0.577019880545     2.490468268659     0.331087897337    12.000000000000
         C            1.005272119455    -0.774252731341    -0.629956102663    12.000000000000
         C            3.349056119455    -0.549609731341    -0.070111102663    12.000000000000
         C           -1.698011380545    -0.620428231341     1.029856497337    12.000000000000
         C           -2.661249880545     0.454427268659    -0.977380102663    12.000000000000
         C            2.282259119455    -1.307360731341    -0.581396102663    12.000000000000
         C            3.040254119455     0.735899268659     0.367871897337    12.000000000000
         C           -2.868800880545    -1.373230731341     1.123732897337    12.000000000000
         C           -3.819588880545    -0.309499731341    -0.827657102663    12.000000000000
         C           -3.925226880545    -1.227147731341     0.220333897337    12.000000000000
         C            4.748267119455    -1.095802731341    -0.001346102663    12.000000000000
         H            0.178324119455    -1.340531731341    -1.047289102663     1.007825032230
         H           -0.442338880545     2.508108268659     1.420706897337     1.007825032230
         H           -1.575212880545     2.856080268659     0.083479897337     1.007825032230
         H            0.177309119455     3.136804268659    -0.117186102663     1.007825032230
         H           -0.895848880545    -0.697936731341     1.697832897337     1.007825032230
         H           -2.553731880545     1.156189268659    -1.801316102663     1.007825032230
         H            2.460262119455    -2.314613731341    -0.956689102663     1.007825032230
         H            3.824539119455     1.380153268659     0.767514897337     1.007825032230
         H           -2.949327880545    -2.081639731341     1.945102897337     1.007825032230
         H           -4.635476880545    -0.196811731341    -1.537763102663     1.007825032230
         H            5.104255119455    -1.400934731341    -0.990668102663     1.007825032230
         H            5.440189119455    -0.343540731341     0.387758897337     1.007825032230
         H            4.801582119455    -1.971927731341     0.653218897337     1.007825032230
         H           -4.824210880545    -1.828402731341     0.330829897337     1.007825032230

  Basis Set: AUG-CC-PVTZ
    Blend: AUG-CC-PVTZ
  Basis Set: (AUG-CC-PVTZ AUX)
    Blend: AUG-CC-PVTZ-JKFIT
	 Reference Energy          =    -609.5299423794247105 [Eh]
	 Singles Energy            =      -0.0000000000000000 [Eh]
	 Same-Spin Energy          =      -0.6811868409363707 [Eh]
	 Opposite-Spin Energy      =      -2.1312188865763635 [Eh]
	 Correlation Energy        =      -2.8124057275127341 [Eh]
	 Total Energy              =    -612.3423481069374930 [Eh]

	 ================> DF-SCS-MP2 Energies <==================
	-----------------------------------------------------------
	 SCS Same-Spin Scale       =       0.3333333333333333 [-]
	 SCS Opposite-Spin Scale   =       1.2000000000000000 [-]
	 SCS Same-Spin Energy      =      -0.2270622803121236 [Eh]
	 SCS Opposite-Spin Energy  =      -2.5574626638916360 [Eh]
	 SCS Correlation Energy    =      -2.7845249442037594 [Eh]
	 SCS Total Energy          =    -612.3144673236284916 [Eh]
	-----------------------------------------------------------

  Dipole Moment: [D]
     X:    -0.4723      Y:    -1.4460      Z:    -0.1804     Total:     1.5319

*** Psi4 exiting successfully. Buy a developer a beer!
