                               Psi4 1.4a3.dev225

  ==> Input File <==

--------------------------------------------------------------------------
#psi4
#
memory 32 gb

molecule  {
0 1
  N       -0.4697210     1.1445100    -0.2216410
  N        1.7892250     1.2839290     0.3484630
  C       -1.6240620     0.3182020    -0.0704420
  C        0.7850350     0.5381570    -0.1399480
  C       -0.5952140     2.4946130     0.3294290
  C        0.9870780    -0.7701080    -0.6316150
  C        3.3308620    -0.5454650    -0.0717700
  C       -1.7342750    -0.5947120     0.9884560
  C       -2.6794440     0.4585720    -0.9790390
  C        2.2640650    -1.3032160    -0.5830550
  C        3.0220600     0.7400440     0.3662130
  C       -2.8623882    -1.3348593     1.0975163
  C       -3.8377830    -0.3053550    -0.8293160
  C       -3.9434210    -1.2230030     0.2186750
  C        4.7300730    -1.0916580    -0.0030050
  H        0.1601300    -1.3363870    -1.0489480
  H       -0.4605330     2.5122530     1.4190480
  H       -1.5934070     2.8602250     0.0818210
  H        0.1591150     3.1409490    -0.1188450
  H       -0.9140430    -0.6937920     1.6961740
  H       -2.5719260     1.1603340    -1.8029750
  H        2.4420680    -2.3104690    -0.9583480
  H        3.8063450     1.3842980     0.7658560
  H       -2.9675220    -2.0774950     1.9434440
  H       -4.6536710    -0.1926670    -1.5394220
  H        5.0860610    -1.3967900    -0.9923270
  H        5.4219950    -0.3393960     0.3861000
  H        4.7833880    -1.9677830     0.6515600
  H       -4.8424050    -1.8242580     0.3291710
units angstrom
no_reorient  #important for SAPT in psi4, default
symmetry c1  #important for SAPT in psi4, default
}

set PROPERTIES_ORIGIN ["COM"]
properties('MP2/aug-cc-pvtz', properties = ['dipole'])
--------------------------------------------------------------------------

    Molecular point group: c1
  Charge       = 0
  Multiplicity = 1
  Basis Set: AUG-CC-PVTZ
    Blend: AUG-CC-PVTZ
  Basis Set: (AUG-CC-PVTZ AUX)
    Blend: AUG-CC-PVTZ-JKFIT

    Orbital Energies [Eh]
    ---------------------

    Doubly Occupied:

       1A    -15.572830     2A    -15.549219     3A    -11.308786
       4A    -11.275683     5A    -11.265808     6A    -11.250514
       7A    -11.245314     8A    -11.241739     9A    -11.240756
      10A    -11.237493    11A    -11.235703    12A    -11.233040
      13A    -11.230598    14A    -11.229171    15A    -11.225319
      16A     -1.290415    17A     -1.217910    18A     -1.146361
      19A     -1.090172    20A     -1.038186    21A     -1.023185
      22A     -1.007964    23A     -0.949559    24A     -0.908349
      25A     -0.847197    26A     -0.839685    27A     -0.826633
      28A     -0.785833    29A     -0.724202    30A     -0.687157
      31A     -0.674685    32A     -0.649923    33A     -0.636739
      34A     -0.621691    35A     -0.608090    36A     -0.591663
      37A     -0.586875    38A     -0.585547    39A     -0.576969
      40A     -0.562488    41A     -0.543631    42A     -0.535044
      43A     -0.523649    44A     -0.517394    45A     -0.508483
      46A     -0.501564    47A     -0.492901    48A     -0.417924
      49A     -0.410457    50A     -0.373936    51A     -0.346584
      52A     -0.338485    53A     -0.286544

  @DF-RHF Final Energy:  -609.53085037603648

   => Energetics <=

    Nuclear Repulsion Energy =            920.6110755436692443
    One-Electron Energy =               -2653.0517574370082912
    Two-Electron Energy =                1122.9098315173023366
    Total Energy =                       -609.5308503760365966
  Basis Set: (AUG-CC-PVTZ AUX)
    Blend: AUG-CC-PVTZ-RI
    Molecular point group: c1

    Geometry (in Angstrom), charge = 0, multiplicity = 1:

       Center              X                  Y                   Z               Mass
    ------------   -----------------  -----------------  -----------------  -----------------
         N           -0.451922849166     1.136985534467    -0.216087451174    14.003074004430
         N            1.807023150834     1.276404534467     0.354016548826    14.003074004430
         C           -1.606263849166     0.310677534467    -0.064888451174    12.000000000000
         C            0.802833150834     0.530632534467    -0.134394451174    12.000000000000
         C           -0.577415849166     2.487088534467     0.334982548826    12.000000000000
         C            1.004876150834    -0.777632465533    -0.626061451174    12.000000000000
         C            3.348660150834    -0.552989465533    -0.066216451174    12.000000000000
         C           -1.716476849166    -0.602236465533     0.994009548826    12.000000000000
         C           -2.661645849166     0.451047534467    -0.973485451174    12.000000000000
         C            2.281863150834    -1.310740465533    -0.577501451174    12.000000000000
         C            3.039858150834     0.732519534467     0.371766548826    12.000000000000
         C           -2.844590049166    -1.342383765533     1.103069848826    12.000000000000
         C           -3.819984849166    -0.312879465533    -0.823762451174    12.000000000000
         C           -3.925622849166    -1.230527465533     0.224228548826    12.000000000000
         C            4.747871150834    -1.099182465533     0.002548548826    12.000000000000
         H            0.177928150834    -1.343911465533    -1.043394451174     1.007825032230
         H           -0.442734849166     2.504728534467     1.424601548826     1.007825032230
         H           -1.575608849166     2.852700534467     0.087374548826     1.007825032230
         H            0.176913150834     3.133424534467    -0.113291451174     1.007825032230
         H           -0.896244849166    -0.701316465533     1.701727548826     1.007825032230
         H           -2.554127849166     1.152809534467    -1.797421451174     1.007825032230
         H            2.459866150834    -2.317993465533    -0.952794451174     1.007825032230
         H            3.824143150834     1.376773534467     0.771409548826     1.007825032230
         H           -2.949723849166    -2.085019465533     1.948997548826     1.007825032230
         H           -4.635872849166    -0.200191465533    -1.533868451174     1.007825032230
         H            5.103859150834    -1.404314465533    -0.986773451174     1.007825032230
         H            5.439793150834    -0.346920465533     0.391653548826     1.007825032230
         H            4.801186150834    -1.975307465533     0.657113548826     1.007825032230
         H           -4.824606849166    -1.831782465533     0.334724548826     1.007825032230

  Basis Set: AUG-CC-PVTZ
    Blend: AUG-CC-PVTZ
  Basis Set: (AUG-CC-PVTZ AUX)
    Blend: AUG-CC-PVTZ-JKFIT
	 Reference Energy          =    -609.5308503760364829 [Eh]
	 Singles Energy            =      -0.0000000000000000 [Eh]
	 Same-Spin Energy          =      -0.6812109882261929 [Eh]
	 Opposite-Spin Energy      =      -2.1307083972117544 [Eh]
	 Correlation Energy        =      -2.8119193854379474 [Eh]
	 Total Energy              =    -612.3427697614744147 [Eh]

	 ================> DF-SCS-MP2 Energies <==================
	-----------------------------------------------------------
	 SCS Same-Spin Scale       =       0.3333333333333333 [-]
	 SCS Opposite-Spin Scale   =       1.2000000000000000 [-]
	 SCS Same-Spin Energy      =      -0.2270703294087310 [Eh]
	 SCS Opposite-Spin Energy  =      -2.5568500766541051 [Eh]
	 SCS Correlation Energy    =      -2.7839204060628360 [Eh]
	 SCS Total Energy          =    -612.3147707820993446 [Eh]
	-----------------------------------------------------------

  Dipole Moment: [D]
     X:    -0.4871      Y:    -1.4436      Z:    -0.1891     Total:     1.5352

*** Psi4 exiting successfully. Buy a developer a beer!
