                               Psi4 1.4a3.dev225

  ==> Input File <==

--------------------------------------------------------------------------
#psi4
#
memory 32 gb

molecule  {
0 1
  N       -0.4697210     1.1445100    -0.2216410
  N        1.7892250     1.2839290     0.3484630
  C       -1.6240620     0.3182020    -0.0704420
  C        0.7850350     0.5381570    -0.1399480
  C       -0.5952140     2.4946130     0.3294290
  C        0.9870780    -0.7701080    -0.6316150
  C        3.3308620    -0.5454650    -0.0717700
  C       -1.7342750    -0.5947120     0.9884560
  C       -2.6794440     0.4585720    -0.9790390
  C        2.2640650    -1.3032160    -0.5830550
  C        3.0220600     0.7400440     0.3662130
  C       -2.8869950    -1.3690860     1.1220740
  C       -3.8377830    -0.3053550    -0.8293160
  C       -3.9434210    -1.2230030     0.2186750
  C        4.7300730    -1.0916580    -0.0030050
  H        0.1601300    -1.3363870    -1.0489480
  H       -0.4605330     2.5122530     1.4190480
  H       -1.5934070     2.8602250     0.0818210
  H        0.1591150     3.1409490    -0.1188450
  H       -0.9140430    -0.6937920     1.6961740
  H       -2.5719260     1.1603340    -1.8029750
  H        2.4584055    -2.4029169    -0.9927932
  H        3.8063450     1.3842980     0.7658560
  H       -2.9675220    -2.0774950     1.9434440
  H       -4.6536710    -0.1926670    -1.5394220
  H        5.0860610    -1.3967900    -0.9923270
  H        5.4219950    -0.3393960     0.3861000
  H        4.7833880    -1.9677830     0.6515600
  H       -4.8424050    -1.8242580     0.3291710
units angstrom
no_reorient  #important for SAPT in psi4, default
symmetry c1  #important for SAPT in psi4, default
}

set PROPERTIES_ORIGIN ["COM"]
properties('MP2/aug-cc-pvtz', properties = ['dipole'])
--------------------------------------------------------------------------

    Molecular point group: c1
  Charge       = 0
  Multiplicity = 1
  Basis Set: AUG-CC-PVTZ
    Blend: AUG-CC-PVTZ
  Basis Set: (AUG-CC-PVTZ AUX)
    Blend: AUG-CC-PVTZ-JKFIT

    Orbital Energies [Eh]
    ---------------------

    Doubly Occupied:

       1A    -15.573264     2A    -15.549469     3A    -11.309385
       4A    -11.275565     5A    -11.266430     6A    -11.261493
       7A    -11.245494     8A    -11.242175     9A    -11.241954
      10A    -11.238247    11A    -11.237882    12A    -11.237015
      13A    -11.231522    14A    -11.229902    15A    -11.225168
      16A     -1.290669    17A     -1.217896    18A     -1.142444
      19A     -1.088526    20A     -1.038255    21A     -1.018823
      22A     -1.009020    23A     -0.948912    24A     -0.907689
      25A     -0.844031    26A     -0.839113    27A     -0.828489
      28A     -0.782761    29A     -0.722424    30A     -0.684016
      31A     -0.674786    32A     -0.648491    33A     -0.637735
      34A     -0.621917    35A     -0.607155    36A     -0.593336
      37A     -0.588377    38A     -0.582776    39A     -0.576388
      40A     -0.554971    41A     -0.543070    42A     -0.529909
      43A     -0.523736    44A     -0.514995    45A     -0.508229
      46A     -0.500226    47A     -0.499077    48A     -0.418445
      49A     -0.410269    50A     -0.374277    51A     -0.343045
      52A     -0.339177    53A     -0.287049

  @DF-RHF Final Energy:  -609.52639787693192

   => Energetics <=

    Nuclear Repulsion Energy =            919.0856198470989966
    One-Electron Energy =               -2650.0130951578075837
    Two-Electron Energy =                1121.4010774337766634
    Total Energy =                       -609.5263978769319237
  Basis Set: (AUG-CC-PVTZ AUX)
    Blend: AUG-CC-PVTZ-RI
    Molecular point group: c1

    Geometry (in Angstrom), charge = 0, multiplicity = 1:

       Center              X                  Y                   Z               Mass
    ------------   -----------------  -----------------  -----------------  -----------------
         N           -0.450515508604     1.139528955871    -0.217399702890    14.003074004430
         N            1.808430491396     1.278947955871     0.352704297110    14.003074004430
         C           -1.604856508604     0.313220955871    -0.066200702890    12.000000000000
         C            0.804240491396     0.533175955871    -0.135706702890    12.000000000000
         C           -0.576008508604     2.489631955871     0.333670297110    12.000000000000
         C            1.006283491396    -0.775089044129    -0.627373702890    12.000000000000
         C            3.350067491396    -0.550446044129    -0.067528702890    12.000000000000
         C           -1.715069508604    -0.599693044129     0.992697297110    12.000000000000
         C           -2.660238508604     0.453590955871    -0.974797702890    12.000000000000
         C            2.283270491396    -1.308197044129    -0.578813702890    12.000000000000
         C            3.041265491396     0.735062955871     0.370454297110    12.000000000000
         C           -2.867789508604    -1.374067044129     1.126315297110    12.000000000000
         C           -3.818577508604    -0.310336044129    -0.825074702890    12.000000000000
         C           -3.924215508604    -1.227984044129     0.222916297110    12.000000000000
         C            4.749278491396    -1.096639044129     0.001236297110    12.000000000000
         H            0.179335491396    -1.341368044129    -1.044706702890     1.007825032230
         H           -0.441327508604     2.507271955871     1.423289297110     1.007825032230
         H           -1.574201508604     2.855243955871     0.086062297110     1.007825032230
         H            0.178320491396     3.135967955871    -0.114603702890     1.007825032230
         H           -0.894837508604    -0.698773044129     1.700415297110     1.007825032230
         H           -2.552720508604     1.155352955871    -1.798733702890     1.007825032230
         H            2.477610991396    -2.407897944129    -0.988551902890     1.007825032230
         H            3.825550491396     1.379316955871     0.770097297110     1.007825032230
         H           -2.948316508604    -2.082476044129     1.947685297110     1.007825032230
         H           -4.634465508604    -0.197648044129    -1.535180702890     1.007825032230
         H            5.105266491396    -1.401771044129    -0.988085702890     1.007825032230
         H            5.441200491396    -0.344377044129     0.390341297110     1.007825032230
         H            4.802593491396    -1.972764044129     0.655801297110     1.007825032230
         H           -4.823199508604    -1.829239044129     0.333412297110     1.007825032230

  Basis Set: AUG-CC-PVTZ
    Blend: AUG-CC-PVTZ
  Basis Set: (AUG-CC-PVTZ AUX)
    Blend: AUG-CC-PVTZ-JKFIT
	 Reference Energy          =    -609.5263978769319237 [Eh]
	 Singles Energy            =      -0.0000000000000000 [Eh]
	 Same-Spin Energy          =      -0.6813747006769907 [Eh]
	 Opposite-Spin Energy      =      -2.1316606365086872 [Eh]
	 Correlation Energy        =      -2.8130353371856778 [Eh]
	 Total Energy              =    -612.3394332141175482 [Eh]

	 ================> DF-SCS-MP2 Energies <==================
	-----------------------------------------------------------
	 SCS Same-Spin Scale       =       0.3333333333333333 [-]
	 SCS Opposite-Spin Scale   =       1.2000000000000000 [-]
	 SCS Same-Spin Energy      =      -0.2271249002256636 [Eh]
	 SCS Opposite-Spin Energy  =      -2.5579927638104247 [Eh]
	 SCS Correlation Energy    =      -2.7851176640360884 [Eh]
	 SCS Total Energy          =    -612.3115155409680028 [Eh]
	-----------------------------------------------------------

  Dipole Moment: [D]
     X:    -0.5139      Y:    -1.4177      Z:    -0.1486     Total:     1.5153

*** Psi4 exiting successfully. Buy a developer a beer!
