                               Psi4 1.4a3.dev225

  ==> Input File <==

--------------------------------------------------------------------------
#psi4
#
memory 32 gb

molecule  {
0 1
  N       -0.4697210     1.1445100    -0.2216410
  N        1.7892250     1.2839290     0.3484630
  C       -1.6240620     0.3182020    -0.0704420
  C        0.7850350     0.5381570    -0.1399480
  C       -0.5952140     2.4946130     0.3294290
  C        0.9870780    -0.7701080    -0.6316150
  C        3.3308620    -0.5454650    -0.0717700
  C       -1.7342750    -0.5947120     0.9884560
  C       -2.6794440     0.4585720    -0.9790390
  C        2.2640650    -1.3032160    -0.5830550
  C        3.0220600     0.7400440     0.3662130
  C       -2.8869950    -1.3690860     1.1220740
  C       -3.8377830    -0.3053550    -0.8293160
  C       -3.9434210    -1.2230030     0.2186750
  C        4.7300730    -1.0916580    -0.0030050
  H        0.1601300    -1.3363870    -1.0489480
  H       -0.4605330     2.5122530     1.4190480
  H       -1.5934070     2.8602250     0.0818210
  H        0.1591150     3.1409490    -0.1188450
  H       -0.9140430    -0.6937920     1.6961740
  H       -2.5916974     1.0312877    -1.6514622
  H        2.4420680    -2.3104690    -0.9583480
  H        3.8063450     1.3842980     0.7658560
  H       -2.9675220    -2.0774950     1.9434440
  H       -4.6536710    -0.1926670    -1.5394220
  H        5.0860610    -1.3967900    -0.9923270
  H        5.4219950    -0.3393960     0.3861000
  H        4.7833880    -1.9677830     0.6515600
  H       -4.8424050    -1.8242580     0.3291710
units angstrom
no_reorient  #important for SAPT in psi4, default
symmetry c1  #important for SAPT in psi4, default
}

set PROPERTIES_ORIGIN ["COM"]
properties('MP2/aug-cc-pvtz', properties = ['dipole'])
--------------------------------------------------------------------------

    Molecular point group: c1
  Charge       = 0
  Multiplicity = 1
  Basis Set: AUG-CC-PVTZ
    Blend: AUG-CC-PVTZ
  Basis Set: (AUG-CC-PVTZ AUX)
    Blend: AUG-CC-PVTZ-JKFIT

    Orbital Energies [Eh]
    ---------------------

    Doubly Occupied:

       1A    -15.573069     2A    -15.549137     3A    -11.308727
       4A    -11.274085     5A    -11.265661     6A    -11.250340
       7A    -11.245581     8A    -11.241628     9A    -11.240692
      10A    -11.237040    11A    -11.236556    12A    -11.230485
      13A    -11.229009    14A    -11.225238    15A    -11.213264
      16A     -1.290411    17A     -1.217804    18A     -1.142990
      19A     -1.090001    20A     -1.039204    21A     -1.026126
      22A     -1.009633    23A     -0.949557    24A     -0.908934
      25A     -0.847861    26A     -0.845988    27A     -0.836977
      28A     -0.786481    29A     -0.728456    30A     -0.701179
      31A     -0.674838    32A     -0.649829    33A     -0.642922
      34A     -0.624414    35A     -0.611812    36A     -0.599358
      37A     -0.590960    38A     -0.584115    39A     -0.576940
      40A     -0.561759    41A     -0.543343    42A     -0.534934
      43A     -0.523509    44A     -0.516896    45A     -0.510623
      46A     -0.501809    47A     -0.498234    48A     -0.418034
      49A     -0.410425    50A     -0.373712    51A     -0.342103
      52A     -0.338591    53A     -0.286485

  @DF-RHF Final Energy:  -609.49919992695584

   => Energetics <=

    Nuclear Repulsion Energy =            920.7877954757791485
    One-Electron Energy =               -2653.2584784336818302
    Two-Electron Energy =                1122.9714830309469562
    Total Energy =                       -609.4991999269557255
  Basis Set: (AUG-CC-PVTZ AUX)
    Blend: AUG-CC-PVTZ-RI
    Molecular point group: c1

    Geometry (in Angstrom), charge = 0, multiplicity = 1:

       Center              X                  Y                   Z               Mass
    ------------   -----------------  -----------------  -----------------  -----------------
         N           -0.450331820720     1.139715133866    -0.218345681067    14.003074004430
         N            1.808614179280     1.279134133866     0.351758318933    14.003074004430
         C           -1.604672820720     0.313407133866    -0.067146681067    12.000000000000
         C            0.804424179280     0.533362133866    -0.136652681067    12.000000000000
         C           -0.575824820720     2.489818133866     0.332724318933    12.000000000000
         C            1.006467179280    -0.774902866134    -0.628319681067    12.000000000000
         C            3.350251179280    -0.550259866134    -0.068474681067    12.000000000000
         C           -1.714885820720    -0.599506866134     0.991751318933    12.000000000000
         C           -2.660054820720     0.453777133866    -0.975743681067    12.000000000000
         C            2.283454179280    -1.308010866134    -0.579759681067    12.000000000000
         C            3.041449179280     0.735249133866     0.369508318933    12.000000000000
         C           -2.867605820720    -1.373880866134     1.125369318933    12.000000000000
         C           -3.818393820720    -0.310149866134    -0.826020681067    12.000000000000
         C           -3.924031820720    -1.227797866134     0.221970318933    12.000000000000
         C            4.749462179280    -1.096452866134     0.000290318933    12.000000000000
         H            0.179519179280    -1.341181866134    -1.045652681067     1.007825032230
         H           -0.441143820720     2.507458133866     1.422343318933     1.007825032230
         H           -1.574017820720     2.855430133866     0.085116318933     1.007825032230
         H            0.178504179280     3.136154133866    -0.115549681067     1.007825032230
         H           -0.894653820720    -0.698586866134     1.699469318933     1.007825032230
         H           -2.572308220720     1.026492833866    -1.648166881067     1.007825032230
         H            2.461457179280    -2.315263866134    -0.955052681067     1.007825032230
         H            3.825734179280     1.379503133866     0.769151318933     1.007825032230
         H           -2.948132820720    -2.082289866134     1.946739318933     1.007825032230
         H           -4.634281820720    -0.197461866134    -1.536126681067     1.007825032230
         H            5.105450179280    -1.401584866134    -0.989031681067     1.007825032230
         H            5.441384179280    -0.344190866134     0.389395318933     1.007825032230
         H            4.802777179280    -1.972577866134     0.654855318933     1.007825032230
         H           -4.823015820720    -1.829052866134     0.332466318933     1.007825032230

  Basis Set: AUG-CC-PVTZ
    Blend: AUG-CC-PVTZ
  Basis Set: (AUG-CC-PVTZ AUX)
    Blend: AUG-CC-PVTZ-JKFIT
	 Reference Energy          =    -609.4991999269558391 [Eh]
	 Singles Energy            =      -0.0000000000000000 [Eh]
	 Same-Spin Energy          =      -0.6808404461153679 [Eh]
	 Opposite-Spin Energy      =      -2.1301306132748943 [Eh]
	 Correlation Energy        =      -2.8109710593902619 [Eh]
	 Total Energy              =    -612.3101709863460655 [Eh]

	 ================> DF-SCS-MP2 Energies <==================
	-----------------------------------------------------------
	 SCS Same-Spin Scale       =       0.3333333333333333 [-]
	 SCS Opposite-Spin Scale   =       1.2000000000000000 [-]
	 SCS Same-Spin Energy      =      -0.2269468153717893 [Eh]
	 SCS Opposite-Spin Energy  =      -2.5561567359298731 [Eh]
	 SCS Correlation Energy    =      -2.7831035513016622 [Eh]
	 SCS Total Energy          =    -612.2823034782575178 [Eh]
	-----------------------------------------------------------

  Dipole Moment: [D]
     X:    -0.4806      Y:    -1.4506      Z:    -0.1747     Total:     1.5381

*** Psi4 exiting successfully. Buy a developer a beer!
