                               Psi4 1.4a3.dev225

  ==> Input File <==

--------------------------------------------------------------------------
#psi4
#
memory 32 gb

molecule  {
0 1
  N       -0.4697210     1.1445100    -0.2216410
  N        1.7892250     1.2839290     0.3484630
  C       -1.6240620     0.3182020    -0.0704420
  C        0.7700784     0.5270493    -0.1472225
  C       -0.5952140     2.4946130     0.3294290
  C        0.9870780    -0.7701080    -0.6316150
  C        3.3308620    -0.5454650    -0.0717700
  C       -1.7342750    -0.5947120     0.9884560
  C       -2.6794440     0.4585720    -0.9790390
  C        2.2640650    -1.3032160    -0.5830550
  C        3.0220600     0.7400440     0.3662130
  C       -2.8869950    -1.3690860     1.1220740
  C       -3.8377830    -0.3053550    -0.8293160
  C       -3.9434210    -1.2230030     0.2186750
  C        4.7300730    -1.0916580    -0.0030050
  H        0.1601300    -1.3363870    -1.0489480
  H       -0.4605330     2.5122530     1.4190480
  H       -1.5934070     2.8602250     0.0818210
  H        0.1591150     3.1409490    -0.1188450
  H       -0.9140430    -0.6937920     1.6961740
  H       -2.5719260     1.1603340    -1.8029750
  H        2.4420680    -2.3104690    -0.9583480
  H        3.8063450     1.3842980     0.7658560
  H       -2.9675220    -2.0774950     1.9434440
  H       -4.6536710    -0.1926670    -1.5394220
  H        5.0860610    -1.3967900    -0.9923270
  H        5.4219950    -0.3393960     0.3861000
  H        4.7833880    -1.9677830     0.6515600
  H       -4.8424050    -1.8242580     0.3291710
units angstrom
no_reorient  #important for SAPT in psi4, default
symmetry c1  #important for SAPT in psi4, default
}

set PROPERTIES_ORIGIN ["COM"]
properties('MP2/aug-cc-pvtz', properties = ['dipole'])
--------------------------------------------------------------------------

    Molecular point group: c1
  Charge       = 0
  Multiplicity = 1
  Basis Set: AUG-CC-PVTZ
    Blend: AUG-CC-PVTZ
  Basis Set: (AUG-CC-PVTZ AUX)
    Blend: AUG-CC-PVTZ-JKFIT

    Orbital Energies [Eh]
    ---------------------

    Doubly Occupied:

       1A    -15.574002     2A    -15.549448     3A    -11.308586
       4A    -11.275582     5A    -11.265342     6A    -11.250329
       7A    -11.246161     8A    -11.242306     9A    -11.242066
      10A    -11.238429    11A    -11.238088    12A    -11.237177
      13A    -11.229552    14A    -11.227143    15A    -11.224746
      16A     -1.290070    17A     -1.214884    18A     -1.142768
      19A     -1.088091    20A     -1.039155    21A     -1.018999
      22A     -1.009259    23A     -0.950135    24A     -0.907101
      25A     -0.846969    26A     -0.839609    27A     -0.829654
      28A     -0.785215    29A     -0.724952    30A     -0.685828
      31A     -0.673767    32A     -0.648823    33A     -0.637112
      34A     -0.622463    35A     -0.609927    36A     -0.594164
      37A     -0.589512    38A     -0.583884    39A     -0.576392
      40A     -0.561364    41A     -0.542598    42A     -0.535421
      43A     -0.521854    44A     -0.514449    45A     -0.507727
      46A     -0.500248    47A     -0.498821    48A     -0.418919
      49A     -0.409713    50A     -0.372474    51A     -0.343026
      52A     -0.339429    53A     -0.285743

  @DF-RHF Final Energy:  -609.53238483809946

   => Energetics <=

    Nuclear Repulsion Energy =            919.6277674472651142
    One-Electron Energy =               -2651.1013539905811740
    Two-Electron Energy =                1121.9412017052165993
    Total Energy =                       -609.5323848380994605
  Basis Set: (AUG-CC-PVTZ AUX)
    Blend: AUG-CC-PVTZ-RI
    Molecular point group: c1

    Geometry (in Angstrom), charge = 0, multiplicity = 1:

       Center              X                  Y                   Z               Mass
    ------------   -----------------  -----------------  -----------------  -----------------
         N           -0.449526467639     1.139731469314    -0.217134306126    14.003074004430
         N            1.809419532361     1.279150469314     0.352969693874    14.003074004430
         C           -1.603867467639     0.313423469314    -0.065935306126    12.000000000000
         C            0.790272932361     0.522270769314    -0.142715806126    12.000000000000
         C           -0.575019467639     2.489834469314     0.333935693874    12.000000000000
         C            1.007272532361    -0.774886530686    -0.627108306126    12.000000000000
         C            3.351056532361    -0.550243530686    -0.067263306126    12.000000000000
         C           -1.714080467639    -0.599490530686     0.992962693874    12.000000000000
         C           -2.659249467639     0.453793469314    -0.974532306126    12.000000000000
         C            2.284259532361    -1.307994530686    -0.578548306126    12.000000000000
         C            3.042254532361     0.735265469314     0.370719693874    12.000000000000
         C           -2.866800467639    -1.373864530686     1.126580693874    12.000000000000
         C           -3.817588467639    -0.310133530686    -0.824809306126    12.000000000000
         C           -3.923226467639    -1.227781530686     0.223181693874    12.000000000000
         C            4.750267532361    -1.096436530686     0.001501693874    12.000000000000
         H            0.180324532361    -1.341165530686    -1.044441306126     1.007825032230
         H           -0.440338467639     2.507474469314     1.423554693874     1.007825032230
         H           -1.573212467639     2.855446469314     0.086327693874     1.007825032230
         H            0.179309532361     3.136170469314    -0.114338306126     1.007825032230
         H           -0.893848467639    -0.698570530686     1.700680693874     1.007825032230
         H           -2.551731467639     1.155555469314    -1.798468306126     1.007825032230
         H            2.462262532361    -2.315247530686    -0.953841306126     1.007825032230
         H            3.826539532361     1.379519469314     0.770362693874     1.007825032230
         H           -2.947327467639    -2.082273530686     1.947950693874     1.007825032230
         H           -4.633476467639    -0.197445530686    -1.534915306126     1.007825032230
         H            5.106255532361    -1.401568530686    -0.987820306126     1.007825032230
         H            5.442189532361    -0.344174530686     0.390606693874     1.007825032230
         H            4.803582532361    -1.972561530686     0.656066693874     1.007825032230
         H           -4.822210467639    -1.829036530686     0.333677693874     1.007825032230

  Basis Set: AUG-CC-PVTZ
    Blend: AUG-CC-PVTZ
  Basis Set: (AUG-CC-PVTZ AUX)
    Blend: AUG-CC-PVTZ-JKFIT
	 Reference Energy          =    -609.5323848380994605 [Eh]
	 Singles Energy            =      -0.0000000000000000 [Eh]
	 Same-Spin Energy          =      -0.6814490821779167 [Eh]
	 Opposite-Spin Energy      =      -2.1312189556726864 [Eh]
	 Correlation Energy        =      -2.8126680378506030 [Eh]
	 Total Energy              =    -612.3450528759500457 [Eh]

	 ================> DF-SCS-MP2 Energies <==================
	-----------------------------------------------------------
	 SCS Same-Spin Scale       =       0.3333333333333333 [-]
	 SCS Opposite-Spin Scale   =       1.2000000000000000 [-]
	 SCS Same-Spin Energy      =      -0.2271496940593055 [Eh]
	 SCS Opposite-Spin Energy  =      -2.5574627468072237 [Eh]
	 SCS Correlation Energy    =      -2.7846124408665291 [Eh]
	 SCS Total Energy          =    -612.3169972789660278 [Eh]
	-----------------------------------------------------------

  Dipole Moment: [D]
     X:    -0.5711      Y:    -1.4385      Z:    -0.1665     Total:     1.5566

*** Psi4 exiting successfully. Buy a developer a beer!
