                               Psi4 1.4a3.dev225

  ==> Input File <==

--------------------------------------------------------------------------
#psi4
#
memory 32 gb

molecule  {
0 1
  N       -0.4697210     1.1445100    -0.2216410
  N        1.7892250     1.2839290     0.3484630
  C       -1.6240620     0.3182020    -0.0704420
  C        0.7850350     0.5381570    -0.1399480
  C       -0.5952140     2.4946130     0.3294290
  C        0.9870780    -0.7701080    -0.6316150
  C        3.3308620    -0.5454650    -0.0717700
  C       -1.7342750    -0.5947120     0.9884560
  C       -2.6608958     0.4366011    -0.9397163
  C        2.2640650    -1.3032160    -0.5830550
  C        3.0220600     0.7400440     0.3662130
  C       -2.8869950    -1.3690860     1.1220740
  C       -3.8377830    -0.3053550    -0.8293160
  C       -3.9434210    -1.2230030     0.2186750
  C        4.7300730    -1.0916580    -0.0030050
  H        0.1601300    -1.3363870    -1.0489480
  H       -0.4605330     2.5122530     1.4190480
  H       -1.5934070     2.8602250     0.0818210
  H        0.1591150     3.1409490    -0.1188450
  H       -0.9140430    -0.6937920     1.6961740
  H       -2.5719260     1.1603340    -1.8029750
  H        2.4420680    -2.3104690    -0.9583480
  H        3.8063450     1.3842980     0.7658560
  H       -2.9675220    -2.0774950     1.9434440
  H       -4.6536710    -0.1926670    -1.5394220
  H        5.0860610    -1.3967900    -0.9923270
  H        5.4219950    -0.3393960     0.3861000
  H        4.7833880    -1.9677830     0.6515600
  H       -4.8424050    -1.8242580     0.3291710
units angstrom
no_reorient  #important for SAPT in psi4, default
symmetry c1  #important for SAPT in psi4, default
}

set PROPERTIES_ORIGIN ["COM"]
properties('MP2/aug-cc-pvtz', properties = ['dipole'])
--------------------------------------------------------------------------

    Molecular point group: c1
  Charge       = 0
  Multiplicity = 1
  Basis Set: AUG-CC-PVTZ
    Blend: AUG-CC-PVTZ
  Basis Set: (AUG-CC-PVTZ AUX)
    Blend: AUG-CC-PVTZ-JKFIT

    Orbital Energies [Eh]
    ---------------------

    Doubly Occupied:

       1A    -15.572805     2A    -15.549043     3A    -11.308701
       4A    -11.270404     5A    -11.265656     6A    -11.250365
       7A    -11.245035     8A    -11.241745     9A    -11.241166
      10A    -11.238387    11A    -11.238040    12A    -11.235729
      13A    -11.230423    14A    -11.229010    15A    -11.225203
      16A     -1.290506    17A     -1.218371    18A     -1.145602
      19A     -1.090017    20A     -1.038514    21A     -1.017606
      22A     -1.012740    23A     -0.949389    24A     -0.907535
      25A     -0.847140    26A     -0.841726    27A     -0.826732
      28A     -0.786734    29A     -0.726039    30A     -0.682611
      31A     -0.674394    32A     -0.649496    33A     -0.637528
      34A     -0.623708    35A     -0.610133    36A     -0.593356
      37A     -0.587017    38A     -0.582012    39A     -0.576402
      40A     -0.561949    41A     -0.543279    42A     -0.534119
      43A     -0.523457    44A     -0.514693    45A     -0.507820
      46A     -0.502217    47A     -0.495198    48A     -0.418529
      49A     -0.410452    50A     -0.373723    51A     -0.343640
      52A     -0.340804    53A     -0.287263

  @DF-RHF Final Energy:  -609.53122246771102

   => Energetics <=

    Nuclear Repulsion Energy =            920.5629430406872871
    One-Electron Energy =               -2652.9600149895741197
    Two-Electron Energy =                1122.8658494811759283
    Total Energy =                       -609.5312224677109043
  Basis Set: (AUG-CC-PVTZ AUX)
    Blend: AUG-CC-PVTZ-RI
    Molecular point group: c1

    Geometry (in Angstrom), charge = 0, multiplicity = 1:

       Center              X                  Y                   Z               Mass
    ------------   -----------------  -----------------  -----------------  -----------------
         N           -0.451555875723     1.140389460583    -0.219956729611    14.003074004430
         N            1.807390124277     1.279808460583     0.350147270389    14.003074004430
         C           -1.605896875723     0.314081460583    -0.068757729611    12.000000000000
         C            0.803200124277     0.534036460583    -0.138263729611    12.000000000000
         C           -0.577048875723     2.490492460583     0.331113270389    12.000000000000
         C            1.005243124277    -0.774228539417    -0.629930729611    12.000000000000
         C            3.349027124277    -0.549585539417    -0.070085729611    12.000000000000
         C           -1.716109875723    -0.598832539417     0.990140270389    12.000000000000
         C           -2.642730675723     0.432480560583    -0.938032029611    12.000000000000
         C            2.282230124277    -1.307336539417    -0.581370729611    12.000000000000
         C            3.040225124277     0.735923460583     0.367897270389    12.000000000000
         C           -2.868829875723    -1.373206539417     1.123758270389    12.000000000000
         C           -3.819617875723    -0.309475539417    -0.827631729611    12.000000000000
         C           -3.925255875723    -1.227123539417     0.220359270389    12.000000000000
         C            4.748238124277    -1.095778539417    -0.001320729611    12.000000000000
         H            0.178295124277    -1.340507539417    -1.047263729611     1.007825032230
         H           -0.442367875723     2.508132460583     1.420732270389     1.007825032230
         H           -1.575241875723     2.856104460583     0.083505270389     1.007825032230
         H            0.177280124277     3.136828460583    -0.117160729611     1.007825032230
         H           -0.895877875723    -0.697912539417     1.697858270389     1.007825032230
         H           -2.553760875723     1.156213460583    -1.801290729611     1.007825032230
         H            2.460233124277    -2.314589539417    -0.956663729611     1.007825032230
         H            3.824510124277     1.380177460583     0.767540270389     1.007825032230
         H           -2.949356875723    -2.081615539417     1.945128270389     1.007825032230
         H           -4.635505875723    -0.196787539417    -1.537737729611     1.007825032230
         H            5.104226124277    -1.400910539417    -0.990642729611     1.007825032230
         H            5.440160124277    -0.343516539417     0.387784270389     1.007825032230
         H            4.801553124277    -1.971903539417     0.653244270389     1.007825032230
         H           -4.824239875723    -1.828378539417     0.330855270389     1.007825032230

  Basis Set: AUG-CC-PVTZ
    Blend: AUG-CC-PVTZ
  Basis Set: (AUG-CC-PVTZ AUX)
    Blend: AUG-CC-PVTZ-JKFIT
	 Reference Energy          =    -609.5312224677110180 [Eh]
	 Singles Energy            =      -0.0000000000000000 [Eh]
	 Same-Spin Energy          =      -0.6811371099721432 [Eh]
	 Opposite-Spin Energy      =      -2.1306535874934207 [Eh]
	 Correlation Energy        =      -2.8117906974655638 [Eh]
	 Total Energy              =    -612.3430131651765578 [Eh]

	 ================> DF-SCS-MP2 Energies <==================
	-----------------------------------------------------------
	 SCS Same-Spin Scale       =       0.3333333333333333 [-]
	 SCS Opposite-Spin Scale   =       1.2000000000000000 [-]
	 SCS Same-Spin Energy      =      -0.2270457033240477 [Eh]
	 SCS Opposite-Spin Energy  =      -2.5567843049921049 [Eh]
	 SCS Correlation Energy    =      -2.7838300083161527 [Eh]
	 SCS Total Energy          =    -612.3150524760271765 [Eh]
	-----------------------------------------------------------

  Dipole Moment: [D]
     X:    -0.5174      Y:    -1.4823      Z:    -0.1594     Total:     1.5780

*** Psi4 exiting successfully. Buy a developer a beer!
