                               Psi4 1.4a3.dev225

  ==> Input File <==

--------------------------------------------------------------------------
#psi4
#
memory 32 gb

molecule  {
0 1
  N       -0.4697210     1.1445100    -0.2216410
  N        1.7892250     1.2839290     0.3484630
  C       -1.6240620     0.3182020    -0.0704420
  C        0.7850350     0.5381570    -0.1399480
  C       -0.5952140     2.4946130     0.3294290
  C        0.9870780    -0.7701080    -0.6316150
  C        3.3308620    -0.5454650    -0.0717700
  C       -1.6843662    -0.6621508     1.1079754
  C       -2.6794440     0.4585720    -0.9790390
  C        2.2640650    -1.3032160    -0.5830550
  C        3.0220600     0.7400440     0.3662130
  C       -2.8869950    -1.3690860     1.1220740
  C       -3.8377830    -0.3053550    -0.8293160
  C       -3.9434210    -1.2230030     0.2186750
  C        4.7300730    -1.0916580    -0.0030050
  H        0.1601300    -1.3363870    -1.0489480
  H       -0.4605330     2.5122530     1.4190480
  H       -1.5934070     2.8602250     0.0818210
  H        0.1591150     3.1409490    -0.1188450
  H       -0.9140430    -0.6937920     1.6961740
  H       -2.5719260     1.1603340    -1.8029750
  H        2.4420680    -2.3104690    -0.9583480
  H        3.8063450     1.3842980     0.7658560
  H       -2.9675220    -2.0774950     1.9434440
  H       -4.6536710    -0.1926670    -1.5394220
  H        5.0860610    -1.3967900    -0.9923270
  H        5.4219950    -0.3393960     0.3861000
  H        4.7833880    -1.9677830     0.6515600
  H       -4.8424050    -1.8242580     0.3291710
units angstrom
no_reorient  #important for SAPT in psi4, default
symmetry c1  #important for SAPT in psi4, default
}

set PROPERTIES_ORIGIN ["COM"]
properties('MP2/aug-cc-pvtz', properties = ['dipole'])
--------------------------------------------------------------------------

    Molecular point group: c1
  Charge       = 0
  Multiplicity = 1
  Basis Set: AUG-CC-PVTZ
    Blend: AUG-CC-PVTZ
  Basis Set: (AUG-CC-PVTZ AUX)
    Blend: AUG-CC-PVTZ-JKFIT

    Orbital Energies [Eh]
    ---------------------

    Doubly Occupied:

       1A    -15.573015     2A    -15.549671     3A    -11.308841
       4A    -11.288515     5A    -11.266109     6A    -11.250705
       7A    -11.245221     8A    -11.244903     9A    -11.244358
      10A    -11.241638    11A    -11.237882    12A    -11.236171
      13A    -11.231003    14A    -11.229269    15A    -11.225583
      16A     -1.289574    17A     -1.215722    18A     -1.134877
      19A     -1.090372    20A     -1.038389    21A     -1.021969
      22A     -0.999732    23A     -0.949629    24A     -0.908280
      25A     -0.849082    26A     -0.846698    27A     -0.824245
      28A     -0.781775    29A     -0.722702    30A     -0.697522
      31A     -0.675264    32A     -0.648168    33A     -0.643553
      34A     -0.625055    35A     -0.606736    36A     -0.596999
      37A     -0.587340    38A     -0.582641    39A     -0.576608
      40A     -0.562552    41A     -0.543908    42A     -0.535649
      43A     -0.524893    44A     -0.520338    45A     -0.507069
      46A     -0.498078    47A     -0.487180    48A     -0.415064
      49A     -0.409523    50A     -0.374189    51A     -0.344905
      52A     -0.332172    53A     -0.283875

  @DF-RHF Final Energy:  -609.50434445075257

   => Energetics <=

    Nuclear Repulsion Energy =            917.2934368919281951
    One-Electron Energy =               -2646.3451394658050049
    Two-Electron Energy =                1119.5473581231242406
    Total Energy =                       -609.5043444507525692
  Basis Set: (AUG-CC-PVTZ AUX)
    Blend: AUG-CC-PVTZ-RI
    Molecular point group: c1

    Geometry (in Angstrom), charge = 0, multiplicity = 1:

       Center              X                  Y                   Z               Mass
    ------------   -----------------  -----------------  -----------------  -----------------
         N           -0.453455408183     1.143143481614    -0.224814297222    14.003074004430
         N            1.805490591817     1.282562481614     0.345289702778    14.003074004430
         C           -1.607796408183     0.316835481614    -0.073615297222    12.000000000000
         C            0.801300591817     0.536790481614    -0.143121297222    12.000000000000
         C           -0.578948408183     2.493246481614     0.326255702778    12.000000000000
         C            1.003343591817    -0.771474518386    -0.634788297222    12.000000000000
         C            3.347127591817    -0.546831518386    -0.074943297222    12.000000000000
         C           -1.668100608183    -0.663517318386     1.104802102778    12.000000000000
         C           -2.663178408183     0.457205481614    -0.982212297222    12.000000000000
         C            2.280330591817    -1.304582518386    -0.586228297222    12.000000000000
         C            3.038325591817     0.738677481614     0.363039702778    12.000000000000
         C           -2.870729408183    -1.370452518386     1.118900702778    12.000000000000
         C           -3.821517408183    -0.306721518386    -0.832489297222    12.000000000000
         C           -3.927155408183    -1.224369518386     0.215501702778    12.000000000000
         C            4.746338591817    -1.093024518386    -0.006178297222    12.000000000000
         H            0.176395591817    -1.337753518386    -1.052121297222     1.007825032230
         H           -0.444267408183     2.510886481614     1.415874702778     1.007825032230
         H           -1.577141408183     2.858858481614     0.078647702778     1.007825032230
         H            0.175380591817     3.139582481614    -0.122018297222     1.007825032230
         H           -0.897777408183    -0.695158518386     1.693000702778     1.007825032230
         H           -2.555660408183     1.158967481614    -1.806148297222     1.007825032230
         H            2.458333591817    -2.311835518386    -0.961521297222     1.007825032230
         H            3.822610591817     1.382931481614     0.762682702778     1.007825032230
         H           -2.951256408183    -2.078861518386     1.940270702778     1.007825032230
         H           -4.637405408183    -0.194033518386    -1.542595297222     1.007825032230
         H            5.102326591817    -1.398156518386    -0.995500297222     1.007825032230
         H            5.438260591817    -0.340762518386     0.382926702778     1.007825032230
         H            4.799653591817    -1.969149518386     0.648386702778     1.007825032230
         H           -4.826139408183    -1.825624518386     0.325997702778     1.007825032230

  Basis Set: AUG-CC-PVTZ
    Blend: AUG-CC-PVTZ
  Basis Set: (AUG-CC-PVTZ AUX)
    Blend: AUG-CC-PVTZ-JKFIT
	 Reference Energy          =    -609.5043444507525692 [Eh]
	 Singles Energy            =      -0.0000000000000000 [Eh]
	 Same-Spin Energy          =      -0.6814587897854538 [Eh]
	 Opposite-Spin Energy      =      -2.1331858499781577 [Eh]
	 Correlation Energy        =      -2.8146446397636113 [Eh]
	 Total Energy              =    -612.3189890905161974 [Eh]

	 ================> DF-SCS-MP2 Energies <==================
	-----------------------------------------------------------
	 SCS Same-Spin Scale       =       0.3333333333333333 [-]
	 SCS Opposite-Spin Scale   =       1.2000000000000000 [-]
	 SCS Same-Spin Energy      =      -0.2271529299284846 [Eh]
	 SCS Opposite-Spin Energy  =      -2.5598230199737890 [Eh]
	 SCS Correlation Energy    =      -2.7869759499022737 [Eh]
	 SCS Total Energy          =    -612.2913204006548540 [Eh]
	-----------------------------------------------------------

  Dipole Moment: [D]
     X:    -0.4435      Y:    -1.4135      Z:    -0.2171     Total:     1.4973

*** Psi4 exiting successfully. Buy a developer a beer!
