                               Psi4 1.4a3.dev225

  ==> Input File <==

--------------------------------------------------------------------------
#psi4
#
memory 32 gb

molecule  {
0 1
  N       -0.4697210     1.1445100    -0.2216410
  N        1.7892250     1.2839290     0.3484630
  C       -1.6240620     0.3182020    -0.0704420
  C        0.7850350     0.5381570    -0.1399480
  C       -0.5952140     2.4946130     0.3294290
  C        0.9870780    -0.7701080    -0.6316150
  C        3.3308620    -0.5454650    -0.0717700
  C       -1.7358467    -0.6077310     1.0035568
  C       -2.6794440     0.4585720    -0.9790390
  C        2.2640650    -1.3032160    -0.5830550
  C        3.0220600     0.7400440     0.3662130
  C       -2.8869950    -1.3690860     1.1220740
  C       -3.8377830    -0.3053550    -0.8293160
  C       -3.9434210    -1.2230030     0.2186750
  C        4.7300730    -1.0916580    -0.0030050
  H        0.1601300    -1.3363870    -1.0489480
  H       -0.4605330     2.5122530     1.4190480
  H       -1.5934070     2.8602250     0.0818210
  H        0.1591150     3.1409490    -0.1188450
  H       -0.9140430    -0.6937920     1.6961740
  H       -2.5719260     1.1603340    -1.8029750
  H        2.4420680    -2.3104690    -0.9583480
  H        3.8063450     1.3842980     0.7658560
  H       -2.9675220    -2.0774950     1.9434440
  H       -4.6536710    -0.1926670    -1.5394220
  H        5.0860610    -1.3967900    -0.9923270
  H        5.4219950    -0.3393960     0.3861000
  H        4.7833880    -1.9677830     0.6515600
  H       -4.8424050    -1.8242580     0.3291710
units angstrom
no_reorient  #important for SAPT in psi4, default
symmetry c1  #important for SAPT in psi4, default
}

set PROPERTIES_ORIGIN ["COM"]
properties('MP2/aug-cc-pvtz', properties = ['dipole'])
--------------------------------------------------------------------------

    Molecular point group: c1
  Charge       = 0
  Multiplicity = 1
  Basis Set: AUG-CC-PVTZ
    Blend: AUG-CC-PVTZ
  Basis Set: (AUG-CC-PVTZ AUX)
    Blend: AUG-CC-PVTZ-JKFIT

    Orbital Energies [Eh]
    ---------------------

    Doubly Occupied:

       1A    -15.573171     2A    -15.549189     3A    -11.308738
       4A    -11.277433     5A    -11.265723     6A    -11.250395
       7A    -11.245276     8A    -11.241984     9A    -11.240993
      10A    -11.238045    11A    -11.237778    12A    -11.236572
      13A    -11.230554    14A    -11.229040    15A    -11.225285
      16A     -1.290128    17A     -1.217150    18A     -1.141791
      19A     -1.090070    20A     -1.038130    21A     -1.019855
      22A     -1.006993    23A     -0.949501    24A     -0.907706
      25A     -0.847128    26A     -0.839794    27A     -0.827961
      28A     -0.785470    29A     -0.724367    30A     -0.686254
      31A     -0.674566    32A     -0.647815    33A     -0.638874
      34A     -0.622915    35A     -0.608613    36A     -0.593998
      37A     -0.588395    38A     -0.584526    39A     -0.576817
      40A     -0.561740    41A     -0.543397    42A     -0.534409
      43A     -0.523532    44A     -0.515294    45A     -0.507076
      46A     -0.500690    47A     -0.497970    48A     -0.417875
      49A     -0.410421    50A     -0.373795    51A     -0.342730
      52A     -0.338705    53A     -0.286205

  @DF-RHF Final Energy:  -609.53305378872551

   => Energetics <=

    Nuclear Repulsion Energy =            919.2898585541061038
    One-Electron Energy =               -2650.4201587327393099
    Two-Electron Energy =                1121.5972463899076956
    Total Energy =                       -609.5330537887255105
  Basis Set: (AUG-CC-PVTZ AUX)
    Blend: AUG-CC-PVTZ-RI
    Molecular point group: c1

    Geometry (in Angstrom), charge = 0, multiplicity = 1:

       Center              X                  Y                   Z               Mass
    ------------   -----------------  -----------------  -----------------  -----------------
         N           -0.450337199960     1.139847238029    -0.218489592972    14.003074004430
         N            1.808608800040     1.279266238029     0.351614407028    14.003074004430
         C           -1.604678199960     0.313539238029    -0.067290592972    12.000000000000
         C            0.804418800040     0.533494238029    -0.136796592972    12.000000000000
         C           -0.575830199960     2.489950238029     0.332580407028    12.000000000000
         C            1.006461800040    -0.774770761971    -0.628463592972    12.000000000000
         C            3.350245800040    -0.550127761971    -0.068618592972    12.000000000000
         C           -1.716462899960    -0.612393761971     1.006708207028    12.000000000000
         C           -2.660060199960     0.453909238029    -0.975887592972    12.000000000000
         C            2.283448800040    -1.307878761971    -0.579903592972    12.000000000000
         C            3.041443800040     0.735381238029     0.369364407028    12.000000000000
         C           -2.867611199960    -1.373748761971     1.125225407028    12.000000000000
         C           -3.818399199960    -0.310017761971    -0.826164592972    12.000000000000
         C           -3.924037199960    -1.227665761971     0.221826407028    12.000000000000
         C            4.749456800040    -1.096320761971     0.000146407028    12.000000000000
         H            0.179513800040    -1.341049761971    -1.045796592972     1.007825032230
         H           -0.441149199960     2.507590238029     1.422199407028     1.007825032230
         H           -1.574023199960     2.855562238029     0.084972407028     1.007825032230
         H            0.178498800040     3.136286238029    -0.115693592972     1.007825032230
         H           -0.894659199960    -0.698454761971     1.699325407028     1.007825032230
         H           -2.552542199960     1.155671238029    -1.799823592972     1.007825032230
         H            2.461451800040    -2.315131761971    -0.955196592972     1.007825032230
         H            3.825728800040     1.379635238029     0.769007407028     1.007825032230
         H           -2.948138199960    -2.082157761971     1.946595407028     1.007825032230
         H           -4.634287199960    -0.197329761971    -1.536270592972     1.007825032230
         H            5.105444800040    -1.401452761971    -0.989175592972     1.007825032230
         H            5.441378800040    -0.344058761971     0.389251407028     1.007825032230
         H            4.802771800040    -1.972445761971     0.654711407028     1.007825032230
         H           -4.823021199960    -1.828920761971     0.332322407028     1.007825032230

  Basis Set: AUG-CC-PVTZ
    Blend: AUG-CC-PVTZ
  Basis Set: (AUG-CC-PVTZ AUX)
    Blend: AUG-CC-PVTZ-JKFIT
	 Reference Energy          =    -609.5330537887255105 [Eh]
	 Singles Energy            =      -0.0000000000000000 [Eh]
	 Same-Spin Energy          =      -0.6811365980040938 [Eh]
	 Opposite-Spin Energy      =      -2.1308402399961182 [Eh]
	 Correlation Energy        =      -2.8119768380002119 [Eh]
	 Total Energy              =    -612.3450306267257019 [Eh]

	 ================> DF-SCS-MP2 Energies <==================
	-----------------------------------------------------------
	 SCS Same-Spin Scale       =       0.3333333333333333 [-]
	 SCS Opposite-Spin Scale   =       1.2000000000000000 [-]
	 SCS Same-Spin Energy      =      -0.2270455326680312 [Eh]
	 SCS Opposite-Spin Energy  =      -2.5570082879953415 [Eh]
	 SCS Correlation Energy    =      -2.7840538206633729 [Eh]
	 SCS Total Energy          =    -612.3171076093889269 [Eh]
	-----------------------------------------------------------

  Dipole Moment: [D]
     X:    -0.4734      Y:    -1.4534      Z:    -0.1717     Total:     1.5381

*** Psi4 exiting successfully. Buy a developer a beer!
