                               Psi4 1.4a3.dev225

  ==> Input File <==

--------------------------------------------------------------------------
#psi4
#
memory 32 gb

molecule  {
0 1
  N       -0.4697210     1.1445100    -0.2216410
  N        1.7892250     1.2839290     0.3484630
  C       -1.6240620     0.3182020    -0.0704420
  C        0.7850350     0.5381570    -0.1399480
  C       -0.5952140     2.4946130     0.3294290
  C        0.9870780    -0.7701080    -0.6316150
  C        3.3308620    -0.5454650    -0.0717700
  C       -1.7342750    -0.5947120     0.9884560
  C       -2.6794440     0.4585720    -0.9790390
  C        2.2456201    -1.2955157    -0.5837564
  C        3.0220600     0.7400440     0.3662130
  C       -2.8869950    -1.3690860     1.1220740
  C       -3.8377830    -0.3053550    -0.8293160
  C       -3.9434210    -1.2230030     0.2186750
  C        4.7300730    -1.0916580    -0.0030050
  H        0.1601300    -1.3363870    -1.0489480
  H       -0.4605330     2.5122530     1.4190480
  H       -1.5934070     2.8602250     0.0818210
  H        0.1591150     3.1409490    -0.1188450
  H       -0.9140430    -0.6937920     1.6961740
  H       -2.5719260     1.1603340    -1.8029750
  H        2.4420680    -2.3104690    -0.9583480
  H        3.8063450     1.3842980     0.7658560
  H       -2.9675220    -2.0774950     1.9434440
  H       -4.6536710    -0.1926670    -1.5394220
  H        5.0860610    -1.3967900    -0.9923270
  H        5.4219950    -0.3393960     0.3861000
  H        4.7833880    -1.9677830     0.6515600
  H       -4.8424050    -1.8242580     0.3291710
units angstrom
no_reorient  #important for SAPT in psi4, default
symmetry c1  #important for SAPT in psi4, default
}

set PROPERTIES_ORIGIN ["COM"]
properties('MP2/aug-cc-pvtz', properties = ['dipole'])
--------------------------------------------------------------------------

    Molecular point group: c1
  Charge       = 0
  Multiplicity = 1
  Basis Set: AUG-CC-PVTZ
    Blend: AUG-CC-PVTZ
  Basis Set: (AUG-CC-PVTZ AUX)
    Blend: AUG-CC-PVTZ-JKFIT

    Orbital Energies [Eh]
    ---------------------

    Doubly Occupied:

       1A    -15.573455     2A    -15.548129     3A    -11.309210
       4A    -11.275706     5A    -11.264370     6A    -11.249679
       7A    -11.245380     8A    -11.242338     9A    -11.242109
      10A    -11.238399    11A    -11.238052    12A    -11.237158
      13A    -11.230560    14A    -11.227375    15A    -11.225321
      16A     -1.290494    17A     -1.217434    18A     -1.142525
      19A     -1.089773    20A     -1.039943    21A     -1.019062
      22A     -1.009121    23A     -0.949855    24A     -0.907515
      25A     -0.844928    26A     -0.839636    27A     -0.829497
      28A     -0.785728    29A     -0.724568    30A     -0.685743
      31A     -0.675046    32A     -0.648572    33A     -0.638984
      34A     -0.622582    35A     -0.609011    36A     -0.593876
      37A     -0.588160    38A     -0.583487    39A     -0.576314
      40A     -0.561210    41A     -0.543028    42A     -0.533829
      43A     -0.523745    44A     -0.514745    45A     -0.508179
      46A     -0.500376    47A     -0.499175    48A     -0.417843
      49A     -0.409406    50A     -0.375854    51A     -0.342926
      52A     -0.339183    53A     -0.286509

  @DF-RHF Final Energy:  -609.53357383623893

   => Energetics <=

    Nuclear Repulsion Energy =            919.8539081577429215
    One-Electron Energy =               -2651.5447577408217512
    Two-Electron Energy =                1122.1572757468400141
    Total Energy =                       -609.5335738362389293
  Basis Set: (AUG-CC-PVTZ AUX)
    Blend: AUG-CC-PVTZ-RI
    Molecular point group: c1

    Geometry (in Angstrom), charge = 0, multiplicity = 1:

       Center              X                  Y                   Z               Mass
    ------------   -----------------  -----------------  -----------------  -----------------
         N           -0.449315178982     1.138592256209    -0.217532443178    14.003074004430
         N            1.809630821018     1.278011256209     0.352571556822    14.003074004430
         C           -1.603656178982     0.312284256209    -0.066333443178    12.000000000000
         C            0.805440821018     0.532239256209    -0.135839443178    12.000000000000
         C           -0.574808178982     2.488695256209     0.333537556822    12.000000000000
         C            1.007483821018    -0.776025743791    -0.627506443178    12.000000000000
         C            3.351267821018    -0.551382743791    -0.067661443178    12.000000000000
         C           -1.713869178982    -0.600629743791     0.992564556822    12.000000000000
         C           -2.659038178982     0.452654256209    -0.974930443178    12.000000000000
         C            2.266025921018    -1.301433443791    -0.579647843178    12.000000000000
         C            3.042465821018     0.734126256209     0.370321556822    12.000000000000
         C           -2.866589178982    -1.375003743791     1.126182556822    12.000000000000
         C           -3.817377178982    -0.311272743791    -0.825207443178    12.000000000000
         C           -3.923015178982    -1.228920743791     0.222783556822    12.000000000000
         C            4.750478821018    -1.097575743791     0.001103556822    12.000000000000
         H            0.180535821018    -1.342304743791    -1.044839443178     1.007825032230
         H           -0.440127178982     2.506335256209     1.423156556822     1.007825032230
         H           -1.573001178982     2.854307256209     0.085929556822     1.007825032230
         H            0.179520821018     3.135031256209    -0.114736443178     1.007825032230
         H           -0.893637178982    -0.699709743791     1.700282556822     1.007825032230
         H           -2.551520178982     1.154416256209    -1.798866443178     1.007825032230
         H            2.462473821018    -2.316386743791    -0.954239443178     1.007825032230
         H            3.826750821018     1.378380256209     0.769964556822     1.007825032230
         H           -2.947116178982    -2.083412743791     1.947552556822     1.007825032230
         H           -4.633265178982    -0.198584743791    -1.535313443178     1.007825032230
         H            5.106466821018    -1.402707743791    -0.988218443178     1.007825032230
         H            5.442400821018    -0.345313743791     0.390208556822     1.007825032230
         H            4.803793821018    -1.973700743791     0.655668556822     1.007825032230
         H           -4.821999178982    -1.830175743791     0.333279556822     1.007825032230

  Basis Set: AUG-CC-PVTZ
    Blend: AUG-CC-PVTZ
  Basis Set: (AUG-CC-PVTZ AUX)
    Blend: AUG-CC-PVTZ-JKFIT
	 Reference Energy          =    -609.5335738362389293 [Eh]
	 Singles Energy            =      -0.0000000000000000 [Eh]
	 Same-Spin Energy          =      -0.6809783619724081 [Eh]
	 Opposite-Spin Energy      =      -2.1305842213177324 [Eh]
	 Correlation Energy        =      -2.8115625832901405 [Eh]
	 Total Energy              =    -612.3451364195291262 [Eh]

	 ================> DF-SCS-MP2 Energies <==================
	-----------------------------------------------------------
	 SCS Same-Spin Scale       =       0.3333333333333333 [-]
	 SCS Opposite-Spin Scale   =       1.2000000000000000 [-]
	 SCS Same-Spin Energy      =      -0.2269927873241360 [Eh]
	 SCS Opposite-Spin Energy  =      -2.5567010655812790 [Eh]
	 SCS Correlation Energy    =      -2.7836938529054152 [Eh]
	 SCS Total Energy          =    -612.3172676891443871 [Eh]
	-----------------------------------------------------------

  Dipole Moment: [D]
     X:    -0.5173      Y:    -1.4622      Z:    -0.1677     Total:     1.5600

*** Psi4 exiting successfully. Buy a developer a beer!
