                               Psi4 1.4a3.dev225

  ==> Input File <==

--------------------------------------------------------------------------
#psi4
#
memory 32 gb

molecule  {
0 1
  N       -0.4697210     1.1445100    -0.2216410
  N        1.7892250     1.2839290     0.3484630
  C       -1.4623486     0.4339608    -0.0916237
  C        0.7850350     0.5381570    -0.1399480
  C       -0.5952140     2.4946130     0.3294290
  C        0.9870780    -0.7701080    -0.6316150
  C        3.3308620    -0.5454650    -0.0717700
  C       -1.7342750    -0.5947120     0.9884560
  C       -2.6794440     0.4585720    -0.9790390
  C        2.2640650    -1.3032160    -0.5830550
  C        3.0220600     0.7400440     0.3662130
  C       -2.8869950    -1.3690860     1.1220740
  C       -3.8377830    -0.3053550    -0.8293160
  C       -3.9434210    -1.2230030     0.2186750
  C        4.7300730    -1.0916580    -0.0030050
  H        0.1601300    -1.3363870    -1.0489480
  H       -0.4605330     2.5122530     1.4190480
  H       -1.5934070     2.8602250     0.0818210
  H        0.1591150     3.1409490    -0.1188450
  H       -0.9140430    -0.6937920     1.6961740
  H       -2.5719260     1.1603340    -1.8029750
  H        2.4420680    -2.3104690    -0.9583480
  H        3.8063450     1.3842980     0.7658560
  H       -2.9675220    -2.0774950     1.9434440
  H       -4.6536710    -0.1926670    -1.5394220
  H        5.0860610    -1.3967900    -0.9923270
  H        5.4219950    -0.3393960     0.3861000
  H        4.7833880    -1.9677830     0.6515600
  H       -4.8424050    -1.8242580     0.3291710
units angstrom
no_reorient  #important for SAPT in psi4, default
symmetry c1  #important for SAPT in psi4, default
}

set PROPERTIES_ORIGIN ["COM"]
properties('MP2/aug-cc-pvtz', properties = ['dipole'])
--------------------------------------------------------------------------

    Molecular point group: c1
  Charge       = 0
  Multiplicity = 1
  Basis Set: AUG-CC-PVTZ
    Blend: AUG-CC-PVTZ
  Basis Set: (AUG-CC-PVTZ AUX)
    Blend: AUG-CC-PVTZ-JKFIT

    Orbital Energies [Eh]
    ---------------------

    Doubly Occupied:

       1A    -15.579433     2A    -15.559117     3A    -11.317987
       4A    -11.284024     5A    -11.271916     6A    -11.257355
       7A    -11.256056     8A    -11.238689     9A    -11.237029
      10A    -11.236777    11A    -11.235446    12A    -11.234318
      13A    -11.233927    14A    -11.230203    15A    -11.229464
      16A     -1.342498    17A     -1.242490    18A     -1.120793
      19A     -1.097641    20A     -1.048087    21A     -1.001790
      22A     -0.997375    23A     -0.960875    24A     -0.924947
      25A     -0.856132    26A     -0.852439    27A     -0.814064
      28A     -0.782390    29A     -0.736834    30A     -0.689995
      31A     -0.678331    32A     -0.663171    33A     -0.646547
      34A     -0.628338    35A     -0.612688    36A     -0.597351
      37A     -0.585787    38A     -0.581627    39A     -0.572827
      40A     -0.568380    41A     -0.549017    42A     -0.543857
      43A     -0.531971    44A     -0.518704    45A     -0.513377
      46A     -0.492506    47A     -0.476424    48A     -0.421255
      49A     -0.405555    50A     -0.379275    51A     -0.333340
      52A     -0.327708    53A     -0.277426

  @DF-RHF Final Energy:  -609.46932916215337

   => Energetics <=

    Nuclear Repulsion Energy =            920.8952608115214389
    One-Electron Energy =               -2653.1780693972191330
    Two-Electron Energy =                1122.8134794235443223
    Total Energy =                       -609.4693291621533717
  Basis Set: (AUG-CC-PVTZ AUX)
    Blend: AUG-CC-PVTZ-RI
    Molecular point group: c1

    Geometry (in Angstrom), charge = 0, multiplicity = 1:

       Center              X                  Y                   Z               Mass
    ------------   -----------------  -----------------  -----------------  -----------------
         N           -0.460227487379     1.132047080788    -0.216291937746    14.003074004430
         N            1.798718512621     1.271466080788     0.353812062254    14.003074004430
         C           -1.452855087379     0.421497880788    -0.086274637746    12.000000000000
         C            0.794528512621     0.525694080788    -0.134598937746    12.000000000000
         C           -0.585720487379     2.482150080788     0.334778062254    12.000000000000
         C            0.996571512621    -0.782570919212    -0.626265937746    12.000000000000
         C            3.340355512621    -0.557927919212    -0.066420937746    12.000000000000
         C           -1.724781487379    -0.607174919212     0.993805062254    12.000000000000
         C           -2.669950487379     0.446109080788    -0.973689937746    12.000000000000
         C            2.273558512621    -1.315678919212    -0.577705937746    12.000000000000
         C            3.031553512621     0.727581080788     0.371562062254    12.000000000000
         C           -2.877501487379    -1.381548919212     1.127423062254    12.000000000000
         C           -3.828289487379    -0.317817919212    -0.823966937746    12.000000000000
         C           -3.933927487379    -1.235465919212     0.224024062254    12.000000000000
         C            4.739566512621    -1.104120919212     0.002344062254    12.000000000000
         H            0.169623512621    -1.348849919212    -1.043598937746     1.007825032230
         H           -0.451039487379     2.499790080788     1.424397062254     1.007825032230
         H           -1.583913487379     2.847762080788     0.087170062254     1.007825032230
         H            0.168608512621     3.128486080788    -0.113495937746     1.007825032230
         H           -0.904549487379    -0.706254919212     1.701523062254     1.007825032230
         H           -2.562432487379     1.147871080788    -1.797625937746     1.007825032230
         H            2.451561512621    -2.322931919212    -0.952998937746     1.007825032230
         H            3.815838512621     1.371835080788     0.771205062254     1.007825032230
         H           -2.958028487379    -2.089957919212     1.948793062254     1.007825032230
         H           -4.644177487379    -0.205129919212    -1.534072937746     1.007825032230
         H            5.095554512621    -1.409252919212    -0.986977937746     1.007825032230
         H            5.431488512621    -0.351858919212     0.391449062254     1.007825032230
         H            4.792881512621    -1.980245919212     0.656909062254     1.007825032230
         H           -4.832911487379    -1.836720919212     0.334520062254     1.007825032230

  Basis Set: AUG-CC-PVTZ
    Blend: AUG-CC-PVTZ
  Basis Set: (AUG-CC-PVTZ AUX)
    Blend: AUG-CC-PVTZ-JKFIT
	 Reference Energy          =    -609.4693291621533717 [Eh]
	 Singles Energy            =      -0.0000000000000000 [Eh]
	 Same-Spin Energy          =      -0.6857554154635692 [Eh]
	 Opposite-Spin Energy      =      -2.1372212603092393 [Eh]
	 Correlation Energy        =      -2.8229766757728085 [Eh]
	 Total Energy              =    -612.2923058379261647 [Eh]

	 ================> DF-SCS-MP2 Energies <==================
	-----------------------------------------------------------
	 SCS Same-Spin Scale       =       0.3333333333333333 [-]
	 SCS Opposite-Spin Scale   =       1.2000000000000000 [-]
	 SCS Same-Spin Energy      =      -0.2285851384878564 [Eh]
	 SCS Opposite-Spin Energy  =      -2.5646655123710871 [Eh]
	 SCS Correlation Energy    =      -2.7932506508589436 [Eh]
	 SCS Total Energy          =    -612.2625798130122803 [Eh]
	-----------------------------------------------------------

  Dipole Moment: [D]
     X:     0.8286      Y:    -1.0075      Z:    -0.2159     Total:     1.3222

*** Psi4 exiting successfully. Buy a developer a beer!
