                               Psi4 1.4a3.dev225

  ==> Input File <==

--------------------------------------------------------------------------
#psi4
#
memory 32 gb

molecule  {
0 1
  N       -0.4697210     1.1445100    -0.2216410
  N        1.7892250     1.2839290     0.3484630
  C       -1.6240620     0.3182020    -0.0704420
  C        0.7850350     0.5381570    -0.1399480
  C       -0.5952140     2.4946130     0.3294290
  C        0.9870780    -0.7701080    -0.6316150
  C        3.3668502    -0.4715717    -0.1370330
  C       -1.7342750    -0.5947120     0.9884560
  C       -2.6794440     0.4585720    -0.9790390
  C        2.2640650    -1.3032160    -0.5830550
  C        3.0220600     0.7400440     0.3662130
  C       -2.8869950    -1.3690860     1.1220740
  C       -3.8377830    -0.3053550    -0.8293160
  C       -3.9434210    -1.2230030     0.2186750
  C        4.7300730    -1.0916580    -0.0030050
  H        0.1601300    -1.3363870    -1.0489480
  H       -0.4605330     2.5122530     1.4190480
  H       -1.5934070     2.8602250     0.0818210
  H        0.1591150     3.1409490    -0.1188450
  H       -0.9140430    -0.6937920     1.6961740
  H       -2.5719260     1.1603340    -1.8029750
  H        2.4420680    -2.3104690    -0.9583480
  H        3.8063450     1.3842980     0.7658560
  H       -2.9675220    -2.0774950     1.9434440
  H       -4.6536710    -0.1926670    -1.5394220
  H        5.0860610    -1.3967900    -0.9923270
  H        5.4219950    -0.3393960     0.3861000
  H        4.7833880    -1.9677830     0.6515600
  H       -4.8424050    -1.8242580     0.3291710
units angstrom
no_reorient  #important for SAPT in psi4, default
symmetry c1  #important for SAPT in psi4, default
}

set PROPERTIES_ORIGIN ["COM"]
properties('MP2/aug-cc-pvtz', properties = ['dipole'])
--------------------------------------------------------------------------

    Molecular point group: c1
  Charge       = 0
  Multiplicity = 1
  Basis Set: AUG-CC-PVTZ
    Blend: AUG-CC-PVTZ
  Basis Set: (AUG-CC-PVTZ AUX)
    Blend: AUG-CC-PVTZ-JKFIT

    Orbital Energies [Eh]
    ---------------------

    Doubly Occupied:

       1A    -15.574475     2A    -15.546152     3A    -11.310499
       4A    -11.276190     5A    -11.258894     6A    -11.255824
       7A    -11.245635     8A    -11.242746     9A    -11.242512
      10A    -11.238841    11A    -11.238523    12A    -11.237627
      13A    -11.230656    14A    -11.229642    15A    -11.224709
      16A     -1.290677    17A     -1.217478    18A     -1.143011
      19A     -1.085127    20A     -1.040914    21A     -1.019477
      22A     -1.009471    23A     -0.948965    24A     -0.910416
      25A     -0.844551    26A     -0.838531    27A     -0.830934
      28A     -0.786230    29A     -0.724968    30A     -0.685912
      31A     -0.673133    32A     -0.648938    33A     -0.638382
      34A     -0.622727    35A     -0.610187    36A     -0.594321
      37A     -0.589143    38A     -0.583945    39A     -0.576830
      40A     -0.563746    41A     -0.545291    42A     -0.534844
      43A     -0.522842    44A     -0.512614    45A     -0.503957
      46A     -0.500460    47A     -0.494055    48A     -0.420174
      49A     -0.409661    50A     -0.370525    51A     -0.343259
      52A     -0.340196    53A     -0.290144

  @DF-RHF Final Energy:  -609.52857655623370

   => Energetics <=

    Nuclear Repulsion Energy =            919.3798072120347342
    One-Electron Energy =               -2650.5788476516631818
    Two-Electron Energy =                1121.6704638833946319
    Total Energy =                       -609.5285765562337019
  Basis Set: (AUG-CC-PVTZ AUX)
    Blend: AUG-CC-PVTZ-RI
    Molecular point group: c1

    Geometry (in Angstrom), charge = 0, multiplicity = 1:

       Center              X                  Y                   Z               Mass
    ------------   -----------------  -----------------  -----------------  -----------------
         N           -0.452612228156     1.134582902047    -0.213621904003    14.003074004430
         N            1.806333771844     1.274001902047     0.356482095997    14.003074004430
         C           -1.606953228156     0.308274902047    -0.062422904003    12.000000000000
         C            0.802143771844     0.528229902047    -0.131928904003    12.000000000000
         C           -0.578105228156     2.484685902047     0.337448095997    12.000000000000
         C            1.004186771844    -0.780035097953    -0.623595904003    12.000000000000
         C            3.383958971844    -0.481498797953    -0.129013904003    12.000000000000
         C           -1.717166228156    -0.604639097953     0.996475095997    12.000000000000
         C           -2.662335228156     0.448644902047    -0.971019904003    12.000000000000
         C            2.281173771844    -1.313143097953    -0.575035904003    12.000000000000
         C            3.039168771844     0.730116902047     0.374232095997    12.000000000000
         C           -2.869886228156    -1.379013097953     1.130093095997    12.000000000000
         C           -3.820674228156    -0.315282097953    -0.821296904003    12.000000000000
         C           -3.926312228156    -1.232930097953     0.226694095997    12.000000000000
         C            4.747181771844    -1.101585097953     0.005014095997    12.000000000000
         H            0.177238771844    -1.346314097953    -1.040928904003     1.007825032230
         H           -0.443424228156     2.502325902047     1.427067095997     1.007825032230
         H           -1.576298228156     2.850297902047     0.089840095997     1.007825032230
         H            0.176223771844     3.131021902047    -0.110825904003     1.007825032230
         H           -0.896934228156    -0.703719097953     1.704193095997     1.007825032230
         H           -2.554817228156     1.150406902047    -1.794955904003     1.007825032230
         H            2.459176771844    -2.320396097953    -0.950328904003     1.007825032230
         H            3.823453771844     1.374370902047     0.773875095997     1.007825032230
         H           -2.950413228156    -2.087422097953     1.951463095997     1.007825032230
         H           -4.636562228156    -0.202594097953    -1.531402904003     1.007825032230
         H            5.103169771844    -1.406717097953    -0.984307904003     1.007825032230
         H            5.439103771844    -0.349323097953     0.394119095997     1.007825032230
         H            4.800496771844    -1.977710097953     0.659579095997     1.007825032230
         H           -4.825296228156    -1.834185097953     0.337190095997     1.007825032230

  Basis Set: AUG-CC-PVTZ
    Blend: AUG-CC-PVTZ
  Basis Set: (AUG-CC-PVTZ AUX)
    Blend: AUG-CC-PVTZ-JKFIT
	 Reference Energy          =    -609.5285765562337019 [Eh]
	 Singles Energy            =      -0.0000000000000000 [Eh]
	 Same-Spin Energy          =      -0.6806826716451181 [Eh]
	 Opposite-Spin Energy      =      -2.1307595897188567 [Eh]
	 Correlation Energy        =      -2.8114422613639749 [Eh]
	 Total Energy              =    -612.3400188175976382 [Eh]

	 ================> DF-SCS-MP2 Energies <==================
	-----------------------------------------------------------
	 SCS Same-Spin Scale       =       0.3333333333333333 [-]
	 SCS Opposite-Spin Scale   =       1.2000000000000000 [-]
	 SCS Same-Spin Energy      =      -0.2268942238817060 [Eh]
	 SCS Opposite-Spin Energy  =      -2.5569115076626279 [Eh]
	 SCS Correlation Energy    =      -2.7838057315443341 [Eh]
	 SCS Total Energy          =    -612.3123822877780640 [Eh]
	-----------------------------------------------------------

  Dipole Moment: [D]
     X:    -0.6255      Y:    -1.5016      Z:    -0.1599     Total:     1.6345

*** Psi4 exiting successfully. Buy a developer a beer!
