                               Psi4 1.4a3.dev225

  ==> Input File <==

--------------------------------------------------------------------------
#psi4
#
memory 32 gb

molecule  {
0 1
  N       -0.4697210     1.1445100    -0.2216410
  N        1.7892250     1.2839290     0.3484630
  C       -1.6240620     0.3182020    -0.0704420
  C        0.7850350     0.5381570    -0.1399480
  C       -0.5952140     2.4946130     0.3294290
  C        0.9870780    -0.7701080    -0.6316150
  C        3.3308620    -0.5454650    -0.0717700
  C       -1.7342750    -0.5947120     0.9884560
  C       -2.6794440     0.4585720    -0.9790390
  C        2.2640650    -1.3032160    -0.5830550
  C        3.0220600     0.7400440     0.3662130
  C       -2.8869950    -1.3690860     1.1220740
  C       -3.8377830    -0.3053550    -0.8293160
  C       -3.9434210    -1.2230030     0.2186750
  C        4.7300730    -1.0916580    -0.0030050
  H        0.0077914    -1.4407057    -1.1258282
  H       -0.4605330     2.5122530     1.4190480
  H       -1.5934070     2.8602250     0.0818210
  H        0.1591150     3.1409490    -0.1188450
  H       -0.9140430    -0.6937920     1.6961740
  H       -2.5719260     1.1603340    -1.8029750
  H        2.4420680    -2.3104690    -0.9583480
  H        3.8063450     1.3842980     0.7658560
  H       -2.9675220    -2.0774950     1.9434440
  H       -4.6536710    -0.1926670    -1.5394220
  H        5.0860610    -1.3967900    -0.9923270
  H        5.4219950    -0.3393960     0.3861000
  H        4.7833880    -1.9677830     0.6515600
  H       -4.8424050    -1.8242580     0.3291710
units angstrom
no_reorient  #important for SAPT in psi4, default
symmetry c1  #important for SAPT in psi4, default
}

set PROPERTIES_ORIGIN ["COM"]
properties('MP2/aug-cc-pvtz', properties = ['dipole'])
--------------------------------------------------------------------------

    Molecular point group: c1
  Charge       = 0
  Multiplicity = 1
  Basis Set: AUG-CC-PVTZ
    Blend: AUG-CC-PVTZ
  Basis Set: (AUG-CC-PVTZ AUX)
    Blend: AUG-CC-PVTZ-JKFIT

    Orbital Energies [Eh]
    ---------------------

    Doubly Occupied:

       1A    -15.572942     2A    -15.550832     3A    -11.310866
       4A    -11.274909     5A    -11.266556     6A    -11.252268
       7A    -11.249155     8A    -11.245298     9A    -11.241575
      10A    -11.241393    11A    -11.237629    12A    -11.237061
      13A    -11.236269    14A    -11.231858    15A    -11.226056
      16A     -1.290705    17A     -1.218273    18A     -1.141944
      19A     -1.090134    20A     -1.035044    21A     -1.018137
      22A     -1.008325    23A     -0.950142    24A     -0.907879
      25A     -0.842144    26A     -0.837093    27A     -0.828770
      28A     -0.784511    29A     -0.723578    30A     -0.684823
      31A     -0.675191    32A     -0.648042    33A     -0.634760
      34A     -0.610971    35A     -0.595582    36A     -0.590969
      37A     -0.587717    38A     -0.583682    39A     -0.577232
      40A     -0.560970    41A     -0.542769    42A     -0.534528
      43A     -0.524374    44A     -0.511328    45A     -0.506383
      46A     -0.499699    47A     -0.493019    48A     -0.418422
      49A     -0.409670    50A     -0.374929    51A     -0.341976
      52A     -0.338530    53A     -0.287102

  @DF-RHF Final Energy:  -609.51067156318447

   => Energetics <=

    Nuclear Repulsion Energy =            918.7663023748469868
    One-Electron Energy =               -2649.3859274361852840
    Two-Electron Energy =                1121.1089534981538236
    Total Energy =                       -609.5106715631845873
  Basis Set: (AUG-CC-PVTZ AUX)
    Blend: AUG-CC-PVTZ-RI
    Molecular point group: c1

    Geometry (in Angstrom), charge = 0, multiplicity = 1:

       Center              X                  Y                   Z               Mass
    ------------   -----------------  -----------------  -----------------  -----------------
         N           -0.449657444365     1.139589343258    -0.217183833802    14.003074004430
         N            1.809288555635     1.279008343258     0.352920166198    14.003074004430
         C           -1.603998444365     0.313281343258    -0.065984833802    12.000000000000
         C            0.805098555635     0.533236343258    -0.135490833802    12.000000000000
         C           -0.575150444365     2.489692343258     0.333886166198    12.000000000000
         C            1.007141555635    -0.775028656742    -0.627157833802    12.000000000000
         C            3.350925555635    -0.550385656742    -0.067312833802    12.000000000000
         C           -1.714211444365    -0.599632656742     0.992913166198    12.000000000000
         C           -2.659380444365     0.453651343258    -0.974581833802    12.000000000000
         C            2.284128555635    -1.308136656742    -0.578597833802    12.000000000000
         C            3.042123555635     0.735123343258     0.370670166198    12.000000000000
         C           -2.866931444365    -1.374006656742     1.126531166198    12.000000000000
         C           -3.817719444365    -0.310275656742    -0.824858833802    12.000000000000
         C           -3.923357444365    -1.227923656742     0.223132166198    12.000000000000
         C            4.750136555635    -1.096578656742     0.001452166198    12.000000000000
         H            0.027854955635    -1.445626356742    -1.121371033802     1.007825032230
         H           -0.440469444365     2.507332343258     1.423505166198     1.007825032230
         H           -1.573343444365     2.855304343258     0.086278166198     1.007825032230
         H            0.179178555635     3.136028343258    -0.114387833802     1.007825032230
         H           -0.893979444365    -0.698712656742     1.700631166198     1.007825032230
         H           -2.551862444365     1.155413343258    -1.798517833802     1.007825032230
         H            2.462131555635    -2.315389656742    -0.953890833802     1.007825032230
         H            3.826408555635     1.379377343258     0.770313166198     1.007825032230
         H           -2.947458444365    -2.082415656742     1.947901166198     1.007825032230
         H           -4.633607444365    -0.197587656742    -1.534964833802     1.007825032230
         H            5.106124555635    -1.401710656742    -0.987869833802     1.007825032230
         H            5.442058555635    -0.344316656742     0.390557166198     1.007825032230
         H            4.803451555635    -1.972703656742     0.656017166198     1.007825032230
         H           -4.822341444365    -1.829178656742     0.333628166198     1.007825032230

  Basis Set: AUG-CC-PVTZ
    Blend: AUG-CC-PVTZ
  Basis Set: (AUG-CC-PVTZ AUX)
    Blend: AUG-CC-PVTZ-JKFIT
	 Reference Energy          =    -609.5106715631844736 [Eh]
	 Singles Energy            =      -0.0000000000000000 [Eh]
	 Same-Spin Energy          =      -0.6820478049869221 [Eh]
	 Opposite-Spin Energy      =      -2.1334442462255447 [Eh]
	 Correlation Energy        =      -2.8154920512124670 [Eh]
	 Total Energy              =    -612.3261636143969326 [Eh]

	 ================> DF-SCS-MP2 Energies <==================
	-----------------------------------------------------------
	 SCS Same-Spin Scale       =       0.3333333333333333 [-]
	 SCS Opposite-Spin Scale   =       1.2000000000000000 [-]
	 SCS Same-Spin Energy      =      -0.2273492683289740 [Eh]
	 SCS Opposite-Spin Energy  =      -2.5601330954706536 [Eh]
	 SCS Correlation Energy    =      -2.7874823637996275 [Eh]
	 SCS Total Energy          =    -612.2981539269841278 [Eh]
	-----------------------------------------------------------

  Dipole Moment: [D]
     X:    -0.4282      Y:    -1.4310      Z:    -0.1406     Total:     1.5003

*** Psi4 exiting successfully. Buy a developer a beer!
