                               Psi4 1.4a3.dev225

  ==> Input File <==

--------------------------------------------------------------------------
#psi4
#
memory 32 gb

molecule  {
0 1
  N       -0.4697210     1.1445100    -0.2216410
  N        1.7892250     1.2839290     0.3484630
  C       -1.6240620     0.3182020    -0.0704420
  C        0.7850350     0.5381570    -0.1399480
  C       -0.5952140     2.4946130     0.3294290
  C        0.9870780    -0.7701080    -0.6316150
  C        3.3308620    -0.5454650    -0.0717700
  C       -1.7342750    -0.5947120     0.9884560
  C       -2.6794440     0.4585720    -0.9790390
  C        2.2640650    -1.3032160    -0.5830550
  C        3.0220600     0.7400440     0.3662130
  C       -2.8869950    -1.3690860     1.1220740
  C       -3.8377830    -0.3053550    -0.8293160
  C       -3.9434210    -1.2230030     0.2186750
  C        4.7300730    -1.0916580    -0.0030050
  H        0.1601300    -1.3363870    -1.0489480
  H       -0.4605330     2.5122530     1.4190480
  H       -1.5934070     2.8602250     0.0818210
  H        0.1591150     3.1409490    -0.1188450
  H       -0.9140430    -0.6937920     1.6961740
  H       -2.5719260     1.1603340    -1.8029750
  H        2.4420680    -2.3104690    -0.9583480
  H        3.8063450     1.3842980     0.7658560
  H       -2.9675220    -2.0774950     1.9434440
  H       -4.6536710    -0.1926670    -1.5394220
  H        5.1185772    -1.4246610    -1.0826924
  H        5.4219950    -0.3393960     0.3861000
  H        4.7833880    -1.9677830     0.6515600
  H       -4.8424050    -1.8242580     0.3291710
units angstrom
no_reorient  #important for SAPT in psi4, default
symmetry c1  #important for SAPT in psi4, default
}

set PROPERTIES_ORIGIN ["COM"]
properties('MP2/aug-cc-pvtz', properties = ['dipole'])
--------------------------------------------------------------------------

    Molecular point group: c1
  Charge       = 0
  Multiplicity = 1
  Basis Set: AUG-CC-PVTZ
    Blend: AUG-CC-PVTZ
  Basis Set: (AUG-CC-PVTZ AUX)
    Blend: AUG-CC-PVTZ-JKFIT

    Orbital Energies [Eh]
    ---------------------

    Doubly Occupied:

       1A    -15.573264     2A    -15.549446     3A    -11.309199
       4A    -11.275633     5A    -11.266382     6A    -11.250675
       7A    -11.245482     8A    -11.242257     9A    -11.242029
      10A    -11.238322    11A    -11.237964    12A    -11.237080
      13A    -11.236991    14A    -11.231202    15A    -11.229285
      16A     -1.290618    17A     -1.217868    18A     -1.142515
      19A     -1.089679    20A     -1.037702    21A     -1.018888
      22A     -1.008793    23A     -0.946265    24A     -0.905583
      25A     -0.847299    26A     -0.838681    27A     -0.828964
      28A     -0.785474    29A     -0.724866    30A     -0.685613
      31A     -0.674691    32A     -0.648504    33A     -0.638013
      34A     -0.623117    35A     -0.609668    36A     -0.594100
      37A     -0.588470    38A     -0.583980    39A     -0.569131
      40A     -0.561705    41A     -0.537535    42A     -0.533717
      43A     -0.520275    44A     -0.514708    45A     -0.508328
      46A     -0.500202    47A     -0.499092    48A     -0.418118
      49A     -0.410442    50A     -0.373872    51A     -0.343009
      52A     -0.339174    53A     -0.286737

  @DF-RHF Final Energy:  -609.52735710577781

   => Energetics <=

    Nuclear Repulsion Energy =            919.1839778179444238
    One-Electron Energy =               -2650.2014568553458957
    Two-Electron Energy =                1121.4901219316236620
    Total Energy =                       -609.5273571057778099
  Basis Set: (AUG-CC-PVTZ AUX)
    Blend: AUG-CC-PVTZ-RI
    Molecular point group: c1

    Geometry (in Angstrom), charge = 0, multiplicity = 1:

       Center              X                  Y                   Z               Mass
    ------------   -----------------  -----------------  -----------------  -----------------
         N           -0.450597810506     1.139200449766    -0.217115233876    14.003074004430
         N            1.808348189494     1.278619449766     0.352988766124    14.003074004430
         C           -1.604938810506     0.312892449766    -0.065916233876    12.000000000000
         C            0.804158189494     0.532847449766    -0.135422233876    12.000000000000
         C           -0.576090810506     2.489303449766     0.333954766124    12.000000000000
         C            1.006201189494    -0.775417550234    -0.627089233876    12.000000000000
         C            3.349985189494    -0.550774550234    -0.067244233876    12.000000000000
         C           -1.715151810506    -0.600021550234     0.992981766124    12.000000000000
         C           -2.660320810506     0.453262449766    -0.974513233876    12.000000000000
         C            2.283188189494    -1.308525550234    -0.578529233876    12.000000000000
         C            3.041183189494     0.734734449766     0.370738766124    12.000000000000
         C           -2.867871810506    -1.374395550234     1.126599766124    12.000000000000
         C           -3.818659810506    -0.310664550234    -0.824790233876    12.000000000000
         C           -3.924297810506    -1.228312550234     0.223200766124    12.000000000000
         C            4.749196189494    -1.096967550234     0.001520766124    12.000000000000
         H            0.179253189494    -1.341696550234    -1.044422233876     1.007825032230
         H           -0.441409810506     2.506943449766     1.423573766124     1.007825032230
         H           -1.574283810506     2.854915449766     0.086346766124     1.007825032230
         H            0.178238189494     3.135639449766    -0.114319233876     1.007825032230
         H           -0.894919810506    -0.699101550234     1.700699766124     1.007825032230
         H           -2.552802810506     1.155024449766    -1.798449233876     1.007825032230
         H            2.461191189494    -2.315778550234    -0.953822233876     1.007825032230
         H            3.825468189494     1.378988449766     0.770381766124     1.007825032230
         H           -2.948398810506    -2.082804550234     1.947969766124     1.007825032230
         H           -4.634547810506    -0.197976550234    -1.534896233876     1.007825032230
         H            5.137700389494    -1.429970550234    -1.078166633876     1.007825032230
         H            5.441118189494    -0.344705550234     0.390625766124     1.007825032230
         H            4.802511189494    -1.973092550234     0.656085766124     1.007825032230
         H           -4.823281810506    -1.829567550234     0.333696766124     1.007825032230

  Basis Set: AUG-CC-PVTZ
    Blend: AUG-CC-PVTZ
  Basis Set: (AUG-CC-PVTZ AUX)
    Blend: AUG-CC-PVTZ-JKFIT
	 Reference Energy          =    -609.5273571057778099 [Eh]
	 Singles Energy            =      -0.0000000000000000 [Eh]
	 Same-Spin Energy          =      -0.6810934861296278 [Eh]
	 Opposite-Spin Energy      =      -2.1313839738468161 [Eh]
	 Correlation Energy        =      -2.8124774599764439 [Eh]
	 Total Energy              =    -612.3398345657542450 [Eh]

	 ================> DF-SCS-MP2 Energies <==================
	-----------------------------------------------------------
	 SCS Same-Spin Scale       =       0.3333333333333333 [-]
	 SCS Opposite-Spin Scale   =       1.2000000000000000 [-]
	 SCS Same-Spin Energy      =      -0.2270311620432093 [Eh]
	 SCS Opposite-Spin Energy  =      -2.5576607686161794 [Eh]
	 SCS Correlation Energy    =      -2.7846919306593887 [Eh]
	 SCS Total Energy          =    -612.3120490364372017 [Eh]
	-----------------------------------------------------------

  Dipole Moment: [D]
     X:    -0.5583      Y:    -1.4335      Z:    -0.1262     Total:     1.5436

*** Psi4 exiting successfully. Buy a developer a beer!
