                               Psi4 1.4a3.dev225

  ==> Input File <==

--------------------------------------------------------------------------
#psi4
#
memory 32 gb

molecule  {
0 1
  N       -0.4697210     1.1445100    -0.2216410
  N        1.7892250     1.2839290     0.3484630
  C       -1.6240620     0.3182020    -0.0704420
  C        0.7850350     0.5381570    -0.1399480
  C       -0.5952140     2.4946130     0.3294290
  C        0.9870780    -0.7701080    -0.6316150
  C        3.3308620    -0.5454650    -0.0717700
  C       -1.7342750    -0.5947120     0.9884560
  C       -2.6794440     0.4585720    -0.9790390
  C        2.2640650    -1.3032160    -0.5830550
  C        3.0220600     0.7400440     0.3662130
  C       -2.8869950    -1.3690860     1.1220740
  C       -3.8377830    -0.3053550    -0.8293160
  C       -3.9434210    -1.2230030     0.2186750
  C        4.7300730    -1.0916580    -0.0030050
  H        0.1601300    -1.3363870    -1.0489480
  H       -0.4605330     2.5122530     1.4190480
  H       -1.5476812     2.8434768     0.0931636
  H        0.1591150     3.1409490    -0.1188450
  H       -0.9140430    -0.6937920     1.6961740
  H       -2.5719260     1.1603340    -1.8029750
  H        2.4420680    -2.3104690    -0.9583480
  H        3.8063450     1.3842980     0.7658560
  H       -2.9675220    -2.0774950     1.9434440
  H       -4.6536710    -0.1926670    -1.5394220
  H        5.0860610    -1.3967900    -0.9923270
  H        5.4219950    -0.3393960     0.3861000
  H        4.7833880    -1.9677830     0.6515600
  H       -4.8424050    -1.8242580     0.3291710
units angstrom
no_reorient  #important for SAPT in psi4, default
symmetry c1  #important for SAPT in psi4, default
}

set PROPERTIES_ORIGIN ["COM"]
properties('MP2/aug-cc-pvtz', properties = ['dipole'])
--------------------------------------------------------------------------

    Molecular point group: c1
  Charge       = 0
  Multiplicity = 1
  Basis Set: AUG-CC-PVTZ
    Blend: AUG-CC-PVTZ
  Basis Set: (AUG-CC-PVTZ AUX)
    Blend: AUG-CC-PVTZ-JKFIT

    Orbital Energies [Eh]
    ---------------------

    Doubly Occupied:

       1A    -15.572360     2A    -15.548705     3A    -11.308237
       4A    -11.275383     5A    -11.265358     6A    -11.250065
       7A    -11.242121     8A    -11.241907     9A    -11.239062
      10A    -11.238192    11A    -11.237775    12A    -11.236951
      13A    -11.230186    14A    -11.228689    15A    -11.225039
      16A     -1.289965    17A     -1.217338    18A     -1.142355
      19A     -1.089731    20A     -1.038062    21A     -1.018757
      22A     -1.009312    23A     -0.951562    24A     -0.909092
      25A     -0.847641    26A     -0.839199    27A     -0.829239
      28A     -0.785918    29A     -0.724787    30A     -0.685407
      31A     -0.674705    32A     -0.648169    33A     -0.638482
      34A     -0.622705    35A     -0.610384    36A     -0.594673
      37A     -0.587899    38A     -0.584797    39A     -0.576844
      40A     -0.561777    41A     -0.543952    42A     -0.539195
      43A     -0.523437    44A     -0.514546    45A     -0.507840
      46A     -0.500073    47A     -0.498925    48A     -0.417918
      49A     -0.410046    50A     -0.373419    51A     -0.342862
      52A     -0.339106    53A     -0.286390

  @DF-RHF Final Energy:  -609.53283429274063

   => Energetics <=

    Nuclear Repulsion Energy =            919.8478127090535281
    One-Electron Energy =               -2651.5282157197048036
    Two-Electron Energy =                1122.1475687179108718
    Total Energy =                       -609.5328342927405174
  Basis Set: (AUG-CC-PVTZ AUX)
    Blend: AUG-CC-PVTZ-RI
    Molecular point group: c1

    Geometry (in Angstrom), charge = 0, multiplicity = 1:

       Center              X                  Y                   Z               Mass
    ------------   -----------------  -----------------  -----------------  -----------------
         N           -0.450665008439     1.139143867495    -0.217632627849    14.003074004430
         N            1.808280991561     1.278562867495     0.352471372151    14.003074004430
         C           -1.605006008439     0.312835867495    -0.066433627849    12.000000000000
         C            0.804090991561     0.532790867495    -0.135939627849    12.000000000000
         C           -0.576158008439     2.489246867495     0.333437372151    12.000000000000
         C            1.006133991561    -0.775474132505    -0.627606627849    12.000000000000
         C            3.349917991561    -0.550831132505    -0.067761627849    12.000000000000
         C           -1.715219008439    -0.600078132505     0.992464372151    12.000000000000
         C           -2.660388008439     0.453205867495    -0.975030627849    12.000000000000
         C            2.283120991561    -1.308582132505    -0.579046627849    12.000000000000
         C            3.041115991561     0.734677867495     0.370221372151    12.000000000000
         C           -2.867939008439    -1.374452132505     1.126082372151    12.000000000000
         C           -3.818727008439    -0.310721132505    -0.825307627849    12.000000000000
         C           -3.924365008439    -1.228369132505     0.222683372151    12.000000000000
         C            4.749128991561    -1.097024132505     0.001003372151    12.000000000000
         H            0.179185991561    -1.341753132505    -1.044939627849     1.007825032230
         H           -0.441477008439     2.506886867495     1.423056372151     1.007825032230
         H           -1.528625208439     2.838110667495     0.097171972151     1.007825032230
         H            0.178170991561     3.135582867495    -0.114836627849     1.007825032230
         H           -0.894987008439    -0.699158132505     1.700182372151     1.007825032230
         H           -2.552870008439     1.154967867495    -1.798966627849     1.007825032230
         H            2.461123991561    -2.315835132505    -0.954339627849     1.007825032230
         H            3.825400991561     1.378931867495     0.769864372151     1.007825032230
         H           -2.948466008439    -2.082861132505     1.947452372151     1.007825032230
         H           -4.634615008439    -0.198033132505    -1.535413627849     1.007825032230
         H            5.105116991561    -1.402156132505    -0.988318627849     1.007825032230
         H            5.441050991561    -0.344762132505     0.390108372151     1.007825032230
         H            4.802443991561    -1.973149132505     0.655568372151     1.007825032230
         H           -4.823349008439    -1.829624132505     0.333179372151     1.007825032230

  Basis Set: AUG-CC-PVTZ
    Blend: AUG-CC-PVTZ
  Basis Set: (AUG-CC-PVTZ AUX)
    Blend: AUG-CC-PVTZ-JKFIT
	 Reference Energy          =    -609.5328342927406311 [Eh]
	 Singles Energy            =      -0.0000000000000000 [Eh]
	 Same-Spin Energy          =      -0.6810811226269999 [Eh]
	 Opposite-Spin Energy      =      -2.1303764587249665 [Eh]
	 Correlation Energy        =      -2.8114575813519664 [Eh]
	 Total Energy              =    -612.3442918740926189 [Eh]

	 ================> DF-SCS-MP2 Energies <==================
	-----------------------------------------------------------
	 SCS Same-Spin Scale       =       0.3333333333333333 [-]
	 SCS Opposite-Spin Scale   =       1.2000000000000000 [-]
	 SCS Same-Spin Energy      =      -0.2270270408756666 [Eh]
	 SCS Opposite-Spin Energy  =      -2.5564517504699595 [Eh]
	 SCS Correlation Energy    =      -2.7834787913456260 [Eh]
	 SCS Total Energy          =    -612.3163130840862323 [Eh]
	-----------------------------------------------------------

  Dipole Moment: [D]
     X:    -0.5187      Y:    -1.4488      Z:    -0.1677     Total:     1.5479

*** Psi4 exiting successfully. Buy a developer a beer!
