                               Psi4 1.4a3.dev225

  ==> Input File <==

--------------------------------------------------------------------------
#psi4
#
memory 32 gb

molecule  {
0 1
  N       -0.4697210     1.1445100    -0.2216410
  N        1.7892250     1.2839290     0.3484630
  C       -1.6240620     0.3182020    -0.0704420
  C        0.7850350     0.5381570    -0.1399480
  C       -0.5952140     2.4946130     0.3294290
  C        0.9870780    -0.7701080    -0.6316150
  C        3.3308620    -0.5454650    -0.0717700
  C       -1.7342750    -0.5947120     0.9884560
  C       -2.6794440     0.4585720    -0.9790390
  C        2.2640650    -1.3032160    -0.5830550
  C        3.0220600     0.7400440     0.3662130
  C       -2.8869950    -1.3690860     1.1220740
  C       -3.8377830    -0.3053550    -0.8293160
  C       -3.9358591    -1.1573145     0.1436561
  C        4.7300730    -1.0916580    -0.0030050
  H        0.1601300    -1.3363870    -1.0489480
  H       -0.4605330     2.5122530     1.4190480
  H       -1.5934070     2.8602250     0.0818210
  H        0.1591150     3.1409490    -0.1188450
  H       -0.9140430    -0.6937920     1.6961740
  H       -2.5719260     1.1603340    -1.8029750
  H        2.4420680    -2.3104690    -0.9583480
  H        3.8063450     1.3842980     0.7658560
  H       -2.9675220    -2.0774950     1.9434440
  H       -4.6536710    -0.1926670    -1.5394220
  H        5.0860610    -1.3967900    -0.9923270
  H        5.4219950    -0.3393960     0.3861000
  H        4.7833880    -1.9677830     0.6515600
  H       -4.8424050    -1.8242580     0.3291710
units angstrom
no_reorient  #important for SAPT in psi4, default
symmetry c1  #important for SAPT in psi4, default
}

set PROPERTIES_ORIGIN ["COM"]
properties('MP2/aug-cc-pvtz', properties = ['dipole'])
--------------------------------------------------------------------------

    Molecular point group: c1
  Charge       = 0
  Multiplicity = 1
  Basis Set: AUG-CC-PVTZ
    Blend: AUG-CC-PVTZ
  Basis Set: (AUG-CC-PVTZ AUX)
    Blend: AUG-CC-PVTZ-JKFIT

    Orbital Energies [Eh]
    ---------------------

    Doubly Occupied:

       1A    -15.572462     2A    -15.548988     3A    -11.308503
       4A    -11.274270     5A    -11.265681     6A    -11.250387
       7A    -11.246686     8A    -11.244758     9A    -11.238301
      10A    -11.236627    11A    -11.236298    12A    -11.230441
      13A    -11.228957    14A    -11.228577    15A    -11.225229
      16A     -1.290008    17A     -1.217531    18A     -1.149091
      19A     -1.090192    20A     -1.037901    21A     -1.027717
      22A     -1.004552    23A     -0.949355    24A     -0.907366
      25A     -0.847033    26A     -0.836832    27A     -0.832168
      28A     -0.784310    29A     -0.725547    30A     -0.681279
      31A     -0.673503    32A     -0.648461    33A     -0.638111
      34A     -0.623276    35A     -0.612580    36A     -0.598136
      37A     -0.586262    38A     -0.583591    39A     -0.576653
      40A     -0.559261    41A     -0.542956    42A     -0.532160
      43A     -0.523500    44A     -0.517777    45A     -0.509968
      46A     -0.504723    47A     -0.483773    48A     -0.418523
      49A     -0.410324    50A     -0.373794    51A     -0.354784
      52A     -0.331542    53A     -0.287217

  @DF-RHF Final Energy:  -609.52032781975367

   => Energetics <=

    Nuclear Repulsion Energy =            920.6788256810907569
    One-Electron Energy =               -2653.1824564333951457
    Two-Electron Energy =                1122.9833029325507141
    Total Energy =                       -609.5203278197536747
  Basis Set: (AUG-CC-PVTZ AUX)
    Blend: AUG-CC-PVTZ-RI
    Molecular point group: c1

    Geometry (in Angstrom), charge = 0, multiplicity = 1:

       Center              X                  Y                   Z               Mass
    ------------   -----------------  -----------------  -----------------  -----------------
         N           -0.450890428204     1.135079872256    -0.213030982633    14.003074004430
         N            1.808055571796     1.274498872256     0.357073017367    14.003074004430
         C           -1.605231428204     0.308771872256    -0.061831982633    12.000000000000
         C            0.803865571796     0.528726872256    -0.131337982633    12.000000000000
         C           -0.576383428204     2.485182872256     0.338039017367    12.000000000000
         C            1.005908571796    -0.779538127744    -0.623004982633    12.000000000000
         C            3.349692571796    -0.554895127744    -0.063159982633    12.000000000000
         C           -1.715444428204    -0.604142127744     0.997066017367    12.000000000000
         C           -2.660613428204     0.449141872256    -0.970428982633    12.000000000000
         C            2.282895571796    -1.312646127744    -0.574444982633    12.000000000000
         C            3.040890571796     0.730613872256     0.374823017367    12.000000000000
         C           -2.868164428204    -1.378516127744     1.130684017367    12.000000000000
         C           -3.818952428204    -0.314785127744    -0.820705982633    12.000000000000
         C           -3.917028528204    -1.166744627744     0.152266117367    12.000000000000
         C            4.748903571796    -1.101088127744     0.005605017367    12.000000000000
         H            0.178960571796    -1.345817127744    -1.040337982633     1.007825032230
         H           -0.441702428204     2.502822872256     1.427658017367     1.007825032230
         H           -1.574576428204     2.850794872256     0.090431017367     1.007825032230
         H            0.177945571796     3.131518872256    -0.110234982633     1.007825032230
         H           -0.895212428204    -0.703222127744     1.704784017367     1.007825032230
         H           -2.553095428204     1.150903872256    -1.794364982633     1.007825032230
         H            2.460898571796    -2.319899127744    -0.949737982633     1.007825032230
         H            3.825175571796     1.374867872256     0.774466017367     1.007825032230
         H           -2.948691428204    -2.086925127744     1.952054017367     1.007825032230
         H           -4.634840428204    -0.202097127744    -1.530811982633     1.007825032230
         H            5.104891571796    -1.406220127744    -0.983716982633     1.007825032230
         H            5.440825571796    -0.348826127744     0.394710017367     1.007825032230
         H            4.802218571796    -1.977213127744     0.660170017367     1.007825032230
         H           -4.823574428204    -1.833688127744     0.337781017367     1.007825032230

  Basis Set: AUG-CC-PVTZ
    Blend: AUG-CC-PVTZ
  Basis Set: (AUG-CC-PVTZ AUX)
    Blend: AUG-CC-PVTZ-JKFIT
	 Reference Energy          =    -609.5203278197536747 [Eh]
	 Singles Energy            =      -0.0000000000000000 [Eh]
	 Same-Spin Energy          =      -0.6809894859263332 [Eh]
	 Opposite-Spin Energy      =      -2.1310053488766054 [Eh]
	 Correlation Energy        =      -2.8119948348029387 [Eh]
	 Total Energy              =    -612.3323226545566058 [Eh]

	 ================> DF-SCS-MP2 Energies <==================
	-----------------------------------------------------------
	 SCS Same-Spin Scale       =       0.3333333333333333 [-]
	 SCS Opposite-Spin Scale   =       1.2000000000000000 [-]
	 SCS Same-Spin Energy      =      -0.2269964953087777 [Eh]
	 SCS Opposite-Spin Energy  =      -2.5572064186519263 [Eh]
	 SCS Correlation Energy    =      -2.7842029139607041 [Eh]
	 SCS Total Energy          =    -612.3045307337143868 [Eh]
	-----------------------------------------------------------

  Dipole Moment: [D]
     X:    -0.4667      Y:    -1.4617      Z:    -0.1484     Total:     1.5415

*** Psi4 exiting successfully. Buy a developer a beer!
