                               Psi4 1.4a3.dev225

  ==> Input File <==

--------------------------------------------------------------------------
#psi4
#
memory 32 gb

molecule  {
0 1
  N       -0.4697210     1.1445100    -0.2216410
  N        1.7892250     1.2839290     0.3484630
  C       -1.6240620     0.3182020    -0.0704420
  C        0.7850350     0.5381570    -0.1399480
  C       -0.5952140     2.4946130     0.3294290
  C        0.9584627    -0.5848186    -0.5619803
  C        3.3308620    -0.5454650    -0.0717700
  C       -1.7342750    -0.5947120     0.9884560
  C       -2.6794440     0.4585720    -0.9790390
  C        2.2640650    -1.3032160    -0.5830550
  C        3.0220600     0.7400440     0.3662130
  C       -2.8869950    -1.3690860     1.1220740
  C       -3.8377830    -0.3053550    -0.8293160
  C       -3.9434210    -1.2230030     0.2186750
  C        4.7300730    -1.0916580    -0.0030050
  H        0.1601300    -1.3363870    -1.0489480
  H       -0.4605330     2.5122530     1.4190480
  H       -1.5934070     2.8602250     0.0818210
  H        0.1591150     3.1409490    -0.1188450
  H       -0.9140430    -0.6937920     1.6961740
  H       -2.5719260     1.1603340    -1.8029750
  H        2.4420680    -2.3104690    -0.9583480
  H        3.8063450     1.3842980     0.7658560
  H       -2.9675220    -2.0774950     1.9434440
  H       -4.6536710    -0.1926670    -1.5394220
  H        5.0860610    -1.3967900    -0.9923270
  H        5.4219950    -0.3393960     0.3861000
  H        4.7833880    -1.9677830     0.6515600
  H       -4.8424050    -1.8242580     0.3291710
units angstrom
no_reorient  #important for SAPT in psi4, default
symmetry c1  #important for SAPT in psi4, default
}

set PROPERTIES_ORIGIN ["COM"]
properties('MP2/aug-cc-pvtz', properties = ['dipole'])
--------------------------------------------------------------------------

    Molecular point group: c1
  Charge       = 0
  Multiplicity = 1
  Basis Set: AUG-CC-PVTZ
    Blend: AUG-CC-PVTZ
  Basis Set: (AUG-CC-PVTZ AUX)
    Blend: AUG-CC-PVTZ-JKFIT

    Orbital Energies [Eh]
    ---------------------

    Doubly Occupied:

       1A    -15.559439     2A    -15.554165     3A    -11.274260
       4A    -11.273881     5A    -11.269653     6A    -11.265356
       7A    -11.239883     8A    -11.239181     9A    -11.237703
      10A    -11.237375    11A    -11.233218    12A    -11.232397
      13A    -11.231252    14A    -11.230032    15A    -11.220474
      16A     -1.296107    17A     -1.218216    18A     -1.137801
      19A     -1.087082    20A     -1.058106    21A     -1.014030
      22A     -1.004046    23A     -0.950572    24A     -0.906658
      25A     -0.866284    26A     -0.832879    27A     -0.823578
      28A     -0.782586    29A     -0.723374    30A     -0.682758
      31A     -0.680133    32A     -0.644861    33A     -0.633511
      34A     -0.618182    35A     -0.602853    36A     -0.592641
      37A     -0.587063    38A     -0.584110    39A     -0.578388
      40A     -0.560509    41A     -0.548305    42A     -0.537122
      43A     -0.533329    44A     -0.507045    45A     -0.498450
      46A     -0.495319    47A     -0.475817    48A     -0.419691
      49A     -0.414715    50A     -0.361497    51A     -0.342757
      52A     -0.336239    53A     -0.296697

  @DF-RHF Final Energy:  -609.47151714460847

   => Energetics <=

    Nuclear Repulsion Energy =            923.0578684494352046
    One-Electron Energy =               -2657.9956206628039581
    Two-Electron Energy =                1125.4662350687601702
    Total Energy =                       -609.4715171446084696
  Basis Set: (AUG-CC-PVTZ AUX)
    Blend: AUG-CC-PVTZ-RI
    Molecular point group: c1

    Geometry (in Angstrom), charge = 0, multiplicity = 1:

       Center              X                  Y                   Z               Mass
    ------------   -----------------  -----------------  -----------------  -----------------
         N           -0.448699151070     1.127835565969    -0.221792747669    14.003074004430
         N            1.810246848930     1.267254565969     0.348311252331    14.003074004430
         C           -1.603040151070     0.301527565969    -0.070593747669    12.000000000000
         C            0.806056848930     0.521482565969    -0.140099747669    12.000000000000
         C           -0.574192151070     2.477938565969     0.329277252331    12.000000000000
         C            0.979484548930    -0.601493034031    -0.562132047669    12.000000000000
         C            3.351883848930    -0.562139434031    -0.071921747669    12.000000000000
         C           -1.713253151070    -0.611386434031     0.988304252331    12.000000000000
         C           -2.658422151070     0.441897565969    -0.979190747669    12.000000000000
         C            2.285086848930    -1.319890434031    -0.583206747669    12.000000000000
         C            3.043081848930     0.723369565969     0.366061252331    12.000000000000
         C           -2.865973151070    -1.385760434031     1.121922252331    12.000000000000
         C           -3.816761151070    -0.322029434031    -0.829467747669    12.000000000000
         C           -3.922399151070    -1.239677434031     0.218523252331    12.000000000000
         C            4.751094848930    -1.108332434031    -0.003156747669    12.000000000000
         H            0.181151848930    -1.353061434031    -1.049099747669     1.007825032230
         H           -0.439511151070     2.495578565969     1.418896252331     1.007825032230
         H           -1.572385151070     2.843550565969     0.081669252331     1.007825032230
         H            0.180136848930     3.124274565969    -0.118996747669     1.007825032230
         H           -0.893021151070    -0.710466434031     1.696022252331     1.007825032230
         H           -2.550904151070     1.143659565969    -1.803126747669     1.007825032230
         H            2.463089848930    -2.327143434031    -0.958499747669     1.007825032230
         H            3.827366848930     1.367623565969     0.765704252331     1.007825032230
         H           -2.946500151070    -2.094169434031     1.943292252331     1.007825032230
         H           -4.632649151070    -0.209341434031    -1.539573747669     1.007825032230
         H            5.107082848930    -1.413464434031    -0.992478747669     1.007825032230
         H            5.443016848930    -0.356070434031     0.385948252331     1.007825032230
         H            4.804409848930    -1.984457434031     0.651408252331     1.007825032230
         H           -4.821383151070    -1.840932434031     0.329019252331     1.007825032230

  Basis Set: AUG-CC-PVTZ
    Blend: AUG-CC-PVTZ
  Basis Set: (AUG-CC-PVTZ AUX)
    Blend: AUG-CC-PVTZ-JKFIT
	 Reference Energy          =    -609.4715171446084696 [Eh]
	 Singles Energy            =      -0.0000000000000000 [Eh]
	 Same-Spin Energy          =      -0.6823094135964182 [Eh]
	 Opposite-Spin Energy      =      -2.1333562754999029 [Eh]
	 Correlation Energy        =      -2.8156656890963210 [Eh]
	 Total Energy              =    -612.2871828337048328 [Eh]

	 ================> DF-SCS-MP2 Energies <==================
	-----------------------------------------------------------
	 SCS Same-Spin Scale       =       0.3333333333333333 [-]
	 SCS Opposite-Spin Scale   =       1.2000000000000000 [-]
	 SCS Same-Spin Energy      =      -0.2274364711988061 [Eh]
	 SCS Opposite-Spin Energy  =      -2.5600275305998834 [Eh]
	 SCS Correlation Energy    =      -2.7874640017986896 [Eh]
	 SCS Total Energy          =    -612.2589811464071090 [Eh]
	-----------------------------------------------------------

  Dipole Moment: [D]
     X:     0.2524      Y:    -1.6290      Z:    -0.1602     Total:     1.6562

*** Psi4 exiting successfully. Buy a developer a beer!
