                               Psi4 1.4a3.dev225

  ==> Input File <==

--------------------------------------------------------------------------
#psi4
#
memory 32 gb

molecule  {
0 1
  N       -0.4697210     1.1445100    -0.2216410
  N        1.7892250     1.2839290     0.3484630
  C       -1.6240620     0.3182020    -0.0704420
  C        0.7850350     0.5381570    -0.1399480
  C       -0.5952140     2.4946130     0.3294290
  C        0.9870780    -0.7701080    -0.6316150
  C        3.3308620    -0.5454650    -0.0717700
  C       -1.7342750    -0.5947120     0.9884560
  C       -2.6794440     0.4585720    -0.9790390
  C        2.2640650    -1.3032160    -0.5830550
  C        3.0220600     0.7400440     0.3662130
  C       -2.8869950    -1.3690860     1.1220740
  C       -3.8377830    -0.3053550    -0.8293160
  C       -3.9434210    -1.2230030     0.2186750
  C        4.7300730    -1.0916580    -0.0030050
  H        0.1601300    -1.3363870    -1.0489480
  H       -0.4605330     2.5122530     1.4190480
  H       -1.5934070     2.8602250     0.0818210
  H        0.1591150     3.1409490    -0.1188450
  H       -0.9140430    -0.6937920     1.6961740
  H       -2.5719260     1.1603340    -1.8029750
  H        2.4420680    -2.3104690    -0.9583480
  H        3.8063450     1.3842980     0.7658560
  H       -2.9675220    -2.0774950     1.9434440
  H       -4.6536710    -0.1926670    -1.5394220
  H        5.0925642    -1.4023642    -1.0104001
  H        5.4219950    -0.3393960     0.3861000
  H        4.7833880    -1.9677830     0.6515600
  H       -4.8424050    -1.8242580     0.3291710
units angstrom
no_reorient  #important for SAPT in psi4, default
symmetry c1  #important for SAPT in psi4, default
}

set PROPERTIES_ORIGIN ["COM"]
properties('MP2/aug-cc-pvtz', properties = ['dipole'])
--------------------------------------------------------------------------

    Molecular point group: c1
  Charge       = 0
  Multiplicity = 1
  Basis Set: AUG-CC-PVTZ
    Blend: AUG-CC-PVTZ
  Basis Set: (AUG-CC-PVTZ AUX)
    Blend: AUG-CC-PVTZ-JKFIT

    Orbital Energies [Eh]
    ---------------------

    Doubly Occupied:

       1A    -15.572906     2A    -15.549088     3A    -11.308715
       4A    -11.275420     5A    -11.265721     6A    -11.250336
       7A    -11.245240     8A    -11.242083     9A    -11.241858
      10A    -11.238145    11A    -11.237760    12A    -11.236888
      13A    -11.230563    14A    -11.228979    15A    -11.227579
      16A     -1.290257    17A     -1.217497    18A     -1.142314
      19A     -1.089844    20A     -1.037884    21A     -1.018721
      22A     -1.008794    23A     -0.948618    24A     -0.907080
      25A     -0.847045    26A     -0.839083    27A     -0.829170
      28A     -0.785541    29A     -0.724623    30A     -0.685473
      31A     -0.674415    32A     -0.648302    33A     -0.638187
      34A     -0.622774    35A     -0.609618    36A     -0.593881
      37A     -0.588144    38A     -0.583783    39A     -0.574744
      40A     -0.561637    41A     -0.542133    42A     -0.534216
      43A     -0.523031    44A     -0.514665    45A     -0.507940
      46A     -0.500065    47A     -0.498848    48A     -0.418073
      49A     -0.410362    50A     -0.373683    51A     -0.342873
      52A     -0.339007    53A     -0.286556

  @DF-RHF Final Energy:  -609.53322668915848

   => Energetics <=

    Nuclear Repulsion Energy =            919.5176696749769008
    One-Electron Energy =               -2650.8814720425566520
    Two-Electron Energy =                1121.8305756784213827
    Total Energy =                       -609.5332266891584823
  Basis Set: (AUG-CC-PVTZ AUX)
    Blend: AUG-CC-PVTZ-RI
    Molecular point group: c1

    Geometry (in Angstrom), charge = 0, multiplicity = 1:

       Center              X                  Y                   Z               Mass
    ------------   -----------------  -----------------  -----------------  -----------------
         N           -0.450465481000     1.139087024766    -0.217482988628    14.003074004430
         N            1.808480519000     1.278506024766     0.352621011372    14.003074004430
         C           -1.604806481000     0.312779024766    -0.066283988628    12.000000000000
         C            0.804290519000     0.532734024766    -0.135789988628    12.000000000000
         C           -0.575958481000     2.489190024766     0.333587011372    12.000000000000
         C            1.006333519000    -0.775530975234    -0.627456988628    12.000000000000
         C            3.350117519000    -0.550887975234    -0.067611988628    12.000000000000
         C           -1.715019481000    -0.600134975234     0.992614011372    12.000000000000
         C           -2.660188481000     0.453149024766    -0.974880988628    12.000000000000
         C            2.283320519000    -1.308638975234    -0.578896988628    12.000000000000
         C            3.041315519000     0.734621024766     0.370371011372    12.000000000000
         C           -2.867739481000    -1.374508975234     1.126232011372    12.000000000000
         C           -3.818527481000    -0.310777975234    -0.825157988628    12.000000000000
         C           -3.924165481000    -1.228425975234     0.222833011372    12.000000000000
         C            4.749328519000    -1.097080975234     0.001153011372    12.000000000000
         H            0.179385519000    -1.341809975234    -1.044789988628     1.007825032230
         H           -0.441277481000     2.506830024766     1.423206011372     1.007825032230
         H           -1.574151481000     2.854802024766     0.085979011372     1.007825032230
         H            0.178370519000     3.135526024766    -0.114686988628     1.007825032230
         H           -0.894787481000    -0.699214975234     1.700332011372     1.007825032230
         H           -2.552670481000     1.154911024766    -1.798816988628     1.007825032230
         H            2.461323519000    -2.315891975234    -0.954189988628     1.007825032230
         H            3.825600519000     1.378875024766     0.770014011372     1.007825032230
         H           -2.948266481000    -2.082917975234     1.947602011372     1.007825032230
         H           -4.634415481000    -0.198089975234    -1.535263988628     1.007825032230
         H            5.111819719000    -1.407787175234    -1.006242088628     1.007825032230
         H            5.441250519000    -0.344818975234     0.390258011372     1.007825032230
         H            4.802643519000    -1.973205975234     0.655718011372     1.007825032230
         H           -4.823149481000    -1.829680975234     0.333329011372     1.007825032230

  Basis Set: AUG-CC-PVTZ
    Blend: AUG-CC-PVTZ
  Basis Set: (AUG-CC-PVTZ AUX)
    Blend: AUG-CC-PVTZ-JKFIT
	 Reference Energy          =    -609.5332266891584823 [Eh]
	 Singles Energy            =      -0.0000000000000000 [Eh]
	 Same-Spin Energy          =      -0.6811265219524668 [Eh]
	 Opposite-Spin Energy      =      -2.1308615449223640 [Eh]
	 Correlation Energy        =      -2.8119880668748309 [Eh]
	 Total Energy              =    -612.3452147560333287 [Eh]

	 ================> DF-SCS-MP2 Energies <==================
	-----------------------------------------------------------
	 SCS Same-Spin Scale       =       0.3333333333333333 [-]
	 SCS Opposite-Spin Scale   =       1.2000000000000000 [-]
	 SCS Same-Spin Energy      =      -0.2270421739841556 [Eh]
	 SCS Opposite-Spin Energy  =      -2.5570338539068369 [Eh]
	 SCS Correlation Energy    =      -2.7840760278909924 [Eh]
	 SCS Total Energy          =    -612.3173027170495288 [Eh]
	-----------------------------------------------------------

  Dipole Moment: [D]
     X:    -0.5047      Y:    -1.4580      Z:    -0.1595     Total:     1.5511

*** Psi4 exiting successfully. Buy a developer a beer!
