                               Psi4 1.4a3.dev225

  ==> Input File <==

--------------------------------------------------------------------------
#psi4
#
memory 32 gb

molecule  {
0 1
  N       -0.4697210     1.1445100    -0.2216410
  N        1.7892250     1.2839290     0.3484630
  C       -1.6240620     0.3182020    -0.0704420
  C        0.7850350     0.5381570    -0.1399480
  C       -0.5952140     2.4946130     0.3294290
  C        0.9870780    -0.7701080    -0.6316150
  C        3.3308620    -0.5454650    -0.0717700
  C       -1.7342750    -0.5947120     0.9884560
  C       -2.6794440     0.4585720    -0.9790390
  C        2.2640650    -1.3032160    -0.5830550
  C        3.0220600     0.7400440     0.3662130
  C       -2.8869950    -1.3690860     1.1220740
  C       -3.8377830    -0.3053550    -0.8293160
  C       -3.9419086    -1.2098653     0.2036712
  C        4.7300730    -1.0916580    -0.0030050
  H        0.1601300    -1.3363870    -1.0489480
  H       -0.4605330     2.5122530     1.4190480
  H       -1.5934070     2.8602250     0.0818210
  H        0.1591150     3.1409490    -0.1188450
  H       -0.9140430    -0.6937920     1.6961740
  H       -2.5719260     1.1603340    -1.8029750
  H        2.4420680    -2.3104690    -0.9583480
  H        3.8063450     1.3842980     0.7658560
  H       -2.9675220    -2.0774950     1.9434440
  H       -4.6536710    -0.1926670    -1.5394220
  H        5.0860610    -1.3967900    -0.9923270
  H        5.4219950    -0.3393960     0.3861000
  H        4.7833880    -1.9677830     0.6515600
  H       -4.8424050    -1.8242580     0.3291710
units angstrom
no_reorient  #important for SAPT in psi4, default
symmetry c1  #important for SAPT in psi4, default
}

set PROPERTIES_ORIGIN ["COM"]
properties('MP2/aug-cc-pvtz', properties = ['dipole'])
--------------------------------------------------------------------------

    Molecular point group: c1
  Charge       = 0
  Multiplicity = 1
  Basis Set: AUG-CC-PVTZ
    Blend: AUG-CC-PVTZ
  Basis Set: (AUG-CC-PVTZ AUX)
    Blend: AUG-CC-PVTZ-JKFIT

    Orbital Energies [Eh]
    ---------------------

    Doubly Occupied:

       1A    -15.572742     2A    -15.549001     3A    -11.308585
       4A    -11.275120     5A    -11.265596     6A    -11.250287
       7A    -11.245093     8A    -11.242933     9A    -11.239713
      10A    -11.237880    11A    -11.237677    12A    -11.236690
      13A    -11.230395    14A    -11.228915    15A    -11.225187
      16A     -1.290136    17A     -1.217423    18A     -1.143349
      19A     -1.089972    20A     -1.037884    21A     -1.019847
      22A     -1.008475    23A     -0.949375    24A     -0.907415
      25A     -0.847002    26A     -0.838213    27A     -0.830443
      28A     -0.785364    29A     -0.724748    30A     -0.684505
      31A     -0.674209    32A     -0.648045    33A     -0.638364
      34A     -0.622815    35A     -0.610058    36A     -0.594735
      37A     -0.587726    38A     -0.583809    39A     -0.576665
      40A     -0.561087    41A     -0.543186    42A     -0.533719
      43A     -0.523370    44A     -0.513970    45A     -0.508952
      46A     -0.500764    47A     -0.497576    48A     -0.418123
      49A     -0.410334    50A     -0.373660    51A     -0.344980
      52A     -0.337412    53A     -0.286674

  @DF-RHF Final Energy:  -609.53331461861126

   => Energetics <=

    Nuclear Repulsion Energy =            919.8093119582731561
    One-Electron Energy =               -2651.4648592296348397
    Two-Electron Energy =                1122.1222326527504265
    Total Energy =                       -609.5333146186112572
  Basis Set: (AUG-CC-PVTZ AUX)
    Blend: AUG-CC-PVTZ-RI
    Molecular point group: c1

    Geometry (in Angstrom), charge = 0, multiplicity = 1:

       Center              X                  Y                   Z               Mass
    ------------   -----------------  -----------------  -----------------  -----------------
         N           -0.450524005954     1.138262909264    -0.216666137270    14.003074004430
         N            1.808421994046     1.277681909264     0.353437862730    14.003074004430
         C           -1.604865005954     0.311954909264    -0.065467137270    12.000000000000
         C            0.804231994046     0.531909909264    -0.134973137270    12.000000000000
         C           -0.576017005954     2.488365909264     0.334403862730    12.000000000000
         C            1.006274994046    -0.776355090736    -0.626640137270    12.000000000000
         C            3.350058994046    -0.551712090736    -0.066795137270    12.000000000000
         C           -1.715078005954    -0.600959090736     0.993430862730    12.000000000000
         C           -2.660247005954     0.452324909264    -0.974064137270    12.000000000000
         C            2.283261994046    -1.309463090736    -0.578080137270    12.000000000000
         C            3.041256994046     0.733796909264     0.371187862730    12.000000000000
         C           -2.867798005954    -1.375333090736     1.127048862730    12.000000000000
         C           -3.818586005954    -0.311602090736    -0.824341137270    12.000000000000
         C           -3.922711605954    -1.216112390736     0.208646062730    12.000000000000
         C            4.749269994046    -1.097905090736     0.001969862730    12.000000000000
         H            0.179326994046    -1.342634090736    -1.043973137270     1.007825032230
         H           -0.441336005954     2.506005909264     1.424022862730     1.007825032230
         H           -1.574210005954     2.853977909264     0.086795862730     1.007825032230
         H            0.178311994046     3.134701909264    -0.113870137270     1.007825032230
         H           -0.894846005954    -0.700039090736     1.701148862730     1.007825032230
         H           -2.552729005954     1.154086909264    -1.798000137270     1.007825032230
         H            2.461264994046    -2.316716090736    -0.953373137270     1.007825032230
         H            3.825541994046     1.378050909264     0.770830862730     1.007825032230
         H           -2.948325005954    -2.083742090736     1.948418862730     1.007825032230
         H           -4.634474005954    -0.198914090736    -1.534447137270     1.007825032230
         H            5.105257994046    -1.403037090736    -0.987352137270     1.007825032230
         H            5.441191994046    -0.345643090736     0.391074862730     1.007825032230
         H            4.802584994046    -1.974030090736     0.656534862730     1.007825032230
         H           -4.823208005954    -1.830505090736     0.334145862730     1.007825032230

  Basis Set: AUG-CC-PVTZ
    Blend: AUG-CC-PVTZ
  Basis Set: (AUG-CC-PVTZ AUX)
    Blend: AUG-CC-PVTZ-JKFIT
	 Reference Energy          =    -609.5333146186112572 [Eh]
	 Singles Energy            =      -0.0000000000000000 [Eh]
	 Same-Spin Energy          =      -0.6811340364431464 [Eh]
	 Opposite-Spin Energy      =      -2.1307177795736107 [Eh]
	 Correlation Energy        =      -2.8118518160167572 [Eh]
	 Total Energy              =    -612.3451664346280268 [Eh]

	 ================> DF-SCS-MP2 Energies <==================
	-----------------------------------------------------------
	 SCS Same-Spin Scale       =       0.3333333333333333 [-]
	 SCS Opposite-Spin Scale   =       1.2000000000000000 [-]
	 SCS Same-Spin Energy      =      -0.2270446788143821 [Eh]
	 SCS Opposite-Spin Energy  =      -2.5568613354883327 [Eh]
	 SCS Correlation Energy    =      -2.7839060143027150 [Eh]
	 SCS Total Energy          =    -612.3172206329139726 [Eh]
	-----------------------------------------------------------

  Dipole Moment: [D]
     X:    -0.4897      Y:    -1.4637      Z:    -0.1628     Total:     1.5520

*** Psi4 exiting successfully. Buy a developer a beer!
