                               Psi4 1.4a3.dev225

  ==> Input File <==

--------------------------------------------------------------------------
#psi4
#
memory 32 gb

molecule  {
0 1
  N       -0.4697210     1.1445100    -0.2216410
  N        1.7892250     1.2839290     0.3484630
  C       -1.6240620     0.3182020    -0.0704420
  C        0.7850350     0.5381570    -0.1399480
  C       -0.5952140     2.4946130     0.3294290
  C        0.9870780    -0.7701080    -0.6316150
  C        3.3308620    -0.5454650    -0.0717700
  C       -1.7342750    -0.5947120     0.9884560
  C       -2.6794440     0.4585720    -0.9790390
  C        2.2640650    -1.3032160    -0.5830550
  C        3.0220600     0.7400440     0.3662130
  C       -2.8869950    -1.3690860     1.1220740
  C       -3.8377830    -0.3053550    -0.8293160
  C       -3.9434210    -1.2230030     0.2186750
  C        4.7300730    -1.0916580    -0.0030050
  H        0.1601300    -1.3363870    -1.0489480
  H       -0.4605330     2.5122530     1.4190480
  H       -1.5934070     2.8602250     0.0818210
  H        0.1591150     3.1409490    -0.1188450
  H       -0.9140430    -0.6937920     1.6961740
  H       -2.5719260     1.1603340    -1.8029750
  H        2.4420680    -2.3104690    -0.9583480
  H        3.8063450     1.3842980     0.7658560
  H       -2.9675220    -2.0774950     1.9434440
  H       -4.6536710    -0.1926670    -1.5394220
  H        5.1023191    -1.4107255    -1.0375097
  H        5.4219950    -0.3393960     0.3861000
  H        4.7833880    -1.9677830     0.6515600
  H       -4.8424050    -1.8242580     0.3291710
units angstrom
no_reorient  #important for SAPT in psi4, default
symmetry c1  #important for SAPT in psi4, default
}

set PROPERTIES_ORIGIN ["COM"]
properties('MP2/aug-cc-pvtz', properties = ['dipole'])
--------------------------------------------------------------------------

    Molecular point group: c1
  Charge       = 0
  Multiplicity = 1
  Basis Set: AUG-CC-PVTZ
    Blend: AUG-CC-PVTZ
  Basis Set: (AUG-CC-PVTZ AUX)
    Blend: AUG-CC-PVTZ-JKFIT

    Orbital Energies [Eh]
    ---------------------

    Doubly Occupied:

       1A    -15.573029     2A    -15.549211     3A    -11.308881
       4A    -11.275493     5A    -11.265948     6A    -11.250449
       7A    -11.245323     8A    -11.242143     9A    -11.241917
      10A    -11.238206    11A    -11.237830    12A    -11.236954
      13A    -11.231371    14A    -11.230584    15A    -11.229085
      16A     -1.290381    17A     -1.217624    18A     -1.142382
      19A     -1.089744    20A     -1.037775    21A     -1.018777
      22A     -1.008777    23A     -0.947609    24A     -0.906474
      25A     -0.847123    26A     -0.838907    27A     -0.829082
      28A     -0.785498    29A     -0.724704    30A     -0.685513
      31A     -0.674501    32A     -0.648369    33A     -0.638079
      34A     -0.622887    35A     -0.609609    36A     -0.593955
      37A     -0.588252    38A     -0.583819    39A     -0.572207
      40A     -0.561669    41A     -0.540302    42A     -0.534147
      43A     -0.522304    44A     -0.514749    45A     -0.508078
      46A     -0.500115    47A     -0.498940    48A     -0.418085
      49A     -0.410392    50A     -0.373746    51A     -0.342919
      52A     -0.339064    53A     -0.286615

  @DF-RHF Final Energy:  -609.53168194026364

   => Energetics <=

    Nuclear Repulsion Energy =            919.3891012879741993
    One-Electron Energy =               -2650.6223767892961405
    Two-Electron Energy =                1121.7015935610581892
    Total Energy =                       -609.5316819402637520
  Basis Set: (AUG-CC-PVTZ AUX)
    Blend: AUG-CC-PVTZ-RI
    Molecular point group: c1

    Geometry (in Angstrom), charge = 0, multiplicity = 1:

       Center              X                  Y                   Z               Mass
    ------------   -----------------  -----------------  -----------------  -----------------
         N           -0.450515104692     1.139129559141    -0.217345080660    14.003074004430
         N            1.808430895308     1.278548559141     0.352758919340    14.003074004430
         C           -1.604856104692     0.312821559141    -0.066146080660    12.000000000000
         C            0.804240895308     0.532776559141    -0.135652080660    12.000000000000
         C           -0.576008104692     2.489232559141     0.333724919340    12.000000000000
         C            1.006283895308    -0.775488440859    -0.627319080660    12.000000000000
         C            3.350067895308    -0.550845440859    -0.067474080660    12.000000000000
         C           -1.715069104692    -0.600092440859     0.992751919340    12.000000000000
         C           -2.660238104692     0.453191559141    -0.974743080660    12.000000000000
         C            2.283270895308    -1.308596440859    -0.578759080660    12.000000000000
         C            3.041265895308     0.734663559141     0.370508919340    12.000000000000
         C           -2.867789104692    -1.374466440859     1.126369919340    12.000000000000
         C           -3.818577104692    -0.310735440859    -0.825020080660    12.000000000000
         C           -3.924215104692    -1.228383440859     0.222970919340    12.000000000000
         C            4.749278895308    -1.097038440859     0.001290919340    12.000000000000
         H            0.179335895308    -1.341767440859    -1.044652080660     1.007825032230
         H           -0.441327104692     2.506872559141     1.423343919340     1.007825032230
         H           -1.574201104692     2.854844559141     0.086116919340     1.007825032230
         H            0.178320895308     3.135568559141    -0.114549080660     1.007825032230
         H           -0.894837104692    -0.699172440859     1.700469919340     1.007825032230
         H           -2.552720104692     1.154953559141    -1.798679080660     1.007825032230
         H            2.461273895308    -2.315849440859    -0.954052080660     1.007825032230
         H            3.825550895308     1.378917559141     0.770151919340     1.007825032230
         H           -2.948316104692    -2.082875440859     1.947739919340     1.007825032230
         H           -4.634465104692    -0.198047440859    -1.535126080660     1.007825032230
         H            5.121524995308    -1.416105940859    -1.033213780660     1.007825032230
         H            5.441200895308    -0.344776440859     0.390395919340     1.007825032230
         H            4.802593895308    -1.973163440859     0.655855919340     1.007825032230
         H           -4.823199104692    -1.829638440859     0.333466919340     1.007825032230

  Basis Set: AUG-CC-PVTZ
    Blend: AUG-CC-PVTZ
  Basis Set: (AUG-CC-PVTZ AUX)
    Blend: AUG-CC-PVTZ-JKFIT
	 Reference Energy          =    -609.5316819402636384 [Eh]
	 Singles Energy            =      -0.0000000000000000 [Eh]
	 Same-Spin Energy          =      -0.6811145436516378 [Eh]
	 Opposite-Spin Energy      =      -2.1310468340152044 [Eh]
	 Correlation Energy        =      -2.8121613776668424 [Eh]
	 Total Energy              =    -612.3438433179304639 [Eh]

	 ================> DF-SCS-MP2 Energies <==================
	-----------------------------------------------------------
	 SCS Same-Spin Scale       =       0.3333333333333333 [-]
	 SCS Opposite-Spin Scale   =       1.2000000000000000 [-]
	 SCS Same-Spin Energy      =      -0.2270381812172126 [Eh]
	 SCS Opposite-Spin Energy  =      -2.5572562008182453 [Eh]
	 SCS Correlation Energy    =      -2.7842943820354580 [Eh]
	 SCS Total Energy          =    -612.3159763222990932 [Eh]
	-----------------------------------------------------------

  Dipole Moment: [D]
     X:    -0.5232      Y:    -1.4495      Z:    -0.1480     Total:     1.5481

*** Psi4 exiting successfully. Buy a developer a beer!
