                               Psi4 1.4a3.dev225

  ==> Input File <==

--------------------------------------------------------------------------
#psi4
#
memory 32 gb

molecule  {
0 1
  N       -0.4697210     1.1445100    -0.2216410
  N        1.7892250     1.2839290     0.3484630
  C       -1.6240620     0.3182020    -0.0704420
  C        0.7850350     0.5381570    -0.1399480
  C       -0.5952140     2.4946130     0.3294290
  C        0.9870780    -0.7701080    -0.6316150
  C        3.3308620    -0.5454650    -0.0717700
  C       -1.7342750    -0.5947120     0.9884560
  C       -2.6794440     0.4585720    -0.9790390
  C        2.2640650    -1.3032160    -0.5830550
  C        3.0220600     0.7400440     0.3662130
  C       -2.8869950    -1.3690860     1.1220740
  C       -3.8377830    -0.3053550    -0.8293160
  C       -3.9434210    -1.2230030     0.2186750
  C        4.7300730    -1.0916580    -0.0030050
  H        0.3124686    -1.2320683    -0.9720678
  H       -0.4605330     2.5122530     1.4190480
  H       -1.5934070     2.8602250     0.0818210
  H        0.1591150     3.1409490    -0.1188450
  H       -0.9140430    -0.6937920     1.6961740
  H       -2.5719260     1.1603340    -1.8029750
  H        2.4420680    -2.3104690    -0.9583480
  H        3.8063450     1.3842980     0.7658560
  H       -2.9675220    -2.0774950     1.9434440
  H       -4.6536710    -0.1926670    -1.5394220
  H        5.0860610    -1.3967900    -0.9923270
  H        5.4219950    -0.3393960     0.3861000
  H        4.7833880    -1.9677830     0.6515600
  H       -4.8424050    -1.8242580     0.3291710
units angstrom
no_reorient  #important for SAPT in psi4, default
symmetry c1  #important for SAPT in psi4, default
}

set PROPERTIES_ORIGIN ["COM"]
properties('MP2/aug-cc-pvtz', properties = ['dipole'])
--------------------------------------------------------------------------

    Molecular point group: c1
  Charge       = 0
  Multiplicity = 1
  Basis Set: AUG-CC-PVTZ
    Blend: AUG-CC-PVTZ
  Basis Set: (AUG-CC-PVTZ AUX)
    Blend: AUG-CC-PVTZ-JKFIT

    Orbital Energies [Eh]
    ---------------------

    Doubly Occupied:

       1A    -15.572940     2A    -15.547793     3A    -11.307346
       4A    -11.275745     5A    -11.265305     6A    -11.249381
       7A    -11.245202     8A    -11.242344     9A    -11.242080
      10A    -11.238440    11A    -11.238196    12A    -11.237237
      13A    -11.229481    14A    -11.224674    15A    -11.205850
      16A     -1.290153    17A     -1.216942    18A     -1.142495
      19A     -1.092081    20A     -1.045404    21A     -1.019140
      22A     -1.009335    23A     -0.948992    24A     -0.907512
      25A     -0.862754    26A     -0.839839    27A     -0.829516
      28A     -0.787606    29A     -0.727192    30A     -0.687922
      31A     -0.675367    32A     -0.664666    33A     -0.648455
      34A     -0.631977    35A     -0.609920    36A     -0.594059
      37A     -0.587982    38A     -0.583768    39A     -0.576329
      40A     -0.561720    41A     -0.543549    42A     -0.534076
      43A     -0.522901    44A     -0.517266    45A     -0.508382
      46A     -0.500698    47A     -0.500076    48A     -0.417876
      49A     -0.410734    50A     -0.373161    51A     -0.343421
      52A     -0.339239    53A     -0.286429

  @DF-RHF Final Energy:  -609.49922008549004

   => Energetics <=

    Nuclear Repulsion Energy =            920.6750231195014749
    One-Electron Energy =               -2653.0265925394483020
    Two-Electron Energy =                1122.8523493344569033
    Total Energy =                       -609.4992200854899238
  Basis Set: (AUG-CC-PVTZ AUX)
    Blend: AUG-CC-PVTZ-RI
    Molecular point group: c1

    Geometry (in Angstrom), charge = 0, multiplicity = 1:

       Center              X                  Y                   Z               Mass
    ------------   -----------------  -----------------  -----------------  -----------------
         N           -0.451207353390     1.138527993774    -0.217966021086    14.003074004430
         N            1.807738646610     1.277946993774     0.352137978914    14.003074004430
         C           -1.605548353390     0.312219993774    -0.066767021086    12.000000000000
         C            0.803548646610     0.532174993774    -0.136273021086    12.000000000000
         C           -0.576700353390     2.488630993774     0.333103978914    12.000000000000
         C            1.005591646610    -0.776090006226    -0.627940021086    12.000000000000
         C            3.349375646610    -0.551447006226    -0.068095021086    12.000000000000
         C           -1.715761353390    -0.600694006226     0.992130978914    12.000000000000
         C           -2.660930353390     0.452589993774    -0.975364021086    12.000000000000
         C            2.282578646610    -1.309198006226    -0.579380021086    12.000000000000
         C            3.040573646610     0.734061993774     0.369887978914    12.000000000000
         C           -2.868481353390    -1.375068006226     1.125748978914    12.000000000000
         C           -3.819269353390    -0.311337006226    -0.825641021086    12.000000000000
         C           -3.924907353390    -1.228985006226     0.222349978914    12.000000000000
         C            4.748586646610    -1.097640006226     0.000669978914    12.000000000000
         H            0.330982246610    -1.238050306226    -0.968392821086     1.007825032230
         H           -0.442019353390     2.506270993774     1.422722978914     1.007825032230
         H           -1.574893353390     2.854242993774     0.085495978914     1.007825032230
         H            0.177628646610     3.134966993774    -0.115170021086     1.007825032230
         H           -0.895529353390    -0.699774006226     1.699848978914     1.007825032230
         H           -2.553412353390     1.154351993774    -1.799300021086     1.007825032230
         H            2.460581646610    -2.316451006226    -0.954673021086     1.007825032230
         H            3.824858646610     1.378315993774     0.769530978914     1.007825032230
         H           -2.949008353390    -2.083477006226     1.947118978914     1.007825032230
         H           -4.635157353390    -0.198649006226    -1.535747021086     1.007825032230
         H            5.104574646610    -1.402772006226    -0.988652021086     1.007825032230
         H            5.440508646610    -0.345378006226     0.389774978914     1.007825032230
         H            4.801901646610    -1.973765006226     0.655234978914     1.007825032230
         H           -4.823891353390    -1.830240006226     0.332845978914     1.007825032230

  Basis Set: AUG-CC-PVTZ
    Blend: AUG-CC-PVTZ
  Basis Set: (AUG-CC-PVTZ AUX)
    Blend: AUG-CC-PVTZ-JKFIT
	 Reference Energy          =    -609.4992200854900375 [Eh]
	 Singles Energy            =      -0.0000000000000000 [Eh]
	 Same-Spin Energy          =      -0.6805707802167538 [Eh]
	 Opposite-Spin Energy      =      -2.1297187494849026 [Eh]
	 Correlation Energy        =      -2.8102895297016564 [Eh]
	 Total Energy              =    -612.3095096151917005 [Eh]

	 ================> DF-SCS-MP2 Energies <==================
	-----------------------------------------------------------
	 SCS Same-Spin Scale       =       0.3333333333333333 [-]
	 SCS Opposite-Spin Scale   =       1.2000000000000000 [-]
	 SCS Same-Spin Energy      =      -0.2268569267389179 [Eh]
	 SCS Opposite-Spin Energy  =      -2.5556624993818828 [Eh]
	 SCS Correlation Energy    =      -2.7825194261208006 [Eh]
	 SCS Total Energy          =    -612.2817395116107946 [Eh]
	-----------------------------------------------------------

  Dipole Moment: [D]
     X:    -0.5188      Y:    -1.4660      Z:    -0.1708     Total:     1.5645

*** Psi4 exiting successfully. Buy a developer a beer!
