                               Psi4 1.4a3.dev225

  ==> Input File <==

--------------------------------------------------------------------------
#psi4
#
memory 32 gb

molecule  {
0 1
  N       -0.4697210     1.1445100    -0.2216410
  N        1.7892250     1.2839290     0.3484630
  C       -1.6240620     0.3182020    -0.0704420
  C        0.7850350     0.5381570    -0.1399480
  C       -0.5952140     2.4946130     0.3294290
  C        0.9870780    -0.7701080    -0.6316150
  C        3.3308620    -0.5454650    -0.0717700
  C       -1.7342750    -0.5947120     0.9884560
  C       -2.6794440     0.4585720    -0.9790390
  C        2.2640650    -1.3032160    -0.5830550
  C        3.0220600     0.7400440     0.3662130
  C       -2.8869950    -1.3690860     1.1220740
  C       -3.8377830    -0.3053550    -0.8293160
  C       -4.0190053    -1.2125512     0.1540393
  C        4.7300730    -1.0916580    -0.0030050
  H        0.1601300    -1.3363870    -1.0489480
  H       -0.4605330     2.5122530     1.4190480
  H       -1.5934070     2.8602250     0.0818210
  H        0.1591150     3.1409490    -0.1188450
  H       -0.9140430    -0.6937920     1.6961740
  H       -2.5719260     1.1603340    -1.8029750
  H        2.4420680    -2.3104690    -0.9583480
  H        3.8063450     1.3842980     0.7658560
  H       -2.9675220    -2.0774950     1.9434440
  H       -4.6536710    -0.1926670    -1.5394220
  H        5.0860610    -1.3967900    -0.9923270
  H        5.4219950    -0.3393960     0.3861000
  H        4.7833880    -1.9677830     0.6515600
  H       -4.8424050    -1.8242580     0.3291710
units angstrom
no_reorient  #important for SAPT in psi4, default
symmetry c1  #important for SAPT in psi4, default
}

set PROPERTIES_ORIGIN ["COM"]
properties('MP2/aug-cc-pvtz', properties = ['dipole'])
--------------------------------------------------------------------------

    Molecular point group: c1
  Charge       = 0
  Multiplicity = 1
  Basis Set: AUG-CC-PVTZ
    Blend: AUG-CC-PVTZ
  Basis Set: (AUG-CC-PVTZ AUX)
    Blend: AUG-CC-PVTZ-JKFIT

    Orbital Energies [Eh]
    ---------------------

    Doubly Occupied:

       1A    -15.573207     2A    -15.549376     3A    -11.308872
       4A    -11.276740     5A    -11.265912     6A    -11.251354
       7A    -11.250591     8A    -11.245336     9A    -11.239314
      10A    -11.237977    11A    -11.237078    12A    -11.235888
      13A    -11.230748    14A    -11.229260    15A    -11.225400
      16A     -1.290564    17A     -1.217596    18A     -1.138376
      19A     -1.090180    20A     -1.037826    21A     -1.022568
      22A     -1.003247    23A     -0.949652    24A     -0.908820
      25A     -0.847265    26A     -0.836768    27A     -0.830326
      28A     -0.786319    29A     -0.723449    30A     -0.692844
      31A     -0.674881    32A     -0.646027    33A     -0.640443
      34A     -0.622393    35A     -0.610623    36A     -0.593434
      37A     -0.585581    38A     -0.584080    39A     -0.576837
      40A     -0.562035    41A     -0.544090    42A     -0.536077
      43A     -0.524256    44A     -0.523021    45A     -0.508670
      46A     -0.497723    47A     -0.484801    48A     -0.417929
      49A     -0.410622    50A     -0.373975    51A     -0.350797
      52A     -0.329223    53A     -0.287121

  @DF-RHF Final Energy:  -609.52216436345384

   => Energetics <=

    Nuclear Repulsion Energy =            918.5048062081827993
    One-Electron Energy =               -2648.8189560424689262
    Two-Electron Energy =                1120.7919854708322873
    Total Energy =                       -609.5221643634538395
  Basis Set: (AUG-CC-PVTZ AUX)
    Blend: AUG-CC-PVTZ-RI
    Molecular point group: c1

    Geometry (in Angstrom), charge = 0, multiplicity = 1:

       Center              X                  Y                   Z               Mass
    ------------   -----------------  -----------------  -----------------  -----------------
         N           -0.445854207411     1.138425596018    -0.213659899982    14.003074004430
         N            1.813091792589     1.277844596018     0.356444100018    14.003074004430
         C           -1.600195207411     0.312117596018    -0.062460899982    12.000000000000
         C            0.808901792589     0.532072596018    -0.131966899982    12.000000000000
         C           -0.571347207411     2.488528596018     0.337410100018    12.000000000000
         C            1.010944792589    -0.776192403982    -0.623633899982    12.000000000000
         C            3.354728792589    -0.551549403982    -0.063788899982    12.000000000000
         C           -1.710408207411    -0.600796403982     0.996437100018    12.000000000000
         C           -2.655577207411     0.452487596018    -0.971057899982    12.000000000000
         C            2.287931792589    -1.309300403982    -0.575073899982    12.000000000000
         C            3.045926792589     0.733959596018     0.374194100018    12.000000000000
         C           -2.863128207411    -1.375170403982     1.130055100018    12.000000000000
         C           -3.813916207411    -0.311439403982    -0.821334899982    12.000000000000
         C           -3.995138507411    -1.218635603982     0.162020400018    12.000000000000
         C            4.753939792589    -1.097742403982     0.004976100018    12.000000000000
         H            0.183996792589    -1.342471403982    -1.040966899982     1.007825032230
         H           -0.436666207411     2.506168596018     1.427029100018     1.007825032230
         H           -1.569540207411     2.854140596018     0.089802100018     1.007825032230
         H            0.182981792589     3.134864596018    -0.110863899982     1.007825032230
         H           -0.890176207411    -0.699876403982     1.704155100018     1.007825032230
         H           -2.548059207411     1.154249596018    -1.794993899982     1.007825032230
         H            2.465934792589    -2.316553403982    -0.950366899982     1.007825032230
         H            3.830211792589     1.378213596018     0.773837100018     1.007825032230
         H           -2.943655207411    -2.083579403982     1.951425100018     1.007825032230
         H           -4.629804207411    -0.198751403982    -1.531440899982     1.007825032230
         H            5.109927792589    -1.402874403982    -0.984345899982     1.007825032230
         H            5.445861792589    -0.345480403982     0.394081100018     1.007825032230
         H            4.807254792589    -1.973867403982     0.659541100018     1.007825032230
         H           -4.818538207411    -1.830342403982     0.337152100018     1.007825032230

  Basis Set: AUG-CC-PVTZ
    Blend: AUG-CC-PVTZ
  Basis Set: (AUG-CC-PVTZ AUX)
    Blend: AUG-CC-PVTZ-JKFIT
	 Reference Energy          =    -609.5221643634538395 [Eh]
	 Singles Energy            =      -0.0000000000000000 [Eh]
	 Same-Spin Energy          =      -0.6809167815212038 [Eh]
	 Opposite-Spin Energy      =      -2.1314575400249578 [Eh]
	 Correlation Energy        =      -2.8123743215461614 [Eh]
	 Total Energy              =    -612.3345386849999841 [Eh]

	 ================> DF-SCS-MP2 Energies <==================
	-----------------------------------------------------------
	 SCS Same-Spin Scale       =       0.3333333333333333 [-]
	 SCS Opposite-Spin Scale   =       1.2000000000000000 [-]
	 SCS Same-Spin Energy      =      -0.2269722605070679 [Eh]
	 SCS Opposite-Spin Energy  =      -2.5577490480299492 [Eh]
	 SCS Correlation Energy    =      -2.7847213085370170 [Eh]
	 SCS Total Energy          =    -612.3068856719908126 [Eh]
	-----------------------------------------------------------

  Dipole Moment: [D]
     X:    -0.4657      Y:    -1.4745      Z:    -0.1489     Total:     1.5534

*** Psi4 exiting successfully. Buy a developer a beer!
