                               Psi4 1.4a3.dev225

  ==> Input File <==

--------------------------------------------------------------------------
#psi4
#
memory 32 gb

molecule  {
0 1
  N       -0.4697210     1.1445100    -0.2216410
  N        1.7892250     1.2839290     0.3484630
  C       -1.6240620     0.3182020    -0.0704420
  C        0.7850350     0.5381570    -0.1399480
  C       -0.5952140     2.4946130     0.3294290
  C        0.9870780    -0.7701080    -0.6316150
  C        3.3308620    -0.5454650    -0.0717700
  C       -1.7342750    -0.5947120     0.9884560
  C       -2.6794440     0.4585720    -0.9790390
  C        2.2640650    -1.3032160    -0.5830550
  C        3.0220600     0.7400440     0.3662130
  C       -2.8869950    -1.3690860     1.1220740
  C       -3.8377830    -0.3053550    -0.8293160
  C       -3.9434210    -1.2230030     0.2186750
  C        4.7300730    -1.0916580    -0.0030050
  H        0.1601300    -1.3363870    -1.0489480
  H       -0.4605330     2.5122530     1.4190480
  H       -1.5934070     2.8602250     0.0818210
  H        0.1591150     3.1409490    -0.1188450
  H       -0.9140430    -0.6937920     1.6961740
  H       -2.5669832     1.1925956    -1.8408532
  H        2.4420680    -2.3104690    -0.9583480
  H        3.8063450     1.3842980     0.7658560
  H       -2.9675220    -2.0774950     1.9434440
  H       -4.6536710    -0.1926670    -1.5394220
  H        5.0860610    -1.3967900    -0.9923270
  H        5.4219950    -0.3393960     0.3861000
  H        4.7833880    -1.9677830     0.6515600
  H       -4.8424050    -1.8242580     0.3291710
units angstrom
no_reorient  #important for SAPT in psi4, default
symmetry c1  #important for SAPT in psi4, default
}

set PROPERTIES_ORIGIN ["COM"]
properties('MP2/aug-cc-pvtz', properties = ['dipole'])
--------------------------------------------------------------------------

    Molecular point group: c1
  Charge       = 0
  Multiplicity = 1
  Basis Set: AUG-CC-PVTZ
    Blend: AUG-CC-PVTZ
  Basis Set: (AUG-CC-PVTZ AUX)
    Blend: AUG-CC-PVTZ-JKFIT

    Orbital Energies [Eh]
    ---------------------

    Doubly Occupied:

       1A    -15.572797     2A    -15.548991     3A    -11.308599
       4A    -11.275890     5A    -11.265571     6A    -11.250260
       7A    -11.245082     8A    -11.243040     9A    -11.242226
      10A    -11.241778    11A    -11.238462    12A    -11.238097
      13A    -11.230377    14A    -11.228901    15A    -11.225174
      16A     -1.290155    17A     -1.217385    18A     -1.142372
      19A     -1.089933    20A     -1.037888    21A     -1.017930
      22A     -1.008555    23A     -0.949347    24A     -0.907338
      25A     -0.846980    26A     -0.839192    27A     -0.827072
      28A     -0.785446    29A     -0.724176    30A     -0.682775
      31A     -0.674180    32A     -0.648221    33A     -0.637160
      34A     -0.622329    35A     -0.609297    36A     -0.593045
      37A     -0.586245    38A     -0.582995    39A     -0.576508
      40A     -0.561548    41A     -0.543253    42A     -0.534041
      43A     -0.523349    44A     -0.514336    45A     -0.507105
      46A     -0.499186    47A     -0.498227    48A     -0.418091
      49A     -0.410331    50A     -0.373641    51A     -0.343120
      52A     -0.339204    53A     -0.286556

  @DF-RHF Final Energy:  -609.53122225427273

   => Energetics <=

    Nuclear Repulsion Energy =            919.3508238132842507
    One-Electron Energy =               -2650.5565803658405457
    Two-Electron Energy =                1121.6745342982835609
    Total Energy =                       -609.5312222542727341
  Basis Set: (AUG-CC-PVTZ AUX)
    Blend: AUG-CC-PVTZ-RI
    Molecular point group: c1

    Geometry (in Angstrom), charge = 0, multiplicity = 1:

       Center              X                  Y                   Z               Mass
    ------------   -----------------  -----------------  -----------------  -----------------
         N           -0.450457543162     1.138894552051    -0.217382239038    14.003074004430
         N            1.808488456838     1.278313552051     0.352721760962    14.003074004430
         C           -1.604798543162     0.312586552051    -0.066183239038    12.000000000000
         C            0.804298456838     0.532541552051    -0.135689239038    12.000000000000
         C           -0.575950543162     2.488997552051     0.333687760962    12.000000000000
         C            1.006341456838    -0.775723447949    -0.627356239038    12.000000000000
         C            3.350125456838    -0.551080447949    -0.067511239038    12.000000000000
         C           -1.715011543162    -0.600327447949     0.992714760962    12.000000000000
         C           -2.660180543162     0.452956552051    -0.974780239038    12.000000000000
         C            2.283328456838    -1.308831447949    -0.578796239038    12.000000000000
         C            3.041323456838     0.734428552051     0.370471760962    12.000000000000
         C           -2.867731543162    -1.374701447949     1.126332760962    12.000000000000
         C           -3.818519543162    -0.310970447949    -0.825057239038    12.000000000000
         C           -3.924157543162    -1.228618447949     0.222933760962    12.000000000000
         C            4.749336456838    -1.097273447949     0.001253760962    12.000000000000
         H            0.179393456838    -1.342002447949    -1.044689239038     1.007825032230
         H           -0.441269543162     2.506637552051     1.423306760962     1.007825032230
         H           -1.574143543162     2.854609552051     0.086079760962     1.007825032230
         H            0.178378456838     3.135333552051    -0.114586239038     1.007825032230
         H           -0.894779543162    -0.699407447949     1.700432760962     1.007825032230
         H           -2.547719743162     1.186980152051    -1.836594439038     1.007825032230
         H            2.461331456838    -2.316084447949    -0.954089239038     1.007825032230
         H            3.825608456838     1.378682552051     0.770114760962     1.007825032230
         H           -2.948258543162    -2.083110447949     1.947702760962     1.007825032230
         H           -4.634407543162    -0.198282447949    -1.535163239038     1.007825032230
         H            5.105324456838    -1.402405447949    -0.988068239038     1.007825032230
         H            5.441258456838    -0.345011447949     0.390358760962     1.007825032230
         H            4.802651456838    -1.973398447949     0.655818760962     1.007825032230
         H           -4.823141543162    -1.829873447949     0.333429760962     1.007825032230

  Basis Set: AUG-CC-PVTZ
    Blend: AUG-CC-PVTZ
  Basis Set: (AUG-CC-PVTZ AUX)
    Blend: AUG-CC-PVTZ-JKFIT
	 Reference Energy          =    -609.5312222542727341 [Eh]
	 Singles Energy            =      -0.0000000000000000 [Eh]
	 Same-Spin Energy          =      -0.6812667017882094 [Eh]
	 Opposite-Spin Energy      =      -2.1311834037127504 [Eh]
	 Correlation Energy        =      -2.8124501055009596 [Eh]
	 Total Energy              =    -612.3436723597736773 [Eh]

	 ================> DF-SCS-MP2 Energies <==================
	-----------------------------------------------------------
	 SCS Same-Spin Scale       =       0.3333333333333333 [-]
	 SCS Opposite-Spin Scale   =       1.2000000000000000 [-]
	 SCS Same-Spin Energy      =      -0.2270889005960698 [Eh]
	 SCS Opposite-Spin Energy  =      -2.5574200844553006 [Eh]
	 SCS Correlation Energy    =      -2.7845089850513705 [Eh]
	 SCS Total Energy          =    -612.3157312393241227 [Eh]
	-----------------------------------------------------------

  Dipole Moment: [D]
     X:    -0.4966      Y:    -1.4716      Z:    -0.1581     Total:     1.5612

*** Psi4 exiting successfully. Buy a developer a beer!
