                               Psi4 1.4a3.dev225

  ==> Input File <==

--------------------------------------------------------------------------
#psi4
#
memory 32 gb

molecule  {
0 1
  N       -0.4697210     1.1445100    -0.2216410
  N        1.7892250     1.2839290     0.3484630
  C       -1.6240620     0.3182020    -0.0704420
  C        0.7850350     0.5381570    -0.1399480
  C       -0.5952140     2.4946130     0.3294290
  C        0.9870780    -0.7701080    -0.6316150
  C        3.3308620    -0.5454650    -0.0717700
  C       -1.7342750    -0.5947120     0.9884560
  C       -2.6794440     0.4585720    -0.9790390
  C        2.2640650    -1.3032160    -0.5830550
  C        3.0220600     0.7400440     0.3662130
  C       -2.8869950    -1.3690860     1.1220740
  C       -3.8377830    -0.3053550    -0.8293160
  C       -3.9434210    -1.2230030     0.2186750
  C        4.7300730    -1.0916580    -0.0030050
  H        0.1601300    -1.3363870    -1.0489480
  H       -0.4605330     2.5122530     1.4190480
  H       -1.5934070     2.8602250     0.0818210
  H        0.1591150     3.1409490    -0.1188450
  H       -0.9140430    -0.6937920     1.6961740
  H       -2.5719260     1.1603340    -1.8029750
  H        2.4420680    -2.3104690    -0.9583480
  H        3.8063450     1.3842980     0.7658560
  H       -2.9675220    -2.0774950     1.9434440
  H       -4.6536710    -0.1926670    -1.5394220
  H        5.0889461    -1.4144607    -0.9856542
  H        5.4219950    -0.3393960     0.3861000
  H        4.7833880    -1.9677830     0.6515600
  H       -4.8424050    -1.8242580     0.3291710
units angstrom
no_reorient  #important for SAPT in psi4, default
symmetry c1  #important for SAPT in psi4, default
}

set PROPERTIES_ORIGIN ["COM"]
properties('MP2/aug-cc-pvtz', properties = ['dipole'])
--------------------------------------------------------------------------

    Molecular point group: c1
  Charge       = 0
  Multiplicity = 1
  Basis Set: AUG-CC-PVTZ
    Blend: AUG-CC-PVTZ
  Basis Set: (AUG-CC-PVTZ AUX)
    Blend: AUG-CC-PVTZ-JKFIT

    Orbital Energies [Eh]
    ---------------------

    Doubly Occupied:

       1A    -15.572862     2A    -15.549056     3A    -11.308661
       4A    -11.275393     5A    -11.265664     6A    -11.250315
       7A    -11.245209     8A    -11.242059     9A    -11.241836
      10A    -11.238122    11A    -11.237733    12A    -11.236863
      13A    -11.230519    14A    -11.228941    15A    -11.225177
      16A     -1.290216    17A     -1.217457    18A     -1.142289
      19A     -1.089936    20A     -1.037989    21A     -1.018703
      22A     -1.008829    23A     -0.949401    24A     -0.907582
      25A     -0.847037    26A     -0.839276    27A     -0.829284
      28A     -0.785646    29A     -0.724608    30A     -0.685488
      31A     -0.674445    32A     -0.648284    33A     -0.638456
      34A     -0.622750    35A     -0.609707    36A     -0.593833
      37A     -0.588091    38A     -0.583682    39A     -0.575324
      40A     -0.561700    41A     -0.544644    42A     -0.534277
      43A     -0.523085    44A     -0.514599    45A     -0.507877
      46A     -0.500036    47A     -0.498821    48A     -0.418031
      49A     -0.410451    50A     -0.373661    51A     -0.342853
      52A     -0.338982    53A     -0.286528

  @DF-RHF Final Energy:  -609.53369777090052

   => Energetics <=

    Nuclear Repulsion Energy =            919.5905939217046807
    One-Electron Energy =               -2651.0240557386541695
    Two-Electron Energy =                1121.8997640460490857
    Total Energy =                       -609.5336977709005168
  Basis Set: (AUG-CC-PVTZ AUX)
    Blend: AUG-CC-PVTZ-RI
    Molecular point group: c1

    Geometry (in Angstrom), charge = 0, multiplicity = 1:

       Center              X                  Y                   Z               Mass
    ------------   -----------------  -----------------  -----------------  -----------------
         N           -0.450447075534     1.139148560301    -0.217608872330    14.003074004430
         N            1.808498924466     1.278567560301     0.352495127670    14.003074004430
         C           -1.604788075534     0.312840560301    -0.066409872330    12.000000000000
         C            0.804308924466     0.532795560301    -0.135915872330    12.000000000000
         C           -0.575940075534     2.489251560301     0.333461127670    12.000000000000
         C            1.006351924466    -0.775469439699    -0.627582872330    12.000000000000
         C            3.350135924466    -0.550826439699    -0.067737872330    12.000000000000
         C           -1.715001075534    -0.600073439699     0.992488127670    12.000000000000
         C           -2.660170075534     0.453210560301    -0.975006872330    12.000000000000
         C            2.283338924466    -1.308577439699    -0.579022872330    12.000000000000
         C            3.041333924466     0.734682560301     0.370245127670    12.000000000000
         C           -2.867721075534    -1.374447439699     1.126106127670    12.000000000000
         C           -3.818509075534    -0.310716439699    -0.825283872330    12.000000000000
         C           -3.924147075534    -1.228364439699     0.222707127670    12.000000000000
         C            4.749346924466    -1.097019439699     0.001027127670    12.000000000000
         H            0.179403924466    -1.341748439699    -1.044915872330     1.007825032230
         H           -0.441259075534     2.506891560301     1.423080127670     1.007825032230
         H           -1.574133075534     2.854863560301     0.085853127670     1.007825032230
         H            0.178388924466     3.135587560301    -0.114812872330     1.007825032230
         H           -0.894769075534    -0.699153439699     1.700206127670     1.007825032230
         H           -2.552652075534     1.154972560301    -1.798942872330     1.007825032230
         H            2.461341924466    -2.315830439699    -0.954315872330     1.007825032230
         H            3.825618924466     1.378936560301     0.769888127670     1.007825032230
         H           -2.948248075534    -2.082856439699     1.947476127670     1.007825032230
         H           -4.634397075534    -0.198028439699    -1.535389872330     1.007825032230
         H            5.108220024466    -1.419822139699    -0.981622072330     1.007825032230
         H            5.441268924466    -0.344757439699     0.390132127670     1.007825032230
         H            4.802661924466    -1.973144439699     0.655592127670     1.007825032230
         H           -4.823131075534    -1.829619439699     0.333203127670     1.007825032230

  Basis Set: AUG-CC-PVTZ
    Blend: AUG-CC-PVTZ
  Basis Set: (AUG-CC-PVTZ AUX)
    Blend: AUG-CC-PVTZ-JKFIT
	 Reference Energy          =    -609.5336977709005168 [Eh]
	 Singles Energy            =      -0.0000000000000000 [Eh]
	 Same-Spin Energy          =      -0.6811313655137213 [Eh]
	 Opposite-Spin Energy      =      -2.1307332281279221 [Eh]
	 Correlation Energy        =      -2.8118645936416433 [Eh]
	 Total Energy              =    -612.3455623645421610 [Eh]

	 ================> DF-SCS-MP2 Energies <==================
	-----------------------------------------------------------
	 SCS Same-Spin Scale       =       0.3333333333333333 [-]
	 SCS Opposite-Spin Scale   =       1.2000000000000000 [-]
	 SCS Same-Spin Energy      =      -0.2270437885045738 [Eh]
	 SCS Opposite-Spin Energy  =      -2.5568798737535063 [Eh]
	 SCS Correlation Energy    =      -2.7839236622580801 [Eh]
	 SCS Total Energy          =    -612.3176214331585925 [Eh]
	-----------------------------------------------------------

  Dipole Moment: [D]
     X:    -0.4962      Y:    -1.4689      Z:    -0.1657     Total:     1.5592

*** Psi4 exiting successfully. Buy a developer a beer!
