                               Psi4 1.4a3.dev225

  ==> Input File <==

--------------------------------------------------------------------------
#psi4
#
memory 32 gb

molecule  {
0 1
  N       -0.4697210     1.1445100    -0.2216410
  N        1.7892250     1.2839290     0.3484630
  C       -1.6240620     0.3182020    -0.0704420
  C        0.7850350     0.5381570    -0.1399480
  C       -0.5952140     2.4946130     0.3294290
  C        0.9870780    -0.7701080    -0.6316150
  C        3.3308620    -0.5454650    -0.0717700
  C       -1.7342750    -0.5947120     0.9884560
  C       -2.6794440     0.4585720    -0.9790390
  C        2.2640650    -1.3032160    -0.5830550
  C        3.0220600     0.7400440     0.3662130
  C       -2.8869950    -1.3690860     1.1220740
  C       -3.8377830    -0.3053550    -0.8293160
  C       -3.9434210    -1.2230030     0.2186750
  C        4.7300730    -1.0916580    -0.0030050
  H        0.1601300    -1.3363870    -1.0489480
  H       -0.4605330     2.5122530     1.4190480
  H       -1.5934070     2.8602250     0.0818210
  H        0.1591150     3.1409490    -0.1188450
  H       -0.9140430    -0.6937920     1.6961740
  H       -2.5719260     1.1603340    -1.8029750
  H        2.4420680    -2.3104690    -0.9583480
  H        3.8063450     1.3842980     0.7658560
  H       -2.9675220    -2.0774950     1.9434440
  H       -4.6536710    -0.1926670    -1.5394220
  H        5.0860610    -1.3967900    -0.9923270
  H        5.5485302    -0.2018262     0.4572575
  H        4.7833880    -1.9677830     0.6515600
  H       -4.8424050    -1.8242580     0.3291710
units angstrom
no_reorient  #important for SAPT in psi4, default
symmetry c1  #important for SAPT in psi4, default
}

set PROPERTIES_ORIGIN ["COM"]
properties('MP2/aug-cc-pvtz', properties = ['dipole'])
--------------------------------------------------------------------------

    Molecular point group: c1
  Charge       = 0
  Multiplicity = 1
  Basis Set: AUG-CC-PVTZ
    Blend: AUG-CC-PVTZ
  Basis Set: (AUG-CC-PVTZ AUX)
    Blend: AUG-CC-PVTZ-JKFIT

    Orbital Energies [Eh]
    ---------------------

    Doubly Occupied:

       1A    -15.573426     2A    -15.549626     3A    -11.309467
       4A    -11.275790     5A    -11.266273     6A    -11.252171
       7A    -11.248057     8A    -11.245588     9A    -11.242408
      10A    -11.242178    11A    -11.238472    12A    -11.238120
      13A    -11.237237    14A    -11.232458    15A    -11.229894
      16A     -1.290834    17A     -1.218074    18A     -1.142673
      19A     -1.090357    20A     -1.037128    21A     -1.019009
      22A     -1.008797    23A     -0.944167    24A     -0.905285
      25A     -0.846287    26A     -0.838413    27A     -0.829244
      28A     -0.785765    29A     -0.725112    30A     -0.685715
      31A     -0.672804    32A     -0.648610    33A     -0.638607
      34A     -0.622002    35A     -0.610255    36A     -0.594387
      37A     -0.587763    38A     -0.582786    39A     -0.579186
      40A     -0.562550    41A     -0.535204    42A     -0.529907
      43A     -0.523321    44A     -0.510197    45A     -0.501405
      46A     -0.500093    47A     -0.489867    48A     -0.418794
      49A     -0.411060    50A     -0.374755    51A     -0.343329
      52A     -0.339401    53A     -0.287344

  @DF-RHF Final Energy:  -609.51340777358223

   => Energetics <=

    Nuclear Repulsion Energy =            918.8149872473246660
    One-Electron Energy =               -2649.4334822721948512
    Two-Electron Energy =                1121.1050872512880687
    Total Energy =                       -609.5134077735822302
  Basis Set: (AUG-CC-PVTZ AUX)
    Blend: AUG-CC-PVTZ-RI
    Molecular point group: c1

    Geometry (in Angstrom), charge = 0, multiplicity = 1:

       Center              X                  Y                   Z               Mass
    ------------   -----------------  -----------------  -----------------  -----------------
         N           -0.451076090130     1.138358843670    -0.217936909408    14.003074004430
         N            1.807869909870     1.277777843670     0.352167090592    14.003074004430
         C           -1.605417090130     0.312050843670    -0.066737909408    12.000000000000
         C            0.803679909870     0.532005843670    -0.136243909408    12.000000000000
         C           -0.576569090130     2.488461843670     0.333133090592    12.000000000000
         C            1.005722909870    -0.776259156330    -0.627910909408    12.000000000000
         C            3.349506909870    -0.551616156330    -0.068065909408    12.000000000000
         C           -1.715630090130    -0.600863156330     0.992160090592    12.000000000000
         C           -2.660799090130     0.452420843670    -0.975334909408    12.000000000000
         C            2.282709909870    -1.309367156330    -0.579350909408    12.000000000000
         C            3.040704909870     0.733892843670     0.369917090592    12.000000000000
         C           -2.868350090130    -1.375237156330     1.125778090592    12.000000000000
         C           -3.819138090130    -0.311506156330    -0.825611909408    12.000000000000
         C           -3.924776090130    -1.229154156330     0.222379090592    12.000000000000
         C            4.748717909870    -1.097809156330     0.000699090592    12.000000000000
         H            0.178774909870    -1.342538156330    -1.045243909408     1.007825032230
         H           -0.441888090130     2.506101843670     1.422752090592     1.007825032230
         H           -1.574762090130     2.854073843670     0.085525090592     1.007825032230
         H            0.177759909870     3.134797843670    -0.115140909408     1.007825032230
         H           -0.895398090130    -0.699943156330     1.699878090592     1.007825032230
         H           -2.553281090130     1.154182843670    -1.799270909408     1.007825032230
         H            2.460712909870    -2.316620156330    -0.954643909408     1.007825032230
         H            3.824989909870     1.378146843670     0.769560090592     1.007825032230
         H           -2.948877090130    -2.083646156330     1.947148090592     1.007825032230
         H           -4.635026090130    -0.198818156330    -1.535717909408     1.007825032230
         H            5.104705909870    -1.402941156330    -0.988622909408     1.007825032230
         H            5.567175109870    -0.207977356330     0.460961590592     1.007825032230
         H            4.802032909870    -1.973934156330     0.655264090592     1.007825032230
         H           -4.823760090130    -1.830409156330     0.332875090592     1.007825032230

  Basis Set: AUG-CC-PVTZ
    Blend: AUG-CC-PVTZ
  Basis Set: (AUG-CC-PVTZ AUX)
    Blend: AUG-CC-PVTZ-JKFIT
	 Reference Energy          =    -609.5134077735822302 [Eh]
	 Singles Energy            =      -0.0000000000000000 [Eh]
	 Same-Spin Energy          =      -0.6812064176905331 [Eh]
	 Opposite-Spin Energy      =      -2.1324894832961623 [Eh]
	 Correlation Energy        =      -2.8136959009866955 [Eh]
	 Total Energy              =    -612.3271036745688889 [Eh]

	 ================> DF-SCS-MP2 Energies <==================
	-----------------------------------------------------------
	 SCS Same-Spin Scale       =       0.3333333333333333 [-]
	 SCS Opposite-Spin Scale   =       1.2000000000000000 [-]
	 SCS Same-Spin Energy      =      -0.2270688058968444 [Eh]
	 SCS Opposite-Spin Energy  =      -2.5589873799553948 [Eh]
	 SCS Correlation Energy    =      -2.7860561858522392 [Eh]
	 SCS Total Energy          =    -612.2994639594344335 [Eh]
	-----------------------------------------------------------

  Dipole Moment: [D]
     X:    -0.6408      Y:    -1.5078      Z:    -0.2059     Total:     1.6512

*** Psi4 exiting successfully. Buy a developer a beer!
