                               Psi4 1.4a3.dev225

  ==> Input File <==

--------------------------------------------------------------------------
#psi4
#
memory 32 gb

molecule  {
0 1
  N       -0.4697210     1.1445100    -0.2216410
  N        1.7892250     1.2839290     0.3484630
  C       -1.6240620     0.3182020    -0.0704420
  C        0.7850350     0.5381570    -0.1399480
  C       -0.5952140     2.4946130     0.3294290
  C        0.9870780    -0.7701080    -0.6316150
  C        3.3308620    -0.5454650    -0.0717700
  C       -1.7342750    -0.5947120     0.9884560
  C       -2.6794440     0.4585720    -0.9790390
  C        2.2640650    -1.3032160    -0.5830550
  C        3.0220600     0.7400440     0.3662130
  C       -2.8869950    -1.3690860     1.1220740
  C       -3.8377830    -0.3053550    -0.8293160
  C       -3.8899386    -1.1559087     0.1722501
  C        4.7300730    -1.0916580    -0.0030050
  H        0.1601300    -1.3363870    -1.0489480
  H       -0.4605330     2.5122530     1.4190480
  H       -1.5934070     2.8602250     0.0818210
  H        0.1591150     3.1409490    -0.1188450
  H       -0.9140430    -0.6937920     1.6961740
  H       -2.5719260     1.1603340    -1.8029750
  H        2.4420680    -2.3104690    -0.9583480
  H        3.8063450     1.3842980     0.7658560
  H       -2.9675220    -2.0774950     1.9434440
  H       -4.6536710    -0.1926670    -1.5394220
  H        5.0860610    -1.3967900    -0.9923270
  H        5.4219950    -0.3393960     0.3861000
  H        4.7833880    -1.9677830     0.6515600
  H       -4.8424050    -1.8242580     0.3291710
units angstrom
no_reorient  #important for SAPT in psi4, default
symmetry c1  #important for SAPT in psi4, default
}

set PROPERTIES_ORIGIN ["COM"]
properties('MP2/aug-cc-pvtz', properties = ['dipole'])
--------------------------------------------------------------------------

    Molecular point group: c1
  Charge       = 0
  Multiplicity = 1
  Basis Set: AUG-CC-PVTZ
    Blend: AUG-CC-PVTZ
  Basis Set: (AUG-CC-PVTZ AUX)
    Blend: AUG-CC-PVTZ-JKFIT

    Orbital Energies [Eh]
    ---------------------

    Doubly Occupied:

       1A    -15.572324     2A    -15.548853     3A    -11.308426
       4A    -11.273505     5A    -11.265570     6A    -11.250284
       7A    -11.244721     8A    -11.241921     9A    -11.238418
      10A    -11.237213    11A    -11.236489    12A    -11.231276
      13A    -11.230309    14A    -11.228840    15A    -11.225159
      16A     -1.289880    17A     -1.217617    18A     -1.152246
      19A     -1.090106    20A     -1.037877    21A     -1.026401
      22A     -1.008056    23A     -0.949281    24A     -0.906640
      25A     -0.847001    26A     -0.839938    27A     -0.831076
      28A     -0.784453    29A     -0.726411    30A     -0.679210
      31A     -0.672524    32A     -0.649974    33A     -0.637162
      34A     -0.623767    35A     -0.612002    36A     -0.601008
      37A     -0.586672    38A     -0.583242    39A     -0.576576
      40A     -0.558908    41A     -0.542731    42A     -0.531896
      43A     -0.523444    44A     -0.514954    45A     -0.509860
      46A     -0.507244    47A     -0.483311    48A     -0.418664
      49A     -0.410238    50A     -0.373668    51A     -0.351093
      52A     -0.336570    53A     -0.287041

  @DF-RHF Final Energy:  -609.52155527045352

   => Energetics <=

    Nuclear Repulsion Energy =            921.4622771564779669
    One-Electron Energy =               -2654.7435688420887345
    Two-Electron Energy =                1123.7597364151572492
    Total Energy =                       -609.5215552704535185
  Basis Set: (AUG-CC-PVTZ AUX)
    Blend: AUG-CC-PVTZ-RI
    Molecular point group: c1

    Geometry (in Angstrom), charge = 0, multiplicity = 1:

       Center              X                  Y                   Z               Mass
    ------------   -----------------  -----------------  -----------------  -----------------
         N           -0.453671863518     1.134994722012    -0.214762940285    14.003074004430
         N            1.805274136482     1.274413722012     0.355341059715    14.003074004430
         C           -1.608012863518     0.308686722012    -0.063563940285    12.000000000000
         C            0.801084136482     0.528641722012    -0.133069940285    12.000000000000
         C           -0.579164863518     2.485097722012     0.336307059715    12.000000000000
         C            1.003127136482    -0.779623277988    -0.624736940285    12.000000000000
         C            3.346911136482    -0.554980277988    -0.064891940285    12.000000000000
         C           -1.718225863518    -0.604227277988     0.995334059715    12.000000000000
         C           -2.663394863518     0.449056722012    -0.972160940285    12.000000000000
         C            2.280114136482    -1.312731277988    -0.576176940285    12.000000000000
         C            3.038109136482     0.730528722012     0.373091059715    12.000000000000
         C           -2.870945863518    -1.378601277988     1.128952059715    12.000000000000
         C           -3.821733863518    -0.314870277988    -0.822437940285    12.000000000000
         C           -3.873889463518    -1.165423977988     0.179128159715    12.000000000000
         C            4.746122136482    -1.101173277988     0.003873059715    12.000000000000
         H            0.176179136482    -1.345902277988    -1.042069940285     1.007825032230
         H           -0.444483863518     2.502737722012     1.425926059715     1.007825032230
         H           -1.577357863518     2.850709722012     0.088699059715     1.007825032230
         H            0.175164136482     3.131433722012    -0.111966940285     1.007825032230
         H           -0.897993863518    -0.703307277988     1.703052059715     1.007825032230
         H           -2.555876863518     1.150818722012    -1.796096940285     1.007825032230
         H            2.458117136482    -2.319984277988    -0.951469940285     1.007825032230
         H            3.822394136482     1.374782722012     0.772734059715     1.007825032230
         H           -2.951472863518    -2.087010277988     1.950322059715     1.007825032230
         H           -4.637621863518    -0.202182277988    -1.532543940285     1.007825032230
         H            5.102110136482    -1.406305277988    -0.985448940285     1.007825032230
         H            5.438044136482    -0.348911277988     0.392978059715     1.007825032230
         H            4.799437136482    -1.977298277988     0.658438059715     1.007825032230
         H           -4.826355863518    -1.833773277988     0.336049059715     1.007825032230

  Basis Set: AUG-CC-PVTZ
    Blend: AUG-CC-PVTZ
  Basis Set: (AUG-CC-PVTZ AUX)
    Blend: AUG-CC-PVTZ-JKFIT
	 Reference Energy          =    -609.5215552704535185 [Eh]
	 Singles Energy            =      -0.0000000000000000 [Eh]
	 Same-Spin Energy          =      -0.6813325900591612 [Eh]
	 Opposite-Spin Energy      =      -2.1310008566029905 [Eh]
	 Correlation Energy        =      -2.8123334466621519 [Eh]
	 Total Energy              =    -612.3338887171156557 [Eh]

	 ================> DF-SCS-MP2 Energies <==================
	-----------------------------------------------------------
	 SCS Same-Spin Scale       =       0.3333333333333333 [-]
	 SCS Opposite-Spin Scale   =       1.2000000000000000 [-]
	 SCS Same-Spin Energy      =      -0.2271108633530537 [Eh]
	 SCS Opposite-Spin Energy  =      -2.5572010279235884 [Eh]
	 SCS Correlation Energy    =      -2.7843118912766420 [Eh]
	 SCS Total Energy          =    -612.3058671617301343 [Eh]
	-----------------------------------------------------------

  Dipole Moment: [D]
     X:    -0.4603      Y:    -1.4422      Z:    -0.1595     Total:     1.5223

*** Psi4 exiting successfully. Buy a developer a beer!
