                               Psi4 1.4a3.dev225

  ==> Input File <==

--------------------------------------------------------------------------
#psi4
#
memory 32 gb

molecule  {
0 1
  N       -0.4697210     1.1445100    -0.2216410
  N        1.7892250     1.2839290     0.3484630
  C       -1.6240620     0.3182020    -0.0704420
  C        0.7850350     0.5381570    -0.1399480
  C       -0.5952140     2.4946130     0.3294290
  C        0.9870780    -0.7701080    -0.6316150
  C        3.3308620    -0.5454650    -0.0717700
  C       -1.7342750    -0.5947120     0.9884560
  C       -2.6994035     0.4796121    -1.0181793
  C        2.2640650    -1.3032160    -0.5830550
  C        3.0220600     0.7400440     0.3662130
  C       -2.8869950    -1.3690860     1.1220740
  C       -3.8377830    -0.3053550    -0.8293160
  C       -3.9434210    -1.2230030     0.2186750
  C        4.7300730    -1.0916580    -0.0030050
  H        0.1601300    -1.3363870    -1.0489480
  H       -0.4605330     2.5122530     1.4190480
  H       -1.5934070     2.8602250     0.0818210
  H        0.1591150     3.1409490    -0.1188450
  H       -0.9140430    -0.6937920     1.6961740
  H       -2.5719260     1.1603340    -1.8029750
  H        2.4420680    -2.3104690    -0.9583480
  H        3.8063450     1.3842980     0.7658560
  H       -2.9675220    -2.0774950     1.9434440
  H       -4.6536710    -0.1926670    -1.5394220
  H        5.0860610    -1.3967900    -0.9923270
  H        5.4219950    -0.3393960     0.3861000
  H        4.7833880    -1.9677830     0.6515600
  H       -4.8424050    -1.8242580     0.3291710
units angstrom
no_reorient  #important for SAPT in psi4, default
symmetry c1  #important for SAPT in psi4, default
}

set PROPERTIES_ORIGIN ["COM"]
properties('MP2/aug-cc-pvtz', properties = ['dipole'])
--------------------------------------------------------------------------

    Molecular point group: c1
  Charge       = 0
  Multiplicity = 1
  Basis Set: AUG-CC-PVTZ
    Blend: AUG-CC-PVTZ
  Basis Set: (AUG-CC-PVTZ AUX)
    Blend: AUG-CC-PVTZ-JKFIT

    Orbital Energies [Eh]
    ---------------------

    Doubly Occupied:

       1A    -15.572930     2A    -15.549009     3A    -11.308562
       4A    -11.280170     5A    -11.265530     6A    -11.250196
       7A    -11.245365     8A    -11.242965     9A    -11.242338
      10A    -11.238147    11A    -11.237915    12A    -11.237457
      13A    -11.230384    14A    -11.228849    15A    -11.225176
      16A     -1.289927    17A     -1.216640    18A     -1.139389
      19A     -1.089888    20A     -1.037620    21A     -1.019922
      22A     -1.005266    23A     -0.949402    24A     -0.907620
      25A     -0.846940    26A     -0.837048    27A     -0.832268
      28A     -0.784201    29A     -0.723131    30A     -0.689449
      31A     -0.674436    32A     -0.648891    33A     -0.638226
      34A     -0.621656    35A     -0.609444    36A     -0.595422
      37A     -0.590086    38A     -0.582957    39A     -0.576753
      40A     -0.561278    41A     -0.543289    42A     -0.534526
      43A     -0.523408    44A     -0.517289    45A     -0.509432
      46A     -0.498176    47A     -0.495257    48A     -0.417472
      49A     -0.410211    50A     -0.373599    51A     -0.344308
      52A     -0.335429    53A     -0.285751

  @DF-RHF Final Energy:  -609.52993446347773

   => Energetics <=

    Nuclear Repulsion Energy =            918.6625715757579655
    One-Electron Energy =               -2649.1630064498158390
    Two-Electron Energy =                1120.9705004105801436
    Total Energy =                       -609.5299344634777299
  Basis Set: (AUG-CC-PVTZ AUX)
    Blend: AUG-CC-PVTZ-RI
    Molecular point group: c1

    Geometry (in Angstrom), charge = 0, multiplicity = 1:

       Center              X                  Y                   Z               Mass
    ------------   -----------------  -----------------  -----------------  -----------------
         N           -0.449223438649     1.137784255625    -0.215204173366    14.003074004430
         N            1.809722561351     1.277203255625     0.354899826634    14.003074004430
         C           -1.603564438649     0.311476255625    -0.064005173366    12.000000000000
         C            0.805532561351     0.531431255625    -0.133511173366    12.000000000000
         C           -0.574716438649     2.487887255625     0.335865826634    12.000000000000
         C            1.007575561351    -0.776833744375    -0.625178173366    12.000000000000
         C            3.351359561351    -0.552190744375    -0.065333173366    12.000000000000
         C           -1.713777438649    -0.601437744375     0.994892826634    12.000000000000
         C           -2.678905938649     0.472886355625    -1.011742473366    12.000000000000
         C            2.284562561351    -1.309941744375    -0.576618173366    12.000000000000
         C            3.042557561351     0.733318255625     0.372649826634    12.000000000000
         C           -2.866497438649    -1.375811744375     1.128510826634    12.000000000000
         C           -3.817285438649    -0.312080744375    -0.822879173366    12.000000000000
         C           -3.922923438649    -1.229728744375     0.225111826634    12.000000000000
         C            4.750570561351    -1.098383744375     0.003431826634    12.000000000000
         H            0.180627561351    -1.343112744375    -1.042511173366     1.007825032230
         H           -0.440035438649     2.505527255625     1.425484826634     1.007825032230
         H           -1.572909438649     2.853499255625     0.088257826634     1.007825032230
         H            0.179612561351     3.134223255625    -0.112408173366     1.007825032230
         H           -0.893545438649    -0.700517744375     1.702610826634     1.007825032230
         H           -2.551428438649     1.153608255625    -1.796538173366     1.007825032230
         H            2.462565561351    -2.317194744375    -0.951911173366     1.007825032230
         H            3.826842561351     1.377572255625     0.772292826634     1.007825032230
         H           -2.947024438649    -2.084220744375     1.949880826634     1.007825032230
         H           -4.633173438649    -0.199392744375    -1.532985173366     1.007825032230
         H            5.106558561351    -1.403515744375    -0.985890173366     1.007825032230
         H            5.442492561351    -0.346121744375     0.392536826634     1.007825032230
         H            4.803885561351    -1.974508744375     0.657996826634     1.007825032230
         H           -4.821907438649    -1.830983744375     0.335607826634     1.007825032230

  Basis Set: AUG-CC-PVTZ
    Blend: AUG-CC-PVTZ
  Basis Set: (AUG-CC-PVTZ AUX)
    Blend: AUG-CC-PVTZ-JKFIT
	 Reference Energy          =    -609.5299344634777299 [Eh]
	 Singles Energy            =      -0.0000000000000000 [Eh]
	 Same-Spin Energy          =      -0.6811890801018260 [Eh]
	 Opposite-Spin Energy      =      -2.1311776474843325 [Eh]
	 Correlation Energy        =      -2.8123667275861584 [Eh]
	 Total Energy              =    -612.3423011910639389 [Eh]

	 ================> DF-SCS-MP2 Energies <==================
	-----------------------------------------------------------
	 SCS Same-Spin Scale       =       0.3333333333333333 [-]
	 SCS Opposite-Spin Scale   =       1.2000000000000000 [-]
	 SCS Same-Spin Energy      =      -0.2270630267006087 [Eh]
	 SCS Opposite-Spin Energy  =      -2.5574131769811990 [Eh]
	 SCS Correlation Energy    =      -2.7844762036818076 [Eh]
	 SCS Total Energy          =    -612.3144106671595637 [Eh]
	-----------------------------------------------------------

  Dipole Moment: [D]
     X:    -0.4706      Y:    -1.4504      Z:    -0.1673     Total:     1.5340

*** Psi4 exiting successfully. Buy a developer a beer!
