                               Psi4 1.4a3.dev225

  ==> Input File <==

--------------------------------------------------------------------------
#psi4
#
memory 32 gb

molecule  {
0 1
  N       -0.4697210     1.1445100    -0.2216410
  N        1.7892250     1.2839290     0.3484630
  C       -1.6240620     0.3182020    -0.0704420
  C        0.7850350     0.5381570    -0.1399480
  C       -0.5952140     2.4946130     0.3294290
  C        0.9870780    -0.7701080    -0.6316150
  C        3.3308620    -0.5454650    -0.0717700
  C       -1.7342750    -0.5947120     0.9884560
  C       -2.6794440     0.4585720    -0.9790390
  C        2.2640650    -1.3032160    -0.5830550
  C        3.0220600     0.7400440     0.3662130
  C       -2.8869950    -1.3690860     1.1220740
  C       -3.9207813    -0.3600925    -0.8185879
  C       -3.9434210    -1.2230030     0.2186750
  C        4.7300730    -1.0916580    -0.0030050
  H        0.1601300    -1.3363870    -1.0489480
  H       -0.4605330     2.5122530     1.4190480
  H       -1.5934070     2.8602250     0.0818210
  H        0.1591150     3.1409490    -0.1188450
  H       -0.9140430    -0.6937920     1.6961740
  H       -2.5719260     1.1603340    -1.8029750
  H        2.4420680    -2.3104690    -0.9583480
  H        3.8063450     1.3842980     0.7658560
  H       -2.9675220    -2.0774950     1.9434440
  H       -4.6536710    -0.1926670    -1.5394220
  H        5.0860610    -1.3967900    -0.9923270
  H        5.4219950    -0.3393960     0.3861000
  H        4.7833880    -1.9677830     0.6515600
  H       -4.8424050    -1.8242580     0.3291710
units angstrom
no_reorient  #important for SAPT in psi4, default
symmetry c1  #important for SAPT in psi4, default
}

set PROPERTIES_ORIGIN ["COM"]
properties('MP2/aug-cc-pvtz', properties = ['dipole'])
--------------------------------------------------------------------------

    Molecular point group: c1
  Charge       = 0
  Multiplicity = 1
  Basis Set: AUG-CC-PVTZ
    Blend: AUG-CC-PVTZ
  Basis Set: (AUG-CC-PVTZ AUX)
    Blend: AUG-CC-PVTZ-JKFIT

    Orbital Energies [Eh]
    ---------------------

    Doubly Occupied:

       1A    -15.572523     2A    -15.549009     3A    -11.308528
       4A    -11.274642     5A    -11.265668     6A    -11.250352
       7A    -11.245494     8A    -11.244650     9A    -11.242676
      10A    -11.242549    11A    -11.239707    12A    -11.234243
      13A    -11.230437    14A    -11.228911    15A    -11.225209
      16A     -1.289950    17A     -1.216921    18A     -1.139512
      19A     -1.090071    20A     -1.038191    21A     -1.018953
      22A     -1.005226    23A     -0.949297    24A     -0.906728
      25A     -0.847162    26A     -0.842665    27A     -0.828647
      28A     -0.784792    29A     -0.725991    30A     -0.684002
      31A     -0.674158    32A     -0.652182    33A     -0.637797
      34A     -0.624282    35A     -0.614957    36A     -0.596430
      37A     -0.586032    38A     -0.580333    39A     -0.575933
      40A     -0.561189    41A     -0.543080    42A     -0.532684
      43A     -0.523294    44A     -0.515659    45A     -0.510195
      46A     -0.499854    47A     -0.489874    48A     -0.418584
      49A     -0.410327    50A     -0.373575    51A     -0.349111
      52A     -0.329401    53A     -0.287746

  @DF-RHF Final Energy:  -609.52219950626591

   => Energetics <=

    Nuclear Repulsion Energy =            918.2792772106093935
    One-Electron Energy =               -2648.3841846590321438
    Two-Electron Energy =                1120.5827079421567305
    Total Energy =                       -609.5221995062659062
  Basis Set: (AUG-CC-PVTZ AUX)
    Blend: AUG-CC-PVTZ-RI
    Molecular point group: c1

    Geometry (in Angstrom), charge = 0, multiplicity = 1:

       Center              X                  Y                   Z               Mass
    ------------   -----------------  -----------------  -----------------  -----------------
         N           -0.445405136486     1.142374155401    -0.218224735616    14.003074004430
         N            1.813540863514     1.281793155401     0.351879264384    14.003074004430
         C           -1.599746136486     0.316066155401    -0.067025735616    12.000000000000
         C            0.809350863514     0.536021155401    -0.136531735616    12.000000000000
         C           -0.570898136486     2.492477155401     0.332845264384    12.000000000000
         C            1.011393863514    -0.772243844599    -0.628198735616    12.000000000000
         C            3.355177863514    -0.547600844599    -0.068353735616    12.000000000000
         C           -1.709959136486    -0.596847844599     0.991872264384    12.000000000000
         C           -2.655128136486     0.456436155401    -0.975622735616    12.000000000000
         C            2.288380863514    -1.305351844599    -0.579638735616    12.000000000000
         C            3.046375863514     0.737908155401     0.369629264384    12.000000000000
         C           -2.862679136486    -1.371221844599     1.125490264384    12.000000000000
         C           -3.896465436486    -0.362228344599    -0.815171635616    12.000000000000
         C           -3.919105136486    -1.225138844599     0.222091264384    12.000000000000
         C            4.754388863514    -1.093793844599     0.000411264384    12.000000000000
         H            0.184445863514    -1.338522844599    -1.045531735616     1.007825032230
         H           -0.436217136486     2.510117155401     1.422464264384     1.007825032230
         H           -1.569091136486     2.858089155401     0.085237264384     1.007825032230
         H            0.183430863514     3.138813155401    -0.115428735616     1.007825032230
         H           -0.889727136486    -0.695927844599     1.699590264384     1.007825032230
         H           -2.547610136486     1.158198155401    -1.799558735616     1.007825032230
         H            2.466383863514    -2.312604844599    -0.954931735616     1.007825032230
         H            3.830660863514     1.382162155401     0.769272264384     1.007825032230
         H           -2.943206136486    -2.079630844599     1.946860264384     1.007825032230
         H           -4.629355136486    -0.194802844599    -1.536005735616     1.007825032230
         H            5.110376863514    -1.398925844599    -0.988910735616     1.007825032230
         H            5.446310863514    -0.341531844599     0.389516264384     1.007825032230
         H            4.807703863514    -1.969918844599     0.654976264384     1.007825032230
         H           -4.818089136486    -1.826393844599     0.332587264384     1.007825032230

  Basis Set: AUG-CC-PVTZ
    Blend: AUG-CC-PVTZ
  Basis Set: (AUG-CC-PVTZ AUX)
    Blend: AUG-CC-PVTZ-JKFIT
	 Reference Energy          =    -609.5221995062659062 [Eh]
	 Singles Energy            =      -0.0000000000000000 [Eh]
	 Same-Spin Energy          =      -0.6808979335673447 [Eh]
	 Opposite-Spin Energy      =      -2.1315020772458015 [Eh]
	 Correlation Energy        =      -2.8124000108131462 [Eh]
	 Total Energy              =    -612.3345995170790275 [Eh]

	 ================> DF-SCS-MP2 Energies <==================
	-----------------------------------------------------------
	 SCS Same-Spin Scale       =       0.3333333333333333 [-]
	 SCS Opposite-Spin Scale   =       1.2000000000000000 [-]
	 SCS Same-Spin Energy      =      -0.2269659778557816 [Eh]
	 SCS Opposite-Spin Energy  =      -2.5578024926949618 [Eh]
	 SCS Correlation Energy    =      -2.7847684705507434 [Eh]
	 SCS Total Energy          =    -612.3069679768166225 [Eh]
	-----------------------------------------------------------

  Dipole Moment: [D]
     X:    -0.4983      Y:    -1.4585      Z:    -0.1816     Total:     1.5520

*** Psi4 exiting successfully. Buy a developer a beer!
