                               Psi4 1.4a3.dev225

  ==> Input File <==

--------------------------------------------------------------------------
#psi4
#
memory 32 gb

molecule  {
0 1
  N       -0.4697210     1.1445100    -0.2216410
  N        1.7892250     1.2839290     0.3484630
  C       -1.6240620     0.3182020    -0.0704420
  C        0.7850350     0.5381570    -0.1399480
  C       -0.5952140     2.4946130     0.3294290
  C        0.9870780    -0.7701080    -0.6316150
  C        3.3308620    -0.5454650    -0.0717700
  C       -1.7303457    -0.5621645     0.9507039
  C       -2.6794440     0.4585720    -0.9790390
  C        2.2640650    -1.3032160    -0.5830550
  C        3.0220600     0.7400440     0.3662130
  C       -2.8869950    -1.3690860     1.1220740
  C       -3.8377830    -0.3053550    -0.8293160
  C       -3.9434210    -1.2230030     0.2186750
  C        4.7300730    -1.0916580    -0.0030050
  H        0.1601300    -1.3363870    -1.0489480
  H       -0.4605330     2.5122530     1.4190480
  H       -1.5934070     2.8602250     0.0818210
  H        0.1591150     3.1409490    -0.1188450
  H       -0.9140430    -0.6937920     1.6961740
  H       -2.5719260     1.1603340    -1.8029750
  H        2.4420680    -2.3104690    -0.9583480
  H        3.8063450     1.3842980     0.7658560
  H       -2.9675220    -2.0774950     1.9434440
  H       -4.6536710    -0.1926670    -1.5394220
  H        5.0860610    -1.3967900    -0.9923270
  H        5.4219950    -0.3393960     0.3861000
  H        4.7833880    -1.9677830     0.6515600
  H       -4.8424050    -1.8242580     0.3291710
units angstrom
no_reorient  #important for SAPT in psi4, default
symmetry c1  #important for SAPT in psi4, default
}

set PROPERTIES_ORIGIN ["COM"]
properties('MP2/aug-cc-pvtz', properties = ['dipole'])
--------------------------------------------------------------------------

    Molecular point group: c1
  Charge       = 0
  Multiplicity = 1
  Basis Set: AUG-CC-PVTZ
    Blend: AUG-CC-PVTZ
  Basis Set: (AUG-CC-PVTZ AUX)
    Blend: AUG-CC-PVTZ-JKFIT

    Orbital Energies [Eh]
    ---------------------

    Doubly Occupied:

       1A    -15.571955     2A    -15.548568     3A    -11.308292
       4A    -11.269665     5A    -11.265226     6A    -11.249952
       7A    -11.244972     8A    -11.244646     9A    -11.241662
      10A    -11.238580    11A    -11.237537    12A    -11.236939
      13A    -11.229982    14A    -11.228600    15A    -11.224920
      16A     -1.290391    17A     -1.218249    18A     -1.143706
      19A     -1.089610    20A     -1.037762    21A     -1.017951
      22A     -1.011674    23A     -0.949094    24A     -0.907054
      25A     -0.846702    26A     -0.838943    27A     -0.831553
      28A     -0.785555    29A     -0.725019    30A     -0.683990
      31A     -0.673850    32A     -0.649347    33A     -0.637143
      34A     -0.622323    35A     -0.612331    36A     -0.593992
      37A     -0.587650    38A     -0.580844    39A     -0.576166
      40A     -0.561269    41A     -0.542954    42A     -0.533824
      43A     -0.523016    44A     -0.514430    45A     -0.509470
      46A     -0.502216    47A     -0.494285    48A     -0.418365
      49A     -0.410085    50A     -0.373273    51A     -0.347632
      52A     -0.335914    53A     -0.287252

  @DF-RHF Final Energy:  -609.53101956516616

   => Energetics <=

    Nuclear Repulsion Energy =            920.4199745085211362
    One-Electron Energy =               -2652.6892283668303207
    Two-Electron Energy =                1122.7382342931430230
    Total Energy =                       -609.5310195651661616
  Basis Set: (AUG-CC-PVTZ AUX)
    Blend: AUG-CC-PVTZ-RI
    Molecular point group: c1

    Geometry (in Angstrom), charge = 0, multiplicity = 1:

       Center              X                  Y                   Z               Mass
    ------------   -----------------  -----------------  -----------------  -----------------
         N           -0.450670399199     1.137087244731    -0.215288257566    14.003074004430
         N            1.808275600801     1.276506244731     0.354815742434    14.003074004430
         C           -1.605011399199     0.310779244731    -0.064089257566    12.000000000000
         C            0.804085600801     0.530734244731    -0.133595257566    12.000000000000
         C           -0.576163399199     2.487190244731     0.335781742434    12.000000000000
         C            1.006128600801    -0.777530755269    -0.625262257566    12.000000000000
         C            3.349912600801    -0.552887755269    -0.065417257566    12.000000000000
         C           -1.711295099199    -0.569587255269     0.957056642434    12.000000000000
         C           -2.660393399199     0.451149244731    -0.972686257566    12.000000000000
         C            2.283115600801    -1.310638755269    -0.576702257566    12.000000000000
         C            3.041110600801     0.732621244731     0.372565742434    12.000000000000
         C           -2.867944399199    -1.376508755269     1.128426742434    12.000000000000
         C           -3.818732399199    -0.312777755269    -0.822963257566    12.000000000000
         C           -3.924370399199    -1.230425755269     0.225027742434    12.000000000000
         C            4.749123600801    -1.099080755269     0.003347742434    12.000000000000
         H            0.179180600801    -1.343809755269    -1.042595257566     1.007825032230
         H           -0.441482399199     2.504830244731     1.425400742434     1.007825032230
         H           -1.574356399199     2.852802244731     0.088173742434     1.007825032230
         H            0.178165600801     3.133526244731    -0.112492257566     1.007825032230
         H           -0.894992399199    -0.701214755269     1.702526742434     1.007825032230
         H           -2.552875399199     1.152911244731    -1.796622257566     1.007825032230
         H            2.461118600801    -2.317891755269    -0.951995257566     1.007825032230
         H            3.825395600801     1.376875244731     0.772208742434     1.007825032230
         H           -2.948471399199    -2.084917755269     1.949796742434     1.007825032230
         H           -4.634620399199    -0.200089755269    -1.533069257566     1.007825032230
         H            5.105111600801    -1.404212755269    -0.985974257566     1.007825032230
         H            5.441045600801    -0.346818755269     0.392452742434     1.007825032230
         H            4.802438600801    -1.975205755269     0.657912742434     1.007825032230
         H           -4.823354399199    -1.831680755269     0.335523742434     1.007825032230

  Basis Set: AUG-CC-PVTZ
    Blend: AUG-CC-PVTZ
  Basis Set: (AUG-CC-PVTZ AUX)
    Blend: AUG-CC-PVTZ-JKFIT
	 Reference Energy          =    -609.5310195651661616 [Eh]
	 Singles Energy            =      -0.0000000000000000 [Eh]
	 Same-Spin Energy          =      -0.6810658560332271 [Eh]
	 Opposite-Spin Energy      =      -2.1306938108183449 [Eh]
	 Correlation Energy        =      -2.8117596668515721 [Eh]
	 Total Energy              =    -612.3427792320177332 [Eh]

	 ================> DF-SCS-MP2 Energies <==================
	-----------------------------------------------------------
	 SCS Same-Spin Scale       =       0.3333333333333333 [-]
	 SCS Opposite-Spin Scale   =       1.2000000000000000 [-]
	 SCS Same-Spin Energy      =      -0.2270219520110757 [Eh]
	 SCS Opposite-Spin Energy  =      -2.5568325729820138 [Eh]
	 SCS Correlation Energy    =      -2.7838545249930897 [Eh]
	 SCS Total Energy          =    -612.3148740901592646 [Eh]
	-----------------------------------------------------------

  Dipole Moment: [D]
     X:    -0.5467      Y:    -1.4887      Z:    -0.1541     Total:     1.5934

*** Psi4 exiting successfully. Buy a developer a beer!
