                               Psi4 1.4a3.dev225

  ==> Input File <==

--------------------------------------------------------------------------
#psi4
#
memory 32 gb

molecule  {
0 1
  N       -0.4697210     1.1445100    -0.2216410
  N        1.7892250     1.2839290     0.3484630
  C       -1.6240620     0.3182020    -0.0704420
  C        0.7850350     0.5381570    -0.1399480
  C       -0.5952140     2.4946130     0.3294290
  C        0.9870780    -0.7701080    -0.6316150
  C        3.3308620    -0.5454650    -0.0717700
  C       -1.7342750    -0.5947120     0.9884560
  C       -2.6794440     0.4585720    -0.9790390
  C        2.2640650    -1.3032160    -0.5830550
  C        3.0220600     0.7400440     0.3662130
  C       -2.8869950    -1.3690860     1.1220740
  C       -3.8377830    -0.3053550    -0.8293160
  C       -3.9434210    -1.2230030     0.2186750
  C        4.7300730    -1.0916580    -0.0030050
  H        0.1601300    -1.3363870    -1.0489480
  H       -0.4605330     2.5122530     1.4190480
  H       -1.5934070     2.8602250     0.0818210
  H        0.1591150     3.1409490    -0.1188450
  H       -0.9140430    -0.6937920     1.6961740
  H       -2.5719260     1.1603340    -1.8029750
  H        2.4420680    -2.3104690    -0.9583480
  H        3.8063450     1.3842980     0.7658560
  H       -2.9675220    -2.0774950     1.9434440
  H       -4.6536710    -0.1926670    -1.5394220
  H        5.0860610    -1.3967900    -0.9923270
  H        5.4536288    -0.3050035     0.4038894
  H        4.7833880    -1.9677830     0.6515600
  H       -4.8424050    -1.8242580     0.3291710
units angstrom
no_reorient  #important for SAPT in psi4, default
symmetry c1  #important for SAPT in psi4, default
}

set PROPERTIES_ORIGIN ["COM"]
properties('MP2/aug-cc-pvtz', properties = ['dipole'])
--------------------------------------------------------------------------

    Molecular point group: c1
  Charge       = 0
  Multiplicity = 1
  Basis Set: AUG-CC-PVTZ
    Blend: AUG-CC-PVTZ
  Basis Set: (AUG-CC-PVTZ AUX)
    Blend: AUG-CC-PVTZ-JKFIT

    Orbital Energies [Eh]
    ---------------------

    Doubly Occupied:

       1A    -15.572952     2A    -15.549135     3A    -11.308789
       4A    -11.275461     5A    -11.265713     6A    -11.250677
       7A    -11.245271     8A    -11.242120     9A    -11.241896
      10A    -11.238183    11A    -11.237800    12A    -11.236928
      13A    -11.231390    14A    -11.230623    15A    -11.229121
      16A     -1.290315    17A     -1.217549    18A     -1.142352
      19A     -1.089880    20A     -1.037580    21A     -1.018745
      22A     -1.008747    23A     -0.947515    24A     -0.906758
      25A     -0.846674    26A     -0.838960    27A     -0.829200
      28A     -0.785567    29A     -0.724687    30A     -0.685464
      31A     -0.673793    32A     -0.648322    33A     -0.638253
      34A     -0.622378    35A     -0.609762    36A     -0.593947
      37A     -0.587720    38A     -0.583271    39A     -0.577245
      40A     -0.561749    41A     -0.538171    42A     -0.534154
      43A     -0.523341    44A     -0.512916    45A     -0.507187
      46A     -0.500079    47A     -0.498676    48A     -0.418216
      49A     -0.410492    50A     -0.373880    51A     -0.342945
      52A     -0.339060    53A     -0.286688

  @DF-RHF Final Energy:  -609.53156745497756

   => Energetics <=

    Nuclear Repulsion Energy =            919.3921341822176601
    One-Electron Energy =               -2650.6308015123436235
    Two-Electron Energy =                1121.7070998751482875
    Total Energy =                       -609.5315674549776759
  Basis Set: (AUG-CC-PVTZ AUX)
    Blend: AUG-CC-PVTZ-RI
    Molecular point group: c1

    Geometry (in Angstrom), charge = 0, multiplicity = 1:

       Center              X                  Y                   Z               Mass
    ------------   -----------------  -----------------  -----------------  -----------------
         N           -0.450593321690     1.138883712050    -0.217665423062    14.003074004430
         N            1.808352678310     1.278302712050     0.352438576938    14.003074004430
         C           -1.604934321690     0.312575712050    -0.066466423062    12.000000000000
         C            0.804162678310     0.532530712050    -0.135972423062    12.000000000000
         C           -0.576086321690     2.488986712050     0.333404576938    12.000000000000
         C            1.006205678310    -0.775734287950    -0.627639423062    12.000000000000
         C            3.349989678310    -0.551091287950    -0.067794423062    12.000000000000
         C           -1.715147321690    -0.600338287950     0.992431576938    12.000000000000
         C           -2.660316321690     0.452945712050    -0.975063423062    12.000000000000
         C            2.283192678310    -1.308842287950    -0.579079423062    12.000000000000
         C            3.041187678310     0.734417712050     0.370188576938    12.000000000000
         C           -2.867867321690    -1.374712287950     1.126049576938    12.000000000000
         C           -3.818655321690    -0.310981287950    -0.825340423062    12.000000000000
         C           -3.924293321690    -1.228629287950     0.222650576938    12.000000000000
         C            4.749200678310    -1.097284287950     0.000970576938    12.000000000000
         H            0.179257678310    -1.342013287950    -1.044972423062     1.007825032230
         H           -0.441405321690     2.506626712050     1.423023576938     1.007825032230
         H           -1.574279321690     2.854598712050     0.085796576938     1.007825032230
         H            0.178242678310     3.135322712050    -0.114869423062     1.007825032230
         H           -0.894915321690    -0.699418287950     1.700149576938     1.007825032230
         H           -2.552798321690     1.154707712050    -1.798999423062     1.007825032230
         H            2.461195678310    -2.316095287950    -0.954372423062     1.007825032230
         H            3.825472678310     1.378671712050     0.769831576938     1.007825032230
         H           -2.948394321690    -2.083121287950     1.947419576938     1.007825032230
         H           -4.634543321690    -0.198293287950    -1.535446423062     1.007825032230
         H            5.105188678310    -1.402416287950    -0.988351423062     1.007825032230
         H            5.472756478310    -0.310629787950     0.407864976938     1.007825032230
         H            4.802515678310    -1.973409287950     0.655535576938     1.007825032230
         H           -4.823277321690    -1.829884287950     0.333146576938     1.007825032230

  Basis Set: AUG-CC-PVTZ
    Blend: AUG-CC-PVTZ
  Basis Set: (AUG-CC-PVTZ AUX)
    Blend: AUG-CC-PVTZ-JKFIT
	 Reference Energy          =    -609.5315674549775622 [Eh]
	 Singles Energy            =      -0.0000000000000000 [Eh]
	 Same-Spin Energy          =      -0.6811519595127697 [Eh]
	 Opposite-Spin Energy      =      -2.1311226942220123 [Eh]
	 Correlation Energy        =      -2.8122746537347822 [Eh]
	 Total Energy              =    -612.3438421087123515 [Eh]

	 ================> DF-SCS-MP2 Energies <==================
	-----------------------------------------------------------
	 SCS Same-Spin Scale       =       0.3333333333333333 [-]
	 SCS Opposite-Spin Scale   =       1.2000000000000000 [-]
	 SCS Same-Spin Energy      =      -0.2270506531709232 [Eh]
	 SCS Opposite-Spin Energy  =      -2.5573472330664146 [Eh]
	 SCS Correlation Energy    =      -2.7843978862373380 [Eh]
	 SCS Total Energy          =    -612.3159653412149055 [Eh]
	-----------------------------------------------------------

  Dipole Moment: [D]
     X:    -0.5253      Y:    -1.4724      Z:    -0.1750     Total:     1.5731

*** Psi4 exiting successfully. Buy a developer a beer!
