                               Psi4 1.4a3.dev225

  ==> Input File <==

--------------------------------------------------------------------------
#psi4
#
memory 32 gb

molecule  {
0 1
  N       -0.4697210     1.1445100    -0.2216410
  N        1.7892250     1.2839290     0.3484630
  C       -1.6078907     0.3297779    -0.0725602
  C        0.7850350     0.5381570    -0.1399480
  C       -0.5952140     2.4946130     0.3294290
  C        0.9870780    -0.7701080    -0.6316150
  C        3.3308620    -0.5454650    -0.0717700
  C       -1.7342750    -0.5947120     0.9884560
  C       -2.6794440     0.4585720    -0.9790390
  C        2.2640650    -1.3032160    -0.5830550
  C        3.0220600     0.7400440     0.3662130
  C       -2.8869950    -1.3690860     1.1220740
  C       -3.8377830    -0.3053550    -0.8293160
  C       -3.9434210    -1.2230030     0.2186750
  C        4.7300730    -1.0916580    -0.0030050
  H        0.1601300    -1.3363870    -1.0489480
  H       -0.4605330     2.5122530     1.4190480
  H       -1.5934070     2.8602250     0.0818210
  H        0.1591150     3.1409490    -0.1188450
  H       -0.9140430    -0.6937920     1.6961740
  H       -2.5719260     1.1603340    -1.8029750
  H        2.4420680    -2.3104690    -0.9583480
  H        3.8063450     1.3842980     0.7658560
  H       -2.9675220    -2.0774950     1.9434440
  H       -4.6536710    -0.1926670    -1.5394220
  H        5.0860610    -1.3967900    -0.9923270
  H        5.4219950    -0.3393960     0.3861000
  H        4.7833880    -1.9677830     0.6515600
  H       -4.8424050    -1.8242580     0.3291710
units angstrom
no_reorient  #important for SAPT in psi4, default
symmetry c1  #important for SAPT in psi4, default
}

set PROPERTIES_ORIGIN ["COM"]
properties('MP2/aug-cc-pvtz', properties = ['dipole'])
--------------------------------------------------------------------------

    Molecular point group: c1
  Charge       = 0
  Multiplicity = 1
  Basis Set: AUG-CC-PVTZ
    Blend: AUG-CC-PVTZ
  Basis Set: (AUG-CC-PVTZ AUX)
    Blend: AUG-CC-PVTZ-JKFIT

    Orbital Energies [Eh]
    ---------------------

    Doubly Occupied:

       1A    -15.573544     2A    -15.549838     3A    -11.309427
       4A    -11.276038     5A    -11.266108     6A    -11.250750
       7A    -11.246148     8A    -11.241407     9A    -11.241175
      10A    -11.237907    11A    -11.237508    12A    -11.236894
      13A    -11.231063    14A    -11.229546    15A    -11.225590
      16A     -1.293477    17A     -1.219782    18A     -1.140169
      19A     -1.090591    20A     -1.038743    21A     -1.016919
      22A     -1.007475    23A     -0.950317    24A     -0.909340
      25A     -0.847647    26A     -0.839604    27A     -0.828438
      28A     -0.785407    29A     -0.725563    30A     -0.685585
      31A     -0.675269    32A     -0.649075    33A     -0.638771
      34A     -0.622864    35A     -0.609851    36A     -0.591715
      37A     -0.588920    38A     -0.584280    39A     -0.577147
      40A     -0.562512    41A     -0.543701    42A     -0.534911
      43A     -0.524090    44A     -0.515547    45A     -0.507664
      46A     -0.499100    47A     -0.497160    48A     -0.418546
      49A     -0.410967    50A     -0.374129    51A     -0.341765
      52A     -0.337618    53A     -0.286454

  @DF-RHF Final Energy:  -609.53282872561590

   => Energetics <=

    Nuclear Repulsion Energy =            919.6899774568011026
    One-Electron Energy =               -2651.1975015273269491
    Two-Electron Energy =                1121.9746953449100602
    Total Energy =                       -609.5328287256159001
  Basis Set: (AUG-CC-PVTZ AUX)
    Blend: AUG-CC-PVTZ-RI
    Molecular point group: c1

    Geometry (in Angstrom), charge = 0, multiplicity = 1:

       Center              X                  Y                   Z               Mass
    ------------   -----------------  -----------------  -----------------  -----------------
         N           -0.451411905305     1.138357508531    -0.217446626657    14.003074004430
         N            1.807534094695     1.277776508531     0.352657373343    14.003074004430
         C           -1.589581605305     0.323625408531    -0.068365826657    12.000000000000
         C            0.803344094695     0.532004508531    -0.135753626657    12.000000000000
         C           -0.576904905305     2.488460508531     0.333623373343    12.000000000000
         C            1.005387094695    -0.776260491469    -0.627420626657    12.000000000000
         C            3.349171094695    -0.551617491469    -0.067575626657    12.000000000000
         C           -1.715965905305    -0.600864491469     0.992650373343    12.000000000000
         C           -2.661134905305     0.452419508531    -0.974844626657    12.000000000000
         C            2.282374094695    -1.309368491469    -0.578860626657    12.000000000000
         C            3.040369094695     0.733891508531     0.370407373343    12.000000000000
         C           -2.868685905305    -1.375238491469     1.126268373343    12.000000000000
         C           -3.819473905305    -0.311507491469    -0.825121626657    12.000000000000
         C           -3.925111905305    -1.229155491469     0.222869373343    12.000000000000
         C            4.748382094695    -1.097810491469     0.001189373343    12.000000000000
         H            0.178439094695    -1.342539491469    -1.044753626657     1.007825032230
         H           -0.442223905305     2.506100508531     1.423242373343     1.007825032230
         H           -1.575097905305     2.854072508531     0.086015373343     1.007825032230
         H            0.177424094695     3.134796508531    -0.114650626657     1.007825032230
         H           -0.895733905305    -0.699944491469     1.700368373343     1.007825032230
         H           -2.553616905305     1.154181508531    -1.798780626657     1.007825032230
         H            2.460377094695    -2.316621491469    -0.954153626657     1.007825032230
         H            3.824654094695     1.378145508531     0.770050373343     1.007825032230
         H           -2.949212905305    -2.083647491469     1.947638373343     1.007825032230
         H           -4.635361905305    -0.198819491469    -1.535227626657     1.007825032230
         H            5.104370094695    -1.402942491469    -0.988132626657     1.007825032230
         H            5.440304094695    -0.345548491469     0.390294373343     1.007825032230
         H            4.801697094695    -1.973935491469     0.655754373343     1.007825032230
         H           -4.824095905305    -1.830410491469     0.333365373343     1.007825032230

  Basis Set: AUG-CC-PVTZ
    Blend: AUG-CC-PVTZ
  Basis Set: (AUG-CC-PVTZ AUX)
    Blend: AUG-CC-PVTZ-JKFIT
	 Reference Energy          =    -609.5328287256159001 [Eh]
	 Singles Energy            =      -0.0000000000000000 [Eh]
	 Same-Spin Energy          =      -0.6813664513103874 [Eh]
	 Opposite-Spin Energy      =      -2.1310414986027841 [Eh]
	 Correlation Energy        =      -2.8124079499131716 [Eh]
	 Total Energy              =    -612.3452366755291223 [Eh]

	 ================> DF-SCS-MP2 Energies <==================
	-----------------------------------------------------------
	 SCS Same-Spin Scale       =       0.3333333333333333 [-]
	 SCS Opposite-Spin Scale   =       1.2000000000000000 [-]
	 SCS Same-Spin Energy      =      -0.2271221504367958 [Eh]
	 SCS Opposite-Spin Energy  =      -2.5572497983233409 [Eh]
	 SCS Correlation Energy    =      -2.7843719487601368 [Eh]
	 SCS Total Energy          =    -612.3172006743760676 [Eh]
	-----------------------------------------------------------

  Dipole Moment: [D]
     X:    -0.3835      Y:    -1.4262      Z:    -0.1705     Total:     1.4867

*** Psi4 exiting successfully. Buy a developer a beer!
