                               Psi4 1.4a3.dev225

  ==> Input File <==

--------------------------------------------------------------------------
#psi4
#
memory 32 gb

molecule  {
0 1
  N       -0.4697210     1.1445100    -0.2216410
  N        1.7892250     1.2839290     0.3484630
  C       -1.6240620     0.3182020    -0.0704420
  C        0.7850350     0.5381570    -0.1399480
  C       -0.5952140     2.4946130     0.3294290
  C        0.9870780    -0.7701080    -0.6316150
  C        3.3308620    -0.5454650    -0.0717700
  C       -1.7342750    -0.5947120     0.9884560
  C       -2.6794440     0.4585720    -0.9790390
  C        2.2640650    -1.3032160    -0.5830550
  C        3.0220600     0.7400440     0.3662130
  C       -2.8869950    -1.3690860     1.1220740
  C       -3.8377830    -0.3053550    -0.8293160
  C       -3.9585449    -1.3543800     0.3687128
  C        4.7300730    -1.0916580    -0.0030050
  H        0.1601300    -1.3363870    -1.0489480
  H       -0.4605330     2.5122530     1.4190480
  H       -1.5934070     2.8602250     0.0818210
  H        0.1591150     3.1409490    -0.1188450
  H       -0.9140430    -0.6937920     1.6961740
  H       -2.5719260     1.1603340    -1.8029750
  H        2.4420680    -2.3104690    -0.9583480
  H        3.8063450     1.3842980     0.7658560
  H       -2.9675220    -2.0774950     1.9434440
  H       -4.6536710    -0.1926670    -1.5394220
  H        5.0860610    -1.3967900    -0.9923270
  H        5.4219950    -0.3393960     0.3861000
  H        4.7833880    -1.9677830     0.6515600
  H       -4.8424050    -1.8242580     0.3291710
units angstrom
no_reorient  #important for SAPT in psi4, default
symmetry c1  #important for SAPT in psi4, default
}

set PROPERTIES_ORIGIN ["COM"]
properties('MP2/aug-cc-pvtz', properties = ['dipole'])
--------------------------------------------------------------------------

    Molecular point group: c1
  Charge       = 0
  Multiplicity = 1
  Basis Set: AUG-CC-PVTZ
    Blend: AUG-CC-PVTZ
  Basis Set: (AUG-CC-PVTZ AUX)
    Blend: AUG-CC-PVTZ-JKFIT

    Orbital Energies [Eh]
    ---------------------

    Doubly Occupied:

       1A    -15.574015     2A    -15.549304     3A    -11.309059
       4A    -11.278715     5A    -11.265567     6A    -11.257713
       7A    -11.250217     8A    -11.246295     9A    -11.240564
      10A    -11.237126    11A    -11.236835    12A    -11.233414
      13A    -11.230512    14A    -11.229076    15A    -11.225220
      16A     -1.290885    17A     -1.217721    18A     -1.136574
      19A     -1.089976    20A     -1.040767    21A     -1.025363
      22A     -0.998230    23A     -0.949606    24A     -0.909765
      25A     -0.847789    26A     -0.846695    27A     -0.819435
      28A     -0.787611    29A     -0.723040    30A     -0.698950
      31A     -0.675886    32A     -0.656015    33A     -0.636763
      34A     -0.621694    35A     -0.607710    36A     -0.595939
      37A     -0.588483    38A     -0.578903    39A     -0.577062
      40A     -0.564746    41A     -0.544870    42A     -0.539762
      43A     -0.525311    44A     -0.523122    45A     -0.507220
      46A     -0.497198    47A     -0.464064    48A     -0.417841
      49A     -0.410499    50A     -0.373757    51A     -0.356376
      52A     -0.327287    53A     -0.284927

  @DF-RHF Final Energy:  -609.49230236393498

   => Energetics <=

    Nuclear Repulsion Energy =            917.7708369129331913
    One-Electron Energy =               -2647.2833320678141718
    Two-Electron Energy =                1120.0201927909458846
    Total Energy =                       -609.4923023639350959
  Basis Set: (AUG-CC-PVTZ AUX)
    Blend: AUG-CC-PVTZ-RI
    Molecular point group: c1

    Geometry (in Angstrom), charge = 0, multiplicity = 1:

       Center              X                  Y                   Z               Mass
    ------------   -----------------  -----------------  -----------------  -----------------
         N           -0.449516334167     1.147016261035    -0.226662817066    14.003074004430
         N            1.809429665833     1.286435261035     0.343441182934    14.003074004430
         C           -1.603857334167     0.320708261035    -0.075463817066    12.000000000000
         C            0.805239665833     0.540663261035    -0.144969817066    12.000000000000
         C           -0.575009334167     2.497119261035     0.324407182934    12.000000000000
         C            1.007282665833    -0.767601738965    -0.636636817066    12.000000000000
         C            3.351066665833    -0.542958738965    -0.076791817066    12.000000000000
         C           -1.714070334167    -0.592205738965     0.983434182934    12.000000000000
         C           -2.659239334167     0.461078261035    -0.984060817066    12.000000000000
         C            2.284269665833    -1.300709738965    -0.588076817066    12.000000000000
         C            3.042264665833     0.742550261035     0.361191182934    12.000000000000
         C           -2.866790334167    -1.366579738965     1.117052182934    12.000000000000
         C           -3.817578334167    -0.302848738965    -0.834337817066    12.000000000000
         C           -3.938340234167    -1.351873738965     0.363690982934    12.000000000000
         C            4.750277665833    -1.089151738965    -0.008026817066    12.000000000000
         H            0.180334665833    -1.333880738965    -1.053969817066     1.007825032230
         H           -0.440328334167     2.514759261035     1.414026182934     1.007825032230
         H           -1.573202334167     2.862731261035     0.076799182934     1.007825032230
         H            0.179319665833     3.143455261035    -0.123866817066     1.007825032230
         H           -0.893838334167    -0.691285738965     1.691152182934     1.007825032230
         H           -2.551721334167     1.162840261035    -1.807996817066     1.007825032230
         H            2.462272665833    -2.307962738965    -0.963369817066     1.007825032230
         H            3.826549665833     1.386804261035     0.760834182934     1.007825032230
         H           -2.947317334167    -2.074988738965     1.938422182934     1.007825032230
         H           -4.633466334167    -0.190160738965    -1.544443817066     1.007825032230
         H            5.106265665833    -1.394283738965    -0.997348817066     1.007825032230
         H            5.442199665833    -0.336889738965     0.381078182934     1.007825032230
         H            4.803592665833    -1.965276738965     0.646538182934     1.007825032230
         H           -4.822200334167    -1.821751738965     0.324149182934     1.007825032230

  Basis Set: AUG-CC-PVTZ
    Blend: AUG-CC-PVTZ
  Basis Set: (AUG-CC-PVTZ AUX)
    Blend: AUG-CC-PVTZ-JKFIT
	 Reference Energy          =    -609.4923023639349822 [Eh]
	 Singles Energy            =      -0.0000000000000000 [Eh]
	 Same-Spin Energy          =      -0.6807126086545264 [Eh]
	 Opposite-Spin Energy      =      -2.1331995668031727 [Eh]
	 Correlation Energy        =      -2.8139121754576992 [Eh]
	 Total Energy              =    -612.3062145393927267 [Eh]

	 ================> DF-SCS-MP2 Energies <==================
	-----------------------------------------------------------
	 SCS Same-Spin Scale       =       0.3333333333333333 [-]
	 SCS Opposite-Spin Scale   =       1.2000000000000000 [-]
	 SCS Same-Spin Energy      =      -0.2269042028848421 [Eh]
	 SCS Opposite-Spin Energy  =      -2.5598394801638071 [Eh]
	 SCS Correlation Energy    =      -2.7867436830486492 [Eh]
	 SCS Total Energy          =    -612.2790460469835807 [Eh]
	-----------------------------------------------------------

  Dipole Moment: [D]
     X:    -0.4941      Y:    -1.4533      Z:    -0.1905     Total:     1.5467

*** Psi4 exiting successfully. Buy a developer a beer!
