                               Psi4 1.4a3.dev225

  ==> Input File <==

--------------------------------------------------------------------------
#psi4
#
memory 32 gb

molecule  {
0 1
  N       -0.4697210     1.1445100    -0.2216410
  N        1.7892250     1.2839290     0.3484630
  C       -1.6240620     0.3182020    -0.0704420
  C        0.7850350     0.5381570    -0.1399480
  C       -0.5952140     2.4946130     0.3294290
  C        0.9870780    -0.7701080    -0.6316150
  C        3.3308620    -0.5454650    -0.0717700
  C       -1.7342750    -0.5947120     0.9884560
  C       -2.6794440     0.4585720    -0.9790390
  C        2.2825099    -1.3109163    -0.5823536
  C        3.0220600     0.7400440     0.3662130
  C       -2.8869950    -1.3690860     1.1220740
  C       -3.8377830    -0.3053550    -0.8293160
  C       -3.9434210    -1.2230030     0.2186750
  C        4.7300730    -1.0916580    -0.0030050
  H        0.1601300    -1.3363870    -1.0489480
  H       -0.4605330     2.5122530     1.4190480
  H       -1.5934070     2.8602250     0.0818210
  H        0.1591150     3.1409490    -0.1188450
  H       -0.9140430    -0.6937920     1.6961740
  H       -2.5719260     1.1603340    -1.8029750
  H        2.4420680    -2.3104690    -0.9583480
  H        3.8063450     1.3842980     0.7658560
  H       -2.9675220    -2.0774950     1.9434440
  H       -4.6536710    -0.1926670    -1.5394220
  H        5.0860610    -1.3967900    -0.9923270
  H        5.4219950    -0.3393960     0.3861000
  H        4.7833880    -1.9677830     0.6515600
  H       -4.8424050    -1.8242580     0.3291710
units angstrom
no_reorient  #important for SAPT in psi4, default
symmetry c1  #important for SAPT in psi4, default
}

set PROPERTIES_ORIGIN ["COM"]
properties('MP2/aug-cc-pvtz', properties = ['dipole'])
--------------------------------------------------------------------------

    Molecular point group: c1
  Charge       = 0
  Multiplicity = 1
  Basis Set: AUG-CC-PVTZ
    Blend: AUG-CC-PVTZ
  Basis Set: (AUG-CC-PVTZ AUX)
    Blend: AUG-CC-PVTZ-JKFIT

    Orbital Energies [Eh]
    ---------------------

    Doubly Occupied:

       1A    -15.572219     2A    -15.549915     3A    -11.308027
       4A    -11.275049     5A    -11.266802     6A    -11.250784
       7A    -11.245005     8A    -11.241757     9A    -11.241540
      10A    -11.237821    11A    -11.237385    12A    -11.236542
      13A    -11.230344    14A    -11.230230    15A    -11.225040
      16A     -1.289891    17A     -1.217432    18A     -1.142029
      19A     -1.090437    20A     -1.035955    21A     -1.018307
      22A     -1.008503    23A     -0.948920    24A     -0.907518
      25A     -0.849005    26A     -0.838809    27A     -0.828966
      28A     -0.785507    29A     -0.724634    30A     -0.685198
      31A     -0.673736    32A     -0.647969    33A     -0.637661
      34A     -0.623008    35A     -0.610167    36A     -0.593785
      37A     -0.588039    38A     -0.584192    39A     -0.577066
      40A     -0.562110    41A     -0.543505    42A     -0.534849
      43A     -0.522990    44A     -0.513988    45A     -0.507283
      46A     -0.499689    47A     -0.498250    48A     -0.418328
      49A     -0.411224    50A     -0.371672    51A     -0.342786
      52A     -0.338733    53A     -0.286483

  @DF-RHF Final Energy:  -609.53283357890075

   => Energetics <=

    Nuclear Repulsion Energy =            919.3645901231731159
    One-Electron Energy =               -2650.5806845405040804
    Two-Electron Energy =                1121.6832608384304422
    Total Energy =                       -609.5328335789006360
  Basis Set: (AUG-CC-PVTZ AUX)
    Blend: AUG-CC-PVTZ-RI
    Molecular point group: c1

    Geometry (in Angstrom), charge = 0, multiplicity = 1:

       Center              X                  Y                   Z               Mass
    ------------   -----------------  -----------------  -----------------  -----------------
         N           -0.451549618773     1.139525080823    -0.217617411709    14.003074004430
         N            1.807396381227     1.278944080823     0.352486588291    14.003074004430
         C           -1.605890618773     0.313217080823    -0.066418411709    12.000000000000
         C            0.803206381227     0.533172080823    -0.135924411709    12.000000000000
         C           -0.577042618773     2.489628080823     0.333452588291    12.000000000000
         C            1.005249381227    -0.775092919177    -0.627591411709    12.000000000000
         C            3.349033381227    -0.550449919177    -0.067746411709    12.000000000000
         C           -1.716103618773    -0.599696919177     0.992479588291    12.000000000000
         C           -2.661272618773     0.453587080823    -0.975015411709    12.000000000000
         C            2.300681281227    -1.315901219177    -0.578330011709    12.000000000000
         C            3.040231381227     0.735059080823     0.370236588291    12.000000000000
         C           -2.868823618773    -1.374070919177     1.126097588291    12.000000000000
         C           -3.819611618773    -0.310339919177    -0.825292411709    12.000000000000
         C           -3.925249618773    -1.227987919177     0.222698588291    12.000000000000
         C            4.748244381227    -1.096642919177     0.001018588291    12.000000000000
         H            0.178301381227    -1.341371919177    -1.044924411709     1.007825032230
         H           -0.442361618773     2.507268080823     1.423071588291     1.007825032230
         H           -1.575235618773     2.855240080823     0.085844588291     1.007825032230
         H            0.177286381227     3.135964080823    -0.114821411709     1.007825032230
         H           -0.895871618773    -0.698776919177     1.700197588291     1.007825032230
         H           -2.553754618773     1.155349080823    -1.798951411709     1.007825032230
         H            2.460239381227    -2.315453919177    -0.954324411709     1.007825032230
         H            3.824516381227     1.379313080823     0.769879588291     1.007825032230
         H           -2.949350618773    -2.082479919177     1.947467588291     1.007825032230
         H           -4.635499618773    -0.197651919177    -1.535398411709     1.007825032230
         H            5.104232381227    -1.401774919177    -0.988303411709     1.007825032230
         H            5.440166381227    -0.344380919177     0.390123588291     1.007825032230
         H            4.801559381227    -1.972767919177     0.655583588291     1.007825032230
         H           -4.824233618773    -1.829242919177     0.333194588291     1.007825032230

  Basis Set: AUG-CC-PVTZ
    Blend: AUG-CC-PVTZ
  Basis Set: (AUG-CC-PVTZ AUX)
    Blend: AUG-CC-PVTZ-JKFIT
	 Reference Energy          =    -609.5328335789007497 [Eh]
	 Singles Energy            =      -0.0000000000000000 [Eh]
	 Same-Spin Energy          =      -0.6812877964645885 [Eh]
	 Opposite-Spin Energy      =      -2.1309525720096287 [Eh]
	 Correlation Energy        =      -2.8122403684742174 [Eh]
	 Total Energy              =    -612.3450739473749991 [Eh]

	 ================> DF-SCS-MP2 Energies <==================
	-----------------------------------------------------------
	 SCS Same-Spin Scale       =       0.3333333333333333 [-]
	 SCS Opposite-Spin Scale   =       1.2000000000000000 [-]
	 SCS Same-Spin Energy      =      -0.2270959321548628 [Eh]
	 SCS Opposite-Spin Energy  =      -2.5571430864115543 [Eh]
	 SCS Correlation Energy    =      -2.7842390185664172 [Eh]
	 SCS Total Energy          =    -612.3170725974671313 [Eh]
	-----------------------------------------------------------

  Dipole Moment: [D]
     X:    -0.4706      Y:    -1.4637      Z:    -0.1654     Total:     1.5463

*** Psi4 exiting successfully. Buy a developer a beer!
