                               Psi4 1.4a3.dev225

  ==> Input File <==

--------------------------------------------------------------------------
#psi4
#
memory 32 gb

molecule  {
0 1
  N       -0.4697210     1.1445100    -0.2216410
  N        1.7892250     1.2839290     0.3484630
  C       -1.6240620     0.3182020    -0.0704420
  C        0.7850350     0.5381570    -0.1399480
  C       -0.5952140     2.4946130     0.3294290
  C        0.9870780    -0.7701080    -0.6316150
  C        3.3308620    -0.5454650    -0.0717700
  C       -1.7342750    -0.5947120     0.9884560
  C       -2.6794440     0.4585720    -0.9790390
  C        2.2640650    -1.3032160    -0.5830550
  C        3.0220600     0.7400440     0.3662130
  C       -2.8869950    -1.3690860     1.1220740
  C       -3.8377830    -0.3053550    -0.8293160
  C       -3.9434210    -1.2230030     0.2186750
  C        4.7300730    -1.0916580    -0.0030050
  H        0.1601300    -1.3363870    -1.0489480
  H       -0.4605330     2.5122530     1.4190480
  H       -1.5934070     2.8602250     0.0818210
  H        0.1591150     3.1409490    -0.1188450
  H       -0.9140430    -0.6937920     1.6961740
  H       -2.5719260     1.1603340    -1.8029750
  H        2.4420680    -2.3104690    -0.9583480
  H        3.8063450     1.3842980     0.7658560
  H       -2.9675220    -2.0774950     1.9434440
  H       -4.6536710    -0.1926670    -1.5394220
  H        5.0860610    -1.3967900    -0.9923270
  H        5.4346485    -0.3256390     0.3932158
  H        4.7833880    -1.9677830     0.6515600
  H       -4.8424050    -1.8242580     0.3291710
units angstrom
no_reorient  #important for SAPT in psi4, default
symmetry c1  #important for SAPT in psi4, default
}

set PROPERTIES_ORIGIN ["COM"]
properties('MP2/aug-cc-pvtz', properties = ['dipole'])
--------------------------------------------------------------------------

    Molecular point group: c1
  Charge       = 0
  Multiplicity = 1
  Basis Set: AUG-CC-PVTZ
    Blend: AUG-CC-PVTZ
  Basis Set: (AUG-CC-PVTZ AUX)
    Blend: AUG-CC-PVTZ-JKFIT

    Orbital Energies [Eh]
    ---------------------

    Doubly Occupied:

       1A    -15.572878     2A    -15.549059     3A    -11.308681
       4A    -11.275408     5A    -11.265631     6A    -11.250426
       7A    -11.245221     8A    -11.242074     9A    -11.241851
      10A    -11.238136    11A    -11.237749    12A    -11.236879
      13A    -11.230582    14A    -11.228993    15A    -11.227581
      16A     -1.290233    17A     -1.217469    18A     -1.142303
      19A     -1.089899    20A     -1.037805    21A     -1.018710
      22A     -1.008784    23A     -0.948583    24A     -0.907196
      25A     -0.846859    26A     -0.839112    27A     -0.829219
      28A     -0.785571    29A     -0.724619    30A     -0.685453
      31A     -0.674122    32A     -0.648284    33A     -0.638266
      34A     -0.622562    35A     -0.609690    36A     -0.593879
      37A     -0.587896    38A     -0.583582    39A     -0.576897
      40A     -0.561656    41A     -0.541093    42A     -0.534230
      43A     -0.523363    44A     -0.513989    45A     -0.507674
      46A     -0.500053    47A     -0.498763    48A     -0.418125
      49A     -0.410400    50A     -0.373736    51A     -0.342884
      52A     -0.339006    53A     -0.286586

  @DF-RHF Final Energy:  -609.53318601158412

   => Energetics <=

    Nuclear Repulsion Energy =            919.5188994709749295
    One-Electron Energy =               -2650.8847715690785662
    Two-Electron Energy =                1121.8326860865195158
    Total Energy =                       -609.5331860115841209
  Basis Set: (AUG-CC-PVTZ AUX)
    Blend: AUG-CC-PVTZ-RI
    Molecular point group: c1

    Geometry (in Angstrom), charge = 0, multiplicity = 1:

       Center              X                  Y                   Z               Mass
    ------------   -----------------  -----------------  -----------------  -----------------
         N           -0.450496767901     1.138988685929    -0.217611125894    14.003074004430
         N            1.808449232099     1.278407685929     0.352492874106    14.003074004430
         C           -1.604837767901     0.312680685929    -0.066412125894    12.000000000000
         C            0.804259232099     0.532635685929    -0.135918125894    12.000000000000
         C           -0.575989767901     2.489091685929     0.333458874106    12.000000000000
         C            1.006302232099    -0.775629314071    -0.627585125894    12.000000000000
         C            3.350086232099    -0.550986314071    -0.067740125894    12.000000000000
         C           -1.715050767901    -0.600233314071     0.992485874106    12.000000000000
         C           -2.660219767901     0.453050685929    -0.975009125894    12.000000000000
         C            2.283289232099    -1.308737314071    -0.579025125894    12.000000000000
         C            3.041284232099     0.734522685929     0.370242874106    12.000000000000
         C           -2.867770767901    -1.374607314071     1.126103874106    12.000000000000
         C           -3.818558767901    -0.310876314071    -0.825286125894    12.000000000000
         C           -3.924196767901    -1.228524314071     0.222704874106    12.000000000000
         C            4.749297232099    -1.097179314071     0.001024874106    12.000000000000
         H            0.179354232099    -1.341908314071    -1.044918125894     1.007825032230
         H           -0.441308767901     2.506731685929     1.423077874106     1.007825032230
         H           -1.574182767901     2.854703685929     0.085850874106     1.007825032230
         H            0.178339232099     3.135427685929    -0.114815125894     1.007825032230
         H           -0.894818767901    -0.699313314071     1.700203874106     1.007825032230
         H           -2.552701767901     1.154812685929    -1.798945125894     1.007825032230
         H            2.461292232099    -2.315990314071    -0.954318125894     1.007825032230
         H            3.825569232099     1.378776685929     0.769885874106     1.007825032230
         H           -2.948297767901    -2.083016314071     1.947473874106     1.007825032230
         H           -4.634446767901    -0.198188314071    -1.535392125894     1.007825032230
         H            5.105285232099    -1.402311314071    -0.988297125894     1.007825032230
         H            5.453872732099    -0.331160314071     0.397245674106     1.007825032230
         H            4.802612232099    -1.973304314071     0.655589874106     1.007825032230
         H           -4.823180767901    -1.829779314071     0.333200874106     1.007825032230

  Basis Set: AUG-CC-PVTZ
    Blend: AUG-CC-PVTZ
  Basis Set: (AUG-CC-PVTZ AUX)
    Blend: AUG-CC-PVTZ-JKFIT
	 Reference Energy          =    -609.5331860115841209 [Eh]
	 Singles Energy            =      -0.0000000000000000 [Eh]
	 Same-Spin Energy          =      -0.6811410959031242 [Eh]
	 Opposite-Spin Energy      =      -2.1308907081627759 [Eh]
	 Correlation Energy        =      -2.8120318040659003 [Eh]
	 Total Energy              =    -612.3452178156500167 [Eh]

	 ================> DF-SCS-MP2 Energies <==================
	-----------------------------------------------------------
	 SCS Same-Spin Scale       =       0.3333333333333333 [-]
	 SCS Opposite-Spin Scale   =       1.2000000000000000 [-]
	 SCS Same-Spin Energy      =      -0.2270470319677081 [Eh]
	 SCS Opposite-Spin Energy  =      -2.5570688497953311 [Eh]
	 SCS Correlation Energy    =      -2.7841158817630394 [Eh]
	 SCS Total Energy          =    -612.3173018933471212 [Eh]
	-----------------------------------------------------------

  Dipole Moment: [D]
     X:    -0.5057      Y:    -1.4667      Z:    -0.1698     Total:     1.5607

*** Psi4 exiting successfully. Buy a developer a beer!
