                               Psi4 1.4a3.dev225

  ==> Input File <==

--------------------------------------------------------------------------
#psi4
#
memory 32 gb

molecule  {
0 1
  N       -0.4697210     1.1445100    -0.2216410
  N        1.7892250     1.2839290     0.3484630
  C       -1.6240620     0.3182020    -0.0704420
  C        0.8598181     0.5936955    -0.1035755
  C       -0.5952140     2.4946130     0.3294290
  C        0.9870780    -0.7701080    -0.6316150
  C        3.3308620    -0.5454650    -0.0717700
  C       -1.7342750    -0.5947120     0.9884560
  C       -2.6794440     0.4585720    -0.9790390
  C        2.2640650    -1.3032160    -0.5830550
  C        3.0220600     0.7400440     0.3662130
  C       -2.8869950    -1.3690860     1.1220740
  C       -3.8377830    -0.3053550    -0.8293160
  C       -3.9434210    -1.2230030     0.2186750
  C        4.7300730    -1.0916580    -0.0030050
  H        0.1601300    -1.3363870    -1.0489480
  H       -0.4605330     2.5122530     1.4190480
  H       -1.5934070     2.8602250     0.0818210
  H        0.1591150     3.1409490    -0.1188450
  H       -0.9140430    -0.6937920     1.6961740
  H       -2.5719260     1.1603340    -1.8029750
  H        2.4420680    -2.3104690    -0.9583480
  H        3.8063450     1.3842980     0.7658560
  H       -2.9675220    -2.0774950     1.9434440
  H       -4.6536710    -0.1926670    -1.5394220
  H        5.0860610    -1.3967900    -0.9923270
  H        5.4219950    -0.3393960     0.3861000
  H        4.7833880    -1.9677830     0.6515600
  H       -4.8424050    -1.8242580     0.3291710
units angstrom
no_reorient  #important for SAPT in psi4, default
symmetry c1  #important for SAPT in psi4, default
}

set PROPERTIES_ORIGIN ["COM"]
properties('MP2/aug-cc-pvtz', properties = ['dipole'])
--------------------------------------------------------------------------

    Molecular point group: c1
  Charge       = 0
  Multiplicity = 1
  Basis Set: AUG-CC-PVTZ
    Blend: AUG-CC-PVTZ
  Basis Set: (AUG-CC-PVTZ AUX)
    Blend: AUG-CC-PVTZ-JKFIT

    Orbital Energies [Eh]
    ---------------------

    Doubly Occupied:

       1A    -15.566010     2A    -15.546169     3A    -11.307301
       4A    -11.274003     5A    -11.266948     6A    -11.249596
       7A    -11.240551     8A    -11.240387     9A    -11.240386
      10A    -11.237277    11A    -11.236276    12A    -11.235599
      13A    -11.235460    14A    -11.234919    15A    -11.227718
      16A     -1.301853    17A     -1.225043    18A     -1.139387
      19A     -1.099447    20A     -1.032184    21A     -1.016919
      22A     -1.006364    23A     -0.948110    24A     -0.908545
      25A     -0.848098    26A     -0.836981    27A     -0.826657
      28A     -0.785846    29A     -0.722751    30A     -0.685531
      31A     -0.677926    32A     -0.646001    33A     -0.641450
      34A     -0.623115    35A     -0.608165    36A     -0.593414
      37A     -0.585641    38A     -0.579428    39A     -0.577760
      40A     -0.563379    41A     -0.547042    42A     -0.534485
      43A     -0.528211    44A     -0.514913    45A     -0.506958
      46A     -0.498356    47A     -0.497538    48A     -0.418244
      49A     -0.406018    50A     -0.380769    51A     -0.341491
      52A     -0.336169    53A     -0.290303

  @DF-RHF Final Energy:  -609.52418280938082

   => Energetics <=

    Nuclear Repulsion Energy =            919.6022610405245814
    One-Electron Energy =               -2651.0147021248380952
    Two-Electron Energy =                1121.8882582749326957
    Total Energy =                       -609.5241828093808181
  Basis Set: (AUG-CC-PVTZ AUX)
    Blend: AUG-CC-PVTZ-RI
    Molecular point group: c1

    Geometry (in Angstrom), charge = 0, multiplicity = 1:

       Center              X                  Y                   Z               Mass
    ------------   -----------------  -----------------  -----------------  -----------------
         N           -0.454962061125     1.135694664526    -0.219778034029    14.003074004430
         N            1.803983938875     1.275113664526     0.350325965971    14.003074004430
         C           -1.609303061125     0.309386664526    -0.068579034029    12.000000000000
         C            0.874577038875     0.584880164526    -0.101712534029    12.000000000000
         C           -0.580455061125     2.485797664526     0.331291965971    12.000000000000
         C            1.001836938875    -0.778923335474    -0.629752034029    12.000000000000
         C            3.345620938875    -0.554280335474    -0.069907034029    12.000000000000
         C           -1.719516061125    -0.603527335474     0.990318965971    12.000000000000
         C           -2.664685061125     0.449756664526    -0.977176034029    12.000000000000
         C            2.278823938875    -1.312031335474    -0.581192034029    12.000000000000
         C            3.036818938875     0.731228664526     0.368075965971    12.000000000000
         C           -2.872236061125    -1.377901335474     1.123936965971    12.000000000000
         C           -3.823024061125    -0.314170335474    -0.827453034029    12.000000000000
         C           -3.928662061125    -1.231818335474     0.220537965971    12.000000000000
         C            4.744831938875    -1.100473335474    -0.001142034029    12.000000000000
         H            0.174888938875    -1.345202335474    -1.047085034029     1.007825032230
         H           -0.445774061125     2.503437664526     1.420910965971     1.007825032230
         H           -1.578648061125     2.851409664526     0.083683965971     1.007825032230
         H            0.173873938875     3.132133664526    -0.116982034029     1.007825032230
         H           -0.899284061125    -0.702607335474     1.698036965971     1.007825032230
         H           -2.557167061125     1.151518664526    -1.801112034029     1.007825032230
         H            2.456826938875    -2.319284335474    -0.956485034029     1.007825032230
         H            3.821103938875     1.375482664526     0.767718965971     1.007825032230
         H           -2.952763061125    -2.086310335474     1.945306965971     1.007825032230
         H           -4.638912061125    -0.201482335474    -1.537559034029     1.007825032230
         H            5.100819938875    -1.405605335474    -0.990464034029     1.007825032230
         H            5.436753938875    -0.348211335474     0.387962965971     1.007825032230
         H            4.798146938875    -1.976598335474     0.653422965971     1.007825032230
         H           -4.827646061125    -1.833073335474     0.331033965971     1.007825032230

  Basis Set: AUG-CC-PVTZ
    Blend: AUG-CC-PVTZ
  Basis Set: (AUG-CC-PVTZ AUX)
    Blend: AUG-CC-PVTZ-JKFIT
	 Reference Energy          =    -609.5241828093808181 [Eh]
	 Singles Energy            =      -0.0000000000000000 [Eh]
	 Same-Spin Energy          =      -0.6794354034843275 [Eh]
	 Opposite-Spin Energy      =      -2.1290910713604640 [Eh]
	 Correlation Energy        =      -2.8085264748447916 [Eh]
	 Total Energy              =    -612.3327092842256434 [Eh]

	 ================> DF-SCS-MP2 Energies <==================
	-----------------------------------------------------------
	 SCS Same-Spin Scale       =       0.3333333333333333 [-]
	 SCS Opposite-Spin Scale   =       1.2000000000000000 [-]
	 SCS Same-Spin Energy      =      -0.2264784678281092 [Eh]
	 SCS Opposite-Spin Energy  =      -2.5549092856325566 [Eh]
	 SCS Correlation Energy    =      -2.7813877534606659 [Eh]
	 SCS Total Energy          =    -612.3055705628414671 [Eh]
	-----------------------------------------------------------

  Dipole Moment: [D]
     X:    -0.0584      Y:    -1.5517      Z:    -0.1464     Total:     1.5597

*** Psi4 exiting successfully. Buy a developer a beer!
