                               Psi4 1.4a3.dev225

  ==> Input File <==

--------------------------------------------------------------------------
#psi4
#
memory 32 gb

molecule  {
0 1
  N       -0.4697210     1.1445100    -0.2216410
  N        1.7892250     1.2839290     0.3484630
  C       -1.6240620     0.3182020    -0.0704420
  C        0.7850350     0.5381570    -0.1399480
  C       -0.5952140     2.4946130     0.3294290
  C        0.9870780    -0.7701080    -0.6316150
  C        3.3308620    -0.5454650    -0.0717700
  C       -1.7342750    -0.5947120     0.9884560
  C       -2.6794440     0.4585720    -0.9790390
  C        2.2640650    -1.3032160    -0.5830550
  C        3.0220600     0.7400440     0.3662130
  C       -2.8869950    -1.3690860     1.1220740
  C       -3.8377830    -0.3053550    -0.8293160
  C       -3.9434210    -1.2230030     0.2186750
  C        4.7300730    -1.0916580    -0.0030050
  H        0.1601300    -1.3363870    -1.0489480
  H       -0.4605330     2.5122530     1.4190480
  H       -1.5934070     2.8602250     0.0818210
  H        0.1591150     3.1409490    -0.1188450
  H       -0.9140430    -0.6937920     1.6961740
  H       -2.5719260     1.1603340    -1.8029750
  H        2.4420680    -2.3104690    -0.9583480
  H        3.8063450     1.3842980     0.7658560
  H       -2.9675220    -2.0774950     1.9434440
  H       -4.6536710    -0.1926670    -1.5394220
  H        5.0917220    -1.4320330    -0.9786821
  H        5.4219950    -0.3393960     0.3861000
  H        4.7833880    -1.9677830     0.6515600
  H       -4.8424050    -1.8242580     0.3291710
units angstrom
no_reorient  #important for SAPT in psi4, default
symmetry c1  #important for SAPT in psi4, default
}

set PROPERTIES_ORIGIN ["COM"]
properties('MP2/aug-cc-pvtz', properties = ['dipole'])
--------------------------------------------------------------------------

    Molecular point group: c1
  Charge       = 0
  Multiplicity = 1
  Basis Set: AUG-CC-PVTZ
    Blend: AUG-CC-PVTZ
  Basis Set: (AUG-CC-PVTZ AUX)
    Blend: AUG-CC-PVTZ-JKFIT

    Orbital Energies [Eh]
    ---------------------

    Doubly Occupied:

       1A    -15.572891     2A    -15.549099     3A    -11.308704
       4A    -11.275409     5A    -11.265744     6A    -11.250360
       7A    -11.245227     8A    -11.242072     9A    -11.241848
      10A    -11.238135    11A    -11.237748    12A    -11.236878
      13A    -11.230650    14A    -11.228968    15A    -11.225176
      16A     -1.290249    17A     -1.217492    18A     -1.142305
      19A     -1.089936    20A     -1.037995    21A     -1.018716
      22A     -1.008839    23A     -0.949422    24A     -0.907656
      25A     -0.847068    26A     -0.839336    27A     -0.829333
      28A     -0.785711    29A     -0.724639    30A     -0.685521
      31A     -0.674521    32A     -0.648305    33A     -0.638623
      34A     -0.622790    35A     -0.609767    36A     -0.593835
      37A     -0.588101    38A     -0.583601    39A     -0.573922
      40A     -0.561795    41A     -0.546010    42A     -0.534316
      43A     -0.522775    44A     -0.514597    45A     -0.507899
      46A     -0.500037    47A     -0.498852    48A     -0.417990
      49A     -0.410555    50A     -0.373675    51A     -0.342858
      52A     -0.338991    53A     -0.286527

  @DF-RHF Final Energy:  -609.53359879156903

   => Energetics <=

    Nuclear Repulsion Energy =            919.5757429912049474
    One-Electron Energy =               -2650.9917448104502000
    Two-Electron Energy =                1121.8824030276762187
    Total Energy =                       -609.5335987915689202
  Basis Set: (AUG-CC-PVTZ AUX)
    Blend: AUG-CC-PVTZ-RI
    Molecular point group: c1

    Geometry (in Angstrom), charge = 0, multiplicity = 1:

       Center              X                  Y                   Z               Mass
    ------------   -----------------  -----------------  -----------------  -----------------
         N           -0.450461196684     1.139237951520    -0.217644339771    14.003074004430
         N            1.808484803316     1.278656951520     0.352459660229    14.003074004430
         C           -1.604802196684     0.312929951520    -0.066445339771    12.000000000000
         C            0.804294803316     0.532884951520    -0.135951339771    12.000000000000
         C           -0.575954196684     2.489340951520     0.333425660229    12.000000000000
         C            1.006337803316    -0.775380048480    -0.627618339771    12.000000000000
         C            3.350121803316    -0.550737048480    -0.067773339771    12.000000000000
         C           -1.715015196684    -0.599984048480     0.992452660229    12.000000000000
         C           -2.660184196684     0.453299951520    -0.975042339771    12.000000000000
         C            2.283324803316    -1.308488048480    -0.579058339771    12.000000000000
         C            3.041319803316     0.734771951520     0.370209660229    12.000000000000
         C           -2.867735196684    -1.374358048480     1.126070660229    12.000000000000
         C           -3.818523196684    -0.310627048480    -0.825319339771    12.000000000000
         C           -3.924161196684    -1.228275048480     0.222671660229    12.000000000000
         C            4.749332803316    -1.096930048480     0.000991660229    12.000000000000
         H            0.179389803316    -1.341659048480    -1.044951339771     1.007825032230
         H           -0.441273196684     2.506980951520     1.423044660229     1.007825032230
         H           -1.574147196684     2.854952951520     0.085817660229     1.007825032230
         H            0.178374803316     3.135676951520    -0.114848339771     1.007825032230
         H           -0.894783196684    -0.699064048480     1.700170660229     1.007825032230
         H           -2.552666196684     1.155061951520    -1.798978339771     1.007825032230
         H            2.461327803316    -2.315741048480    -0.954351339771     1.007825032230
         H            3.825604803316     1.379025951520     0.769852660229     1.007825032230
         H           -2.948262196684    -2.082767048480     1.947440660229     1.007825032230
         H           -4.634411196684    -0.197939048480    -1.535425339771     1.007825032230
         H            5.110981803316    -1.437305048480    -0.974685439771     1.007825032230
         H            5.441254803316    -0.344668048480     0.390096660229     1.007825032230
         H            4.802647803316    -1.973055048480     0.655556660229     1.007825032230
         H           -4.823145196684    -1.829530048480     0.333167660229     1.007825032230

  Basis Set: AUG-CC-PVTZ
    Blend: AUG-CC-PVTZ
  Basis Set: (AUG-CC-PVTZ AUX)
    Blend: AUG-CC-PVTZ-JKFIT
	 Reference Energy          =    -609.5335987915690339 [Eh]
	 Singles Energy            =      -0.0000000000000000 [Eh]
	 Same-Spin Energy          =      -0.6811317622255032 [Eh]
	 Opposite-Spin Energy      =      -2.1307249129793906 [Eh]
	 Correlation Energy        =      -2.8118566752048939 [Eh]
	 Total Energy              =    -612.3454554667739558 [Eh]

	 ================> DF-SCS-MP2 Energies <==================
	-----------------------------------------------------------
	 SCS Same-Spin Scale       =       0.3333333333333333 [-]
	 SCS Opposite-Spin Scale   =       1.2000000000000000 [-]
	 SCS Same-Spin Energy      =      -0.2270439207418344 [Eh]
	 SCS Opposite-Spin Energy  =      -2.5568698955752684 [Eh]
	 SCS Correlation Energy    =      -2.7839138163171029 [Eh]
	 SCS Total Energy          =    -612.3175126078861013 [Eh]
	-----------------------------------------------------------

  Dipole Moment: [D]
     X:    -0.4988      Y:    -1.4747      Z:    -0.1647     Total:     1.5654

*** Psi4 exiting successfully. Buy a developer a beer!
