                               Psi4 1.4a3.dev225

  ==> Input File <==

--------------------------------------------------------------------------
#psi4
#
memory 32 gb

molecule  {
0 1
  N       -0.4697210     1.1445100    -0.2216410
  N        1.7892250     1.2839290     0.3484630
  C       -1.6240620     0.3182020    -0.0704420
  C        0.7850350     0.5381570    -0.1399480
  C       -0.5952140     2.4946130     0.3294290
  C        0.9870780    -0.7701080    -0.6316150
  C        3.3873471    -0.4357360    -0.1694393
  C       -1.7342750    -0.5947120     0.9884560
  C       -2.6794440     0.4585720    -0.9790390
  C        2.2640650    -1.3032160    -0.5830550
  C        3.0220600     0.7400440     0.3662130
  C       -2.8869950    -1.3690860     1.1220740
  C       -3.8377830    -0.3053550    -0.8293160
  C       -3.9434210    -1.2230030     0.2186750
  C        4.7300730    -1.0916580    -0.0030050
  H        0.1601300    -1.3363870    -1.0489480
  H       -0.4605330     2.5122530     1.4190480
  H       -1.5934070     2.8602250     0.0818210
  H        0.1591150     3.1409490    -0.1188450
  H       -0.9140430    -0.6937920     1.6961740
  H       -2.5719260     1.1603340    -1.8029750
  H        2.4420680    -2.3104690    -0.9583480
  H        3.8063450     1.3842980     0.7658560
  H       -2.9675220    -2.0774950     1.9434440
  H       -4.6536710    -0.1926670    -1.5394220
  H        5.0860610    -1.3967900    -0.9923270
  H        5.4219950    -0.3393960     0.3861000
  H        4.7833880    -1.9677830     0.6515600
  H       -4.8424050    -1.8242580     0.3291710
units angstrom
no_reorient  #important for SAPT in psi4, default
symmetry c1  #important for SAPT in psi4, default
}

set PROPERTIES_ORIGIN ["COM"]
properties('MP2/aug-cc-pvtz', properties = ['dipole'])
--------------------------------------------------------------------------

    Molecular point group: c1
  Charge       = 0
  Multiplicity = 1
  Basis Set: AUG-CC-PVTZ
    Blend: AUG-CC-PVTZ
  Basis Set: (AUG-CC-PVTZ AUX)
    Blend: AUG-CC-PVTZ-JKFIT

    Orbital Energies [Eh]
    ---------------------

    Doubly Occupied:

       1A    -15.575566     2A    -15.544816     3A    -11.311784
       4A    -11.276689     5A    -11.258599     6A    -11.256495
       7A    -11.245991     8A    -11.243147     9A    -11.242909
      10A    -11.239274    11A    -11.239001    12A    -11.238094
      13A    -11.231269    14A    -11.229702    15A    -11.224471
      16A     -1.291078    17A     -1.217494    18A     -1.143437
      19A     -1.082617    20A     -1.042293    21A     -1.019926
      22A     -1.009882    23A     -0.948805    24A     -0.911818
      25A     -0.845080    26A     -0.836353    27A     -0.831501
      28A     -0.786364    29A     -0.725181    30A     -0.686217
      31A     -0.672039    32A     -0.649336    33A     -0.638456
      34A     -0.622915    35A     -0.610448    36A     -0.594620
      37A     -0.589864    38A     -0.584177    39A     -0.576910
      40A     -0.564222    41A     -0.545943    42A     -0.535183
      43A     -0.522603    44A     -0.512647    45A     -0.503484
      46A     -0.500749    47A     -0.487966    48A     -0.421301
      49A     -0.408961    50A     -0.369021    51A     -0.343394
      52A     -0.340820    53A     -0.291974

  @DF-RHF Final Energy:  -609.52175552603603

   => Energetics <=

    Nuclear Repulsion Energy =            919.1528376921369272
    One-Electron Energy =               -2650.1034198646561890
    Two-Electron Energy =                1121.4288266464832304
    Total Energy =                       -609.5217555260360314
  Basis Set: (AUG-CC-PVTZ AUX)
    Blend: AUG-CC-PVTZ-RI
    Molecular point group: c1

    Geometry (in Angstrom), charge = 0, multiplicity = 1:

       Center              X                  Y                   Z               Mass
    ------------   -----------------  -----------------  -----------------  -----------------
         N           -0.453853739060     1.132412309796    -0.211659032797    14.003074004430
         N            1.805092260940     1.271831309796     0.358444967203    14.003074004430
         C           -1.608194739060     0.306104309796    -0.060460032797    12.000000000000
         C            0.800902260940     0.526059309796    -0.129966032797    12.000000000000
         C           -0.579346739060     2.482515309796     0.339410967203    12.000000000000
         C            1.002945260940    -0.782205690204    -0.621633032797    12.000000000000
         C            3.403214360940    -0.447833690204    -0.159457332797    12.000000000000
         C           -1.718407739060    -0.606809690204     0.998437967203    12.000000000000
         C           -2.663576739060     0.446474309796    -0.969057032797    12.000000000000
         C            2.279932260940    -1.315313690204    -0.573073032797    12.000000000000
         C            3.037927260940     0.727946309796     0.376194967203    12.000000000000
         C           -2.871127739060    -1.381183690204     1.132055967203    12.000000000000
         C           -3.821915739060    -0.317452690204    -0.819334032797    12.000000000000
         C           -3.927553739060    -1.235100690204     0.228656967203    12.000000000000
         C            4.745940260940    -1.103755690204     0.006976967203    12.000000000000
         H            0.175997260940    -1.348484690204    -1.038966032797     1.007825032230
         H           -0.444665739060     2.500155309796     1.429029967203     1.007825032230
         H           -1.577539739060     2.848127309796     0.091802967203     1.007825032230
         H            0.174982260940     3.128851309796    -0.108863032797     1.007825032230
         H           -0.898175739060    -0.705889690204     1.706155967203     1.007825032230
         H           -2.556058739060     1.148236309796    -1.792993032797     1.007825032230
         H            2.457935260940    -2.322566690204    -0.948366032797     1.007825032230
         H            3.822212260940     1.372200309796     0.775837967203     1.007825032230
         H           -2.951654739060    -2.089592690204     1.953425967203     1.007825032230
         H           -4.637803739060    -0.204764690204    -1.529440032797     1.007825032230
         H            5.101928260940    -1.408887690204    -0.982345032797     1.007825032230
         H            5.437862260940    -0.351493690204     0.396081967203     1.007825032230
         H            4.799255260940    -1.979880690204     0.661541967203     1.007825032230
         H           -4.826537739060    -1.836355690204     0.339152967203     1.007825032230

  Basis Set: AUG-CC-PVTZ
    Blend: AUG-CC-PVTZ
  Basis Set: (AUG-CC-PVTZ AUX)
    Blend: AUG-CC-PVTZ-JKFIT
	 Reference Energy          =    -609.5217555260360314 [Eh]
	 Singles Energy            =      -0.0000000000000000 [Eh]
	 Same-Spin Energy          =      -0.6805082604315515 [Eh]
	 Opposite-Spin Energy      =      -2.1310811221646873 [Eh]
	 Correlation Energy        =      -2.8115893825962388 [Eh]
	 Total Energy              =    -612.3333449086322844 [Eh]

	 ================> DF-SCS-MP2 Energies <==================
	-----------------------------------------------------------
	 SCS Same-Spin Scale       =       0.3333333333333333 [-]
	 SCS Opposite-Spin Scale   =       1.2000000000000000 [-]
	 SCS Same-Spin Energy      =      -0.2268360868105172 [Eh]
	 SCS Opposite-Spin Energy  =      -2.5572973465976245 [Eh]
	 SCS Correlation Energy    =      -2.7841334334081416 [Eh]
	 SCS Total Energy          =    -612.3058889594441325 [Eh]
	-----------------------------------------------------------

  Dipole Moment: [D]
     X:    -0.7148      Y:    -1.5112      Z:    -0.1531     Total:     1.6788

*** Psi4 exiting successfully. Buy a developer a beer!
