                               Psi4 1.4a3.dev225

  ==> Input File <==

--------------------------------------------------------------------------
#psi4
#
memory 32 gb

molecule  {
0 1
  N       -0.4697210     1.1445100    -0.2216410
  N        1.7892250     1.2839290     0.3484630
  C       -1.6240620     0.3182020    -0.0704420
  C        0.7850350     0.5381570    -0.1399480
  C       -0.5952140     2.4946130     0.3294290
  C        0.9870780    -0.7701080    -0.6316150
  C        3.3308620    -0.5454650    -0.0717700
  C       -1.7342750    -0.5947120     0.9884560
  C       -2.6794440     0.4585720    -0.9790390
  C        2.2640650    -1.3032160    -0.5830550
  C        3.0453823     0.7433777     0.3721973
  C       -2.8869950    -1.3690860     1.1220740
  C       -3.8377830    -0.3053550    -0.8293160
  C       -3.9434210    -1.2230030     0.2186750
  C        4.7300730    -1.0916580    -0.0030050
  H        0.1601300    -1.3363870    -1.0489480
  H       -0.4605330     2.5122530     1.4190480
  H       -1.5934070     2.8602250     0.0818210
  H        0.1591150     3.1409490    -0.1188450
  H       -0.9140430    -0.6937920     1.6961740
  H       -2.5719260     1.1603340    -1.8029750
  H        2.4420680    -2.3104690    -0.9583480
  H        3.8063450     1.3842980     0.7658560
  H       -2.9675220    -2.0774950     1.9434440
  H       -4.6536710    -0.1926670    -1.5394220
  H        5.0860610    -1.3967900    -0.9923270
  H        5.4219950    -0.3393960     0.3861000
  H        4.7833880    -1.9677830     0.6515600
  H       -4.8424050    -1.8242580     0.3291710
units angstrom
no_reorient  #important for SAPT in psi4, default
symmetry c1  #important for SAPT in psi4, default
}

set PROPERTIES_ORIGIN ["COM"]
properties('MP2/aug-cc-pvtz', properties = ['dipole'])
--------------------------------------------------------------------------

    Molecular point group: c1
  Charge       = 0
  Multiplicity = 1
  Basis Set: AUG-CC-PVTZ
    Blend: AUG-CC-PVTZ
  Basis Set: (AUG-CC-PVTZ AUX)
    Blend: AUG-CC-PVTZ-JKFIT

    Orbital Energies [Eh]
    ---------------------

    Doubly Occupied:

       1A    -15.572526     2A    -15.549263     3A    -11.308232
       4A    -11.275273     5A    -11.265501     6A    -11.250617
       7A    -11.244786     8A    -11.241996     9A    -11.241772
      10A    -11.238045    11A    -11.237634    12A    -11.236763
      13A    -11.231311    14A    -11.229872    15A    -11.224853
      16A     -1.288198    17A     -1.213126    18A     -1.142000
      19A     -1.088790    20A     -1.038359    21A     -1.018647
      22A     -1.008558    23A     -0.948891    24A     -0.907829
      25A     -0.848593    26A     -0.838519    27A     -0.828583
      28A     -0.784550    29A     -0.725254    30A     -0.685495
      31A     -0.673029    32A     -0.648009    33A     -0.638143
      34A     -0.624964    35A     -0.610381    36A     -0.593795
      37A     -0.589102    38A     -0.583872    39A     -0.576528
      40A     -0.561857    41A     -0.542526    42A     -0.533889
      43A     -0.521393    44A     -0.514810    45A     -0.508233
      46A     -0.499989    47A     -0.498468    48A     -0.417709
      49A     -0.409283    50A     -0.371471    51A     -0.342858
      52A     -0.338909    53A     -0.287279

  @DF-RHF Final Energy:  -609.53232111222485

   => Energetics <=

    Nuclear Repulsion Energy =            919.1189392946449743
    One-Electron Energy =               -2650.1018588897713926
    Two-Electron Energy =                1121.4505984829017962
    Total Energy =                       -609.5323211122247358
  Basis Set: (AUG-CC-PVTZ AUX)
    Blend: AUG-CC-PVTZ-RI
    Molecular point group: c1

    Geometry (in Angstrom), charge = 0, multiplicity = 1:

       Center              X                  Y                   Z               Mass
    ------------   -----------------  -----------------  -----------------  -----------------
         N           -0.451845046145     1.138856744083    -0.217937400486    14.003074004430
         N            1.807100953855     1.278275744083     0.352166599514    14.003074004430
         C           -1.606186046145     0.312548744083    -0.066738400486    12.000000000000
         C            0.802910953855     0.532503744083    -0.136244400486    12.000000000000
         C           -0.577338046145     2.488959744083     0.333132599514    12.000000000000
         C            1.004953953855    -0.775761255917    -0.627911400486    12.000000000000
         C            3.348737953855    -0.551118255917    -0.068066400486    12.000000000000
         C           -1.716399046145    -0.600365255917     0.992159599514    12.000000000000
         C           -2.661568046145     0.452918744083    -0.975335400486    12.000000000000
         C            2.281940953855    -1.308869255917    -0.579351400486    12.000000000000
         C            3.063258253855     0.737724444083     0.375900899514    12.000000000000
         C           -2.869119046145    -1.374739255917     1.125777599514    12.000000000000
         C           -3.819907046145    -0.311008255917    -0.825612400486    12.000000000000
         C           -3.925545046145    -1.228656255917     0.222378599514    12.000000000000
         C            4.747948953855    -1.097311255917     0.000698599514    12.000000000000
         H            0.178005953855    -1.342040255917    -1.045244400486     1.007825032230
         H           -0.442657046145     2.506599744083     1.422751599514     1.007825032230
         H           -1.575531046145     2.854571744083     0.085524599514     1.007825032230
         H            0.176990953855     3.135295744083    -0.115141400486     1.007825032230
         H           -0.896167046145    -0.699445255917     1.699877599514     1.007825032230
         H           -2.554050046145     1.154680744083    -1.799271400486     1.007825032230
         H            2.459943953855    -2.316122255917    -0.954644400486     1.007825032230
         H            3.824220953855     1.378644744083     0.769559599514     1.007825032230
         H           -2.949646046145    -2.083148255917     1.947147599514     1.007825032230
         H           -4.635795046145    -0.198320255917    -1.535718400486     1.007825032230
         H            5.103936953855    -1.402443255917    -0.988623400486     1.007825032230
         H            5.439870953855    -0.345049255917     0.389803599514     1.007825032230
         H            4.801263953855    -1.973436255917     0.655263599514     1.007825032230
         H           -4.824529046145    -1.829911255917     0.332874599514     1.007825032230

  Basis Set: AUG-CC-PVTZ
    Blend: AUG-CC-PVTZ
  Basis Set: (AUG-CC-PVTZ AUX)
    Blend: AUG-CC-PVTZ-JKFIT
	 Reference Energy          =    -609.5323211122248495 [Eh]
	 Singles Energy            =      -0.0000000000000000 [Eh]
	 Same-Spin Energy          =      -0.6811965934324261 [Eh]
	 Opposite-Spin Energy      =      -2.1311926677709478 [Eh]
	 Correlation Energy        =      -2.8123892612033741 [Eh]
	 Total Energy              =    -612.3447103734282564 [Eh]

	 ================> DF-SCS-MP2 Energies <==================
	-----------------------------------------------------------
	 SCS Same-Spin Scale       =       0.3333333333333333 [-]
	 SCS Opposite-Spin Scale   =       1.2000000000000000 [-]
	 SCS Same-Spin Energy      =      -0.2270655311441420 [Eh]
	 SCS Opposite-Spin Energy  =      -2.5574312013251372 [Eh]
	 SCS Correlation Energy    =      -2.7844967324692793 [Eh]
	 SCS Total Energy          =    -612.3168178446941283 [Eh]
	-----------------------------------------------------------

  Dipole Moment: [D]
     X:    -0.4612      Y:    -1.4686      Z:    -0.1638     Total:     1.5480

*** Psi4 exiting successfully. Buy a developer a beer!
