                               Psi4 1.4a3.dev225

  ==> Input File <==

--------------------------------------------------------------------------
#psi4
#
memory 32 gb

molecule  {
0 1
  N       -0.4697210     1.1445100    -0.2216410
  N        1.7892250     1.2839290     0.3484630
  C       -1.6240620     0.3182020    -0.0704420
  C        0.6354687     0.4270801    -0.2126930
  C       -0.5952140     2.4946130     0.3294290
  C        0.9870780    -0.7701080    -0.6316150
  C        3.3308620    -0.5454650    -0.0717700
  C       -1.7342750    -0.5947120     0.9884560
  C       -2.6794440     0.4585720    -0.9790390
  C        2.2640650    -1.3032160    -0.5830550
  C        3.0220600     0.7400440     0.3662130
  C       -2.8869950    -1.3690860     1.1220740
  C       -3.8377830    -0.3053550    -0.8293160
  C       -3.9434210    -1.2230030     0.2186750
  C        4.7300730    -1.0916580    -0.0030050
  H        0.1601300    -1.3363870    -1.0489480
  H       -0.4605330     2.5122530     1.4190480
  H       -1.5934070     2.8602250     0.0818210
  H        0.1591150     3.1409490    -0.1188450
  H       -0.9140430    -0.6937920     1.6961740
  H       -2.5719260     1.1603340    -1.8029750
  H        2.4420680    -2.3104690    -0.9583480
  H        3.8063450     1.3842980     0.7658560
  H       -2.9675220    -2.0774950     1.9434440
  H       -4.6536710    -0.1926670    -1.5394220
  H        5.0860610    -1.3967900    -0.9923270
  H        5.4219950    -0.3393960     0.3861000
  H        4.7833880    -1.9677830     0.6515600
  H       -4.8424050    -1.8242580     0.3291710
units angstrom
no_reorient  #important for SAPT in psi4, default
symmetry c1  #important for SAPT in psi4, default
}

set PROPERTIES_ORIGIN ["COM"]
properties('MP2/aug-cc-pvtz', properties = ['dipole'])
--------------------------------------------------------------------------

    Molecular point group: c1
  Charge       = 0
  Multiplicity = 1
  Basis Set: AUG-CC-PVTZ
    Blend: AUG-CC-PVTZ
  Basis Set: (AUG-CC-PVTZ AUX)
    Blend: AUG-CC-PVTZ-JKFIT

    Orbital Energies [Eh]
    ---------------------

    Doubly Occupied:

       1A    -15.582275     2A    -15.550573     3A    -11.306406
       4A    -11.276886     5A    -11.262563     6A    -11.254803
       7A    -11.249790     8A    -11.244286     9A    -11.243878
      10A    -11.241067    11A    -11.240748    12A    -11.239592
      13A    -11.224645    14A    -11.221857    15A    -11.211984
      16A     -1.302584    17A     -1.191860    18A     -1.146217
      19A     -1.074591    20A     -1.048696    21A     -1.021397
      22A     -1.012540    23A     -0.959613    24A     -0.906265
      25A     -0.849571    26A     -0.841934    27A     -0.832498
      28A     -0.777971    29A     -0.727489    30A     -0.690426
      31A     -0.673240    32A     -0.654639    33A     -0.627580
      34A     -0.620339    35A     -0.611959    36A     -0.602827
      37A     -0.593345    38A     -0.583054    39A     -0.573778
      40A     -0.560534    41A     -0.545282    42A     -0.535059
      43A     -0.515950    44A     -0.513335    45A     -0.506825
      46A     -0.500939    47A     -0.491630    48A     -0.429882
      49A     -0.390131    50A     -0.367242    51A     -0.343567
      52A     -0.342029    53A     -0.279533

  @DF-RHF Final Energy:  -609.48424129156422

   => Energetics <=

    Nuclear Repulsion Energy =            920.0228183418184926
    One-Electron Energy =               -2651.8187126589082254
    Two-Electron Energy =                1122.3116530255254020
    Total Energy =                       -609.4842412915643308
  Basis Set: (AUG-CC-PVTZ AUX)
    Blend: AUG-CC-PVTZ-RI
    Molecular point group: c1

    Geometry (in Angstrom), charge = 0, multiplicity = 1:

       Center              X                  Y                   Z               Mass
    ------------   -----------------  -----------------  -----------------  -----------------
         N           -0.441373068325     1.145786670438    -0.213168714272    14.003074004430
         N            1.817572931675     1.285205670438     0.356935285728    14.003074004430
         C           -1.595714068325     0.319478670438    -0.061969714272    12.000000000000
         C            0.663816631675     0.428356770438    -0.204220714272    12.000000000000
         C           -0.566866068325     2.495889670438     0.337901285728    12.000000000000
         C            1.015425931675    -0.768831329562    -0.623142714272    12.000000000000
         C            3.359209931675    -0.544188329562    -0.063297714272    12.000000000000
         C           -1.705927068325    -0.593435329562     0.996928285728    12.000000000000
         C           -2.651096068325     0.459848670438    -0.970566714272    12.000000000000
         C            2.292412931675    -1.301939329562    -0.574582714272    12.000000000000
         C            3.050407931675     0.741320670438     0.374685285728    12.000000000000
         C           -2.858647068325    -1.367809329562     1.130546285728    12.000000000000
         C           -3.809435068325    -0.304078329562    -0.820843714272    12.000000000000
         C           -3.915073068325    -1.221726329562     0.227147285728    12.000000000000
         C            4.758420931675    -1.090381329562     0.005467285728    12.000000000000
         H            0.188477931675    -1.335110329562    -1.040475714272     1.007825032230
         H           -0.432185068325     2.513529670438     1.427520285728     1.007825032230
         H           -1.565059068325     2.861501670438     0.090293285728     1.007825032230
         H            0.187462931675     3.142225670438    -0.110372714272     1.007825032230
         H           -0.885695068325    -0.692515329562     1.704646285728     1.007825032230
         H           -2.543578068325     1.161610670438    -1.794502714272     1.007825032230
         H            2.470415931675    -2.309192329562    -0.949875714272     1.007825032230
         H            3.834692931675     1.385574670438     0.774328285728     1.007825032230
         H           -2.939174068325    -2.076218329562     1.951916285728     1.007825032230
         H           -4.625323068325    -0.191390329562    -1.530949714272     1.007825032230
         H            5.114408931675    -1.395513329562    -0.983854714272     1.007825032230
         H            5.450342931675    -0.338119329562     0.394572285728     1.007825032230
         H            4.811735931675    -1.966506329562     0.660032285728     1.007825032230
         H           -4.814057068325    -1.822981329562     0.337643285728     1.007825032230

  Basis Set: AUG-CC-PVTZ
    Blend: AUG-CC-PVTZ
  Basis Set: (AUG-CC-PVTZ AUX)
    Blend: AUG-CC-PVTZ-JKFIT
	 Reference Energy          =    -609.4842412915642171 [Eh]
	 Singles Energy            =      -0.0000000000000000 [Eh]
	 Same-Spin Energy          =      -0.6841625780888232 [Eh]
	 Opposite-Spin Energy      =      -2.1377301363843459 [Eh]
	 Correlation Energy        =      -2.8218927144731691 [Eh]
	 Total Energy              =    -612.3061340060373823 [Eh]

	 ================> DF-SCS-MP2 Energies <==================
	-----------------------------------------------------------
	 SCS Same-Spin Scale       =       0.3333333333333333 [-]
	 SCS Opposite-Spin Scale   =       1.2000000000000000 [-]
	 SCS Same-Spin Energy      =      -0.2280541926962744 [Eh]
	 SCS Opposite-Spin Energy  =      -2.5652761636612151 [Eh]
	 SCS Correlation Energy    =      -2.7933303563574894 [Eh]
	 SCS Total Energy          =    -612.2775716479217181 [Eh]
	-----------------------------------------------------------

  Dipole Moment: [D]
     X:    -1.1788      Y:    -1.1668      Z:    -0.1274     Total:     1.6634

*** Psi4 exiting successfully. Buy a developer a beer!
