                               Psi4 1.4a3.dev225

  ==> Input File <==

--------------------------------------------------------------------------
#psi4
#
memory 32 gb

molecule  {
0 1
  N       -0.4697210     1.1445100    -0.2216410
  N        1.7892250     1.2839290     0.3484630
  C       -1.6240620     0.3182020    -0.0704420
  C        0.7850350     0.5381570    -0.1399480
  C       -0.5952140     2.4946130     0.3294290
  C        0.9870780    -0.7701080    -0.6316150
  C        3.3308620    -0.5454650    -0.0717700
  C       -1.7968133    -0.5357574     0.8704005
  C       -2.6794440     0.4585720    -0.9790390
  C        2.2640650    -1.3032160    -0.5830550
  C        3.0220600     0.7400440     0.3662130
  C       -2.8869950    -1.3690860     1.1220740
  C       -3.8377830    -0.3053550    -0.8293160
  C       -3.9434210    -1.2230030     0.2186750
  C        4.7300730    -1.0916580    -0.0030050
  H        0.1601300    -1.3363870    -1.0489480
  H       -0.4605330     2.5122530     1.4190480
  H       -1.5934070     2.8602250     0.0818210
  H        0.1591150     3.1409490    -0.1188450
  H       -0.9140430    -0.6937920     1.6961740
  H       -2.5719260     1.1603340    -1.8029750
  H        2.4420680    -2.3104690    -0.9583480
  H        3.8063450     1.3842980     0.7658560
  H       -2.9675220    -2.0774950     1.9434440
  H       -4.6536710    -0.1926670    -1.5394220
  H        5.0860610    -1.3967900    -0.9923270
  H        5.4219950    -0.3393960     0.3861000
  H        4.7833880    -1.9677830     0.6515600
  H       -4.8424050    -1.8242580     0.3291710
units angstrom
no_reorient  #important for SAPT in psi4, default
symmetry c1  #important for SAPT in psi4, default
}

set PROPERTIES_ORIGIN ["COM"]
properties('MP2/aug-cc-pvtz', properties = ['dipole'])
--------------------------------------------------------------------------

    Molecular point group: c1
  Charge       = 0
  Multiplicity = 1
  Basis Set: AUG-CC-PVTZ
    Blend: AUG-CC-PVTZ
  Basis Set: (AUG-CC-PVTZ AUX)
    Blend: AUG-CC-PVTZ-JKFIT

    Orbital Energies [Eh]
    ---------------------

    Doubly Occupied:

       1A    -15.573262     2A    -15.548424     3A    -11.308286
       4A    -11.264968     5A    -11.260559     6A    -11.249734
       7A    -11.245456     8A    -11.242641     9A    -11.240199
      10A    -11.239149    11A    -11.238147    12A    -11.235049
      13A    -11.229820    14A    -11.228618    15A    -11.224743
      16A     -1.291222    17A     -1.220474    18A     -1.153485
      19A     -1.089511    20A     -1.038628    21A     -1.023729
      22A     -1.014244    23A     -0.949195    24A     -0.907693
      25A     -0.846537    26A     -0.841139    27A     -0.832530
      28A     -0.786732    29A     -0.726400    30A     -0.685928
      31A     -0.673527    32A     -0.649948    33A     -0.635084
      34A     -0.620993    35A     -0.616428    36A     -0.594356
      37A     -0.588366    38A     -0.577003    39A     -0.572745
      40A     -0.560352    41A     -0.542834    42A     -0.533854
      43A     -0.522928    44A     -0.520674    45A     -0.512244
      46A     -0.506857    47A     -0.470309    48A     -0.419915
      49A     -0.410118    50A     -0.372898    51A     -0.354838
      52A     -0.336230    53A     -0.288833

  @DF-RHF Final Energy:  -609.50733396726196

   => Energetics <=

    Nuclear Repulsion Energy =            921.9612653691369815
    One-Electron Energy =               -2655.7015213415602375
    Two-Electron Energy =                1124.2329220051612992
    Total Energy =                       -609.5073339672619568
  Basis Set: (AUG-CC-PVTZ AUX)
    Blend: AUG-CC-PVTZ-RI
    Molecular point group: c1

    Geometry (in Angstrom), charge = 0, multiplicity = 1:

       Center              X                  Y                   Z               Mass
    ------------   -----------------  -----------------  -----------------  -----------------
         N           -0.446644412333     1.135487749071    -0.210424227065    14.003074004430
         N            1.812301587667     1.274906749071     0.359679772935    14.003074004430
         C           -1.600985412333     0.309179749071    -0.059225227065    12.000000000000
         C            0.808111587667     0.529134749071    -0.128731227065    12.000000000000
         C           -0.572137412333     2.485590749071     0.340645772935    12.000000000000
         C            1.010154587667    -0.779130250929    -0.620398227065    12.000000000000
         C            3.353938587667    -0.554487250929    -0.060553227065    12.000000000000
         C           -1.773736712333    -0.544779650929     0.881617272935    12.000000000000
         C           -2.656367412333     0.449549749071    -0.967822227065    12.000000000000
         C            2.287141587667    -1.312238250929    -0.571838227065    12.000000000000
         C            3.045136587667     0.731021749071     0.377429772935    12.000000000000
         C           -2.863918412333    -1.378108250929     1.133290772935    12.000000000000
         C           -3.814706412333    -0.314377250929    -0.818099227065    12.000000000000
         C           -3.920344412333    -1.232025250929     0.229891772935    12.000000000000
         C            4.753149587667    -1.100680250929     0.008211772935    12.000000000000
         H            0.183206587667    -1.345409250929    -1.037731227065     1.007825032230
         H           -0.437456412333     2.503230749071     1.430264772935     1.007825032230
         H           -1.570330412333     2.851202749071     0.093037772935     1.007825032230
         H            0.182191587667     3.131926749071    -0.107628227065     1.007825032230
         H           -0.890966412333    -0.702814250929     1.707390772935     1.007825032230
         H           -2.548849412333     1.151311749071    -1.791758227065     1.007825032230
         H            2.465144587667    -2.319491250929    -0.947131227065     1.007825032230
         H            3.829421587667     1.375275749071     0.777072772935     1.007825032230
         H           -2.944445412333    -2.086517250929     1.954660772935     1.007825032230
         H           -4.630594412333    -0.201689250929    -1.528205227065     1.007825032230
         H            5.109137587667    -1.405812250929    -0.981110227065     1.007825032230
         H            5.445071587667    -0.348418250929     0.397316772935     1.007825032230
         H            4.806464587667    -1.976805250929     0.662776772935     1.007825032230
         H           -4.819328412333    -1.833280250929     0.340387772935     1.007825032230

  Basis Set: AUG-CC-PVTZ
    Blend: AUG-CC-PVTZ
  Basis Set: (AUG-CC-PVTZ AUX)
    Blend: AUG-CC-PVTZ-JKFIT
	 Reference Energy          =    -609.5073339672619568 [Eh]
	 Singles Energy            =      -0.0000000000000000 [Eh]
	 Same-Spin Energy          =      -0.6813325263633393 [Eh]
	 Opposite-Spin Energy      =      -2.1313034605585797 [Eh]
	 Correlation Energy        =      -2.8126359869219191 [Eh]
	 Total Energy              =    -612.3199699541838754 [Eh]

	 ================> DF-SCS-MP2 Energies <==================
	-----------------------------------------------------------
	 SCS Same-Spin Scale       =       0.3333333333333333 [-]
	 SCS Opposite-Spin Scale   =       1.2000000000000000 [-]
	 SCS Same-Spin Energy      =      -0.2271108421211131 [Eh]
	 SCS Opposite-Spin Energy  =      -2.5575641526702957 [Eh]
	 SCS Correlation Energy    =      -2.7846749947914087 [Eh]
	 SCS Total Energy          =    -612.2920089620533872 [Eh]
	-----------------------------------------------------------

  Dipole Moment: [D]
     X:    -0.5925      Y:    -1.5131      Z:    -0.1596     Total:     1.6328

*** Psi4 exiting successfully. Buy a developer a beer!
