                               Psi4 1.4a3.dev225

  ==> Input File <==

--------------------------------------------------------------------------
#psi4
#
memory 32 gb

molecule  {
0 1
  N       -0.4697210     1.1445100    -0.2216410
  N        1.7892250     1.2839290     0.3484630
  C       -1.6240620     0.3182020    -0.0704420
  C        0.7850350     0.5381570    -0.1399480
  C       -0.5952140     2.4946130     0.3294290
  C        0.9870780    -0.7701080    -0.6316150
  C        3.3308620    -0.5454650    -0.0717700
  C       -1.7382043    -0.6272595     1.0262081
  C       -2.6794440     0.4585720    -0.9790390
  C        2.2640650    -1.3032160    -0.5830550
  C        3.0220600     0.7400440     0.3662130
  C       -2.8869950    -1.3690860     1.1220740
  C       -3.8377830    -0.3053550    -0.8293160
  C       -3.9434210    -1.2230030     0.2186750
  C        4.7300730    -1.0916580    -0.0030050
  H        0.1601300    -1.3363870    -1.0489480
  H       -0.4605330     2.5122530     1.4190480
  H       -1.5934070     2.8602250     0.0818210
  H        0.1591150     3.1409490    -0.1188450
  H       -0.9140430    -0.6937920     1.6961740
  H       -2.5719260     1.1603340    -1.8029750
  H        2.4420680    -2.3104690    -0.9583480
  H        3.8063450     1.3842980     0.7658560
  H       -2.9675220    -2.0774950     1.9434440
  H       -4.6536710    -0.1926670    -1.5394220
  H        5.0860610    -1.3967900    -0.9923270
  H        5.4219950    -0.3393960     0.3861000
  H        4.7833880    -1.9677830     0.6515600
  H       -4.8424050    -1.8242580     0.3291710
units angstrom
no_reorient  #important for SAPT in psi4, default
symmetry c1  #important for SAPT in psi4, default
}

set PROPERTIES_ORIGIN ["COM"]
properties('MP2/aug-cc-pvtz', properties = ['dipole'])
--------------------------------------------------------------------------

    Molecular point group: c1
  Charge       = 0
  Multiplicity = 1
  Basis Set: AUG-CC-PVTZ
    Blend: AUG-CC-PVTZ
  Basis Set: (AUG-CC-PVTZ AUX)
    Blend: AUG-CC-PVTZ-JKFIT

    Orbital Energies [Eh]
    ---------------------

    Doubly Occupied:

       1A    -15.573662     2A    -15.549447     3A    -11.308915
       4A    -11.280267     5A    -11.265931     6A    -11.250583
       7A    -11.245403     8A    -11.242179     9A    -11.239694
      10A    -11.238138    11A    -11.237455    12A    -11.236154
      13A    -11.230793    14A    -11.229228    15A    -11.225438
      16A     -1.290067    17A     -1.216798    18A     -1.141158
      19A     -1.090267    20A     -1.038394    21A     -1.021792
      22A     -1.004271    23A     -0.949668    24A     -0.908006
      25A     -0.847309    26A     -0.840814    27A     -0.826059
      28A     -0.785191    29A     -0.724012    30A     -0.687688
      31A     -0.674841    32A     -0.647161    33A     -0.639895
      34A     -0.623265    35A     -0.607181    36A     -0.594730
      37A     -0.588756    38A     -0.584919    39A     -0.576986
      40A     -0.561909    41A     -0.543593    42A     -0.534695
      43A     -0.523798    44A     -0.516637    45A     -0.506428
      46A     -0.501265    47A     -0.495705    48A     -0.417495
      49A     -0.410493    50A     -0.374018    51A     -0.344623
      52A     -0.336543    53A     -0.285702

  @DF-RHF Final Energy:  -609.53035635967410

   => Energetics <=

    Nuclear Repulsion Energy =            918.8249843519574824
    One-Electron Energy =               -2649.4798395813973002
    Two-Electron Energy =                1121.1244988697656026
    Total Energy =                       -609.5303563596742151
  Basis Set: (AUG-CC-PVTZ AUX)
    Blend: AUG-CC-PVTZ-RI
    Molecular point group: c1

    Geometry (in Angstrom), charge = 0, multiplicity = 1:

       Center              X                  Y                   Z               Mass
    ------------   -----------------  -----------------  -----------------  -----------------
         N           -0.450194398556     1.141030092300    -0.219861597321    14.003074004430
         N            1.808751601444     1.280449092300     0.350242402679    14.003074004430
         C           -1.604535398556     0.314722092300    -0.068662597321    12.000000000000
         C            0.804561601444     0.534677092300    -0.138168597321    12.000000000000
         C           -0.575687398556     2.491133092300     0.331208402679    12.000000000000
         C            1.006604601444    -0.773587907700    -0.629835597321    12.000000000000
         C            3.350388601444    -0.548944907700    -0.069990597321    12.000000000000
         C           -1.718677698556    -0.630739407700     1.027987502679    12.000000000000
         C           -2.659917398556     0.455092092300    -0.977259597321    12.000000000000
         C            2.283591601444    -1.306695907700    -0.581275597321    12.000000000000
         C            3.041586601444     0.736564092300     0.367992402679    12.000000000000
         C           -2.867468398556    -1.372565907700     1.123853402679    12.000000000000
         C           -3.818256398556    -0.308834907700    -0.827536597321    12.000000000000
         C           -3.923894398556    -1.226482907700     0.220454402679    12.000000000000
         C            4.749599601444    -1.095137907700    -0.001225597321    12.000000000000
         H            0.179656601444    -1.339866907700    -1.047168597321     1.007825032230
         H           -0.441006398556     2.508773092300     1.420827402679     1.007825032230
         H           -1.573880398556     2.856745092300     0.083600402679     1.007825032230
         H            0.178641601444     3.137469092300    -0.117065597321     1.007825032230
         H           -0.894516398556    -0.697271907700     1.697953402679     1.007825032230
         H           -2.552399398556     1.156854092300    -1.801195597321     1.007825032230
         H            2.461594601444    -2.313948907700    -0.956568597321     1.007825032230
         H            3.825871601444     1.380818092300     0.767635402679     1.007825032230
         H           -2.947995398556    -2.080974907700     1.945223402679     1.007825032230
         H           -4.634144398556    -0.196146907700    -1.537642597321     1.007825032230
         H            5.105587601444    -1.400269907700    -0.990547597321     1.007825032230
         H            5.441521601444    -0.342875907700     0.387879402679     1.007825032230
         H            4.802914601444    -1.971262907700     0.653339402679     1.007825032230
         H           -4.822878398556    -1.827737907700     0.330950402679     1.007825032230

  Basis Set: AUG-CC-PVTZ
    Blend: AUG-CC-PVTZ
  Basis Set: (AUG-CC-PVTZ AUX)
    Blend: AUG-CC-PVTZ-JKFIT
	 Reference Energy          =    -609.5303563596741014 [Eh]
	 Singles Energy            =      -0.0000000000000000 [Eh]
	 Same-Spin Energy          =      -0.6811162968534378 [Eh]
	 Opposite-Spin Energy      =      -2.1310573866651215 [Eh]
	 Correlation Energy        =      -2.8121736835185591 [Eh]
	 Total Energy              =    -612.3425300431927099 [Eh]

	 ================> DF-SCS-MP2 Energies <==================
	-----------------------------------------------------------
	 SCS Same-Spin Scale       =       0.3333333333333333 [-]
	 SCS Opposite-Spin Scale   =       1.2000000000000000 [-]
	 SCS Same-Spin Energy      =      -0.2270387656178126 [Eh]
	 SCS Opposite-Spin Energy  =      -2.5572688639981456 [Eh]
	 SCS Correlation Energy    =      -2.7843076296159581 [Eh]
	 SCS Total Energy          =    -612.3146639892900112 [Eh]
	-----------------------------------------------------------

  Dipole Moment: [D]
     X:    -0.4448      Y:    -1.4391      Z:    -0.1793     Total:     1.5169

*** Psi4 exiting successfully. Buy a developer a beer!
