                               Psi4 1.4a3.dev225

  ==> Input File <==

--------------------------------------------------------------------------
#psi4
#
memory 32 gb

molecule  {
0 1
  N       -0.4697210     1.1445100    -0.2216410
  N        1.7892250     1.2839290     0.3484630
  C       -1.6240620     0.3182020    -0.0704420
  C        0.7850350     0.5381570    -0.1399480
  C       -0.5952140     2.4946130     0.3294290
  C        0.9870780    -0.7701080    -0.6316150
  C        3.3308620    -0.5454650    -0.0717700
  C       -1.7342750    -0.5947120     0.9884560
  C       -2.6794440     0.4585720    -0.9790390
  C        2.2640650    -1.3032160    -0.5830550
  C        3.0220600     0.7400440     0.3662130
  C       -2.8869950    -1.3690860     1.1220740
  C       -3.8377830    -0.3053550    -0.8293160
  C       -3.9396400    -1.1901587     0.1811655
  C        4.7300730    -1.0916580    -0.0030050
  H        0.1601300    -1.3363870    -1.0489480
  H       -0.4605330     2.5122530     1.4190480
  H       -1.5934070     2.8602250     0.0818210
  H        0.1591150     3.1409490    -0.1188450
  H       -0.9140430    -0.6937920     1.6961740
  H       -2.5719260     1.1603340    -1.8029750
  H        2.4420680    -2.3104690    -0.9583480
  H        3.8063450     1.3842980     0.7658560
  H       -2.9675220    -2.0774950     1.9434440
  H       -4.6536710    -0.1926670    -1.5394220
  H        5.0860610    -1.3967900    -0.9923270
  H        5.4219950    -0.3393960     0.3861000
  H        4.7833880    -1.9677830     0.6515600
  H       -4.8424050    -1.8242580     0.3291710
units angstrom
no_reorient  #important for SAPT in psi4, default
symmetry c1  #important for SAPT in psi4, default
}

set PROPERTIES_ORIGIN ["COM"]
properties('MP2/aug-cc-pvtz', properties = ['dipole'])
--------------------------------------------------------------------------

    Molecular point group: c1
  Charge       = 0
  Multiplicity = 1
  Basis Set: AUG-CC-PVTZ
    Blend: AUG-CC-PVTZ
  Basis Set: (AUG-CC-PVTZ AUX)
    Blend: AUG-CC-PVTZ-JKFIT

    Orbital Energies [Eh]
    ---------------------

    Doubly Occupied:

       1A    -15.572622     2A    -15.548989     3A    -11.308546
       4A    -11.274768     5A    -11.265623     6A    -11.250319
       7A    -11.244958     8A    -11.244346     9A    -11.238038
      10A    -11.237712    11A    -11.236884    12A    -11.235103
      13A    -11.230406    14A    -11.228923    15A    -11.225199
      16A     -1.290076    17A     -1.217444    18A     -1.145212
      19A     -1.090038    20A     -1.037793    21A     -1.022402
      22A     -1.007299    23A     -0.949362    24A     -0.907332
      25A     -0.847004    26A     -0.836809    27A     -0.832079
      28A     -0.785009    29A     -0.725023    30A     -0.683193
      31A     -0.673959    32A     -0.647969    33A     -0.638377
      34A     -0.622980    35A     -0.610832    36A     -0.596120
      37A     -0.587153    38A     -0.583748    39A     -0.576652
      40A     -0.560339    41A     -0.543083    42A     -0.533046
      43A     -0.523390    44A     -0.514539    45A     -0.509865
      46A     -0.502233    47A     -0.493609    48A     -0.418235
      49A     -0.410325    50A     -0.373693    51A     -0.348441
      52A     -0.335122    53A     -0.286890

  @DF-RHF Final Energy:  -609.53069021111662

   => Energetics <=

    Nuclear Repulsion Energy =            920.1242914250574358
    One-Electron Energy =               -2652.0917433272593371
    Two-Electron Energy =                1122.4367616910853940
    Total Energy =                       -609.5306902111165073
  Basis Set: (AUG-CC-PVTZ AUX)
    Blend: AUG-CC-PVTZ-RI
    Molecular point group: c1

    Geometry (in Angstrom), charge = 0, multiplicity = 1:

       Center              X                  Y                   Z               Mass
    ------------   -----------------  -----------------  -----------------  -----------------
         N           -0.450661416569     1.137069267357    -0.215302952010    14.003074004430
         N            1.808284583431     1.276488267357     0.354801047990    14.003074004430
         C           -1.605002416569     0.310761267357    -0.064103952010    12.000000000000
         C            0.804094583431     0.530716267357    -0.133609952010    12.000000000000
         C           -0.576154416569     2.487172267357     0.335767047990    12.000000000000
         C            1.006137583431    -0.777548732643    -0.625276952010    12.000000000000
         C            3.349921583431    -0.552905732643    -0.065431952010    12.000000000000
         C           -1.715215416569    -0.602152732643     0.994794047990    12.000000000000
         C           -2.660384416569     0.451131267357    -0.972700952010    12.000000000000
         C            2.283124583431    -1.310656732643    -0.576716952010    12.000000000000
         C            3.041119583431     0.732603267357     0.372551047990    12.000000000000
         C           -2.867935416569    -1.376526732643     1.128412047990    12.000000000000
         C           -3.818723416569    -0.312795732643    -0.822977952010    12.000000000000
         C           -3.920580416569    -1.197599432643     0.187503547990    12.000000000000
         C            4.749132583431    -1.099098732643     0.003333047990    12.000000000000
         H            0.179189583431    -1.343827732643    -1.042609952010     1.007825032230
         H           -0.441473416569     2.504812267357     1.425386047990     1.007825032230
         H           -1.574347416569     2.852784267357     0.088159047990     1.007825032230
         H            0.178174583431     3.133508267357    -0.112506952010     1.007825032230
         H           -0.894983416569    -0.701232732643     1.702512047990     1.007825032230
         H           -2.552866416569     1.152893267357    -1.796636952010     1.007825032230
         H            2.461127583431    -2.317909732643    -0.952009952010     1.007825032230
         H            3.825404583431     1.376857267357     0.772194047990     1.007825032230
         H           -2.948462416569    -2.084935732643     1.949782047990     1.007825032230
         H           -4.634611416569    -0.200107732643    -1.533083952010     1.007825032230
         H            5.105120583431    -1.404230732643    -0.985988952010     1.007825032230
         H            5.441054583431    -0.346836732643     0.392438047990     1.007825032230
         H            4.802447583431    -1.975223732643     0.657898047990     1.007825032230
         H           -4.823345416569    -1.831698732643     0.335509047990     1.007825032230

  Basis Set: AUG-CC-PVTZ
    Blend: AUG-CC-PVTZ
  Basis Set: (AUG-CC-PVTZ AUX)
    Blend: AUG-CC-PVTZ-JKFIT
	 Reference Energy          =    -609.5306902111166210 [Eh]
	 Singles Energy            =      -0.0000000000000000 [Eh]
	 Same-Spin Energy          =      -0.6811057544249769 [Eh]
	 Opposite-Spin Energy      =      -2.1307519956991494 [Eh]
	 Correlation Energy        =      -2.8118577501241262 [Eh]
	 Total Energy              =    -612.3425479612407116 [Eh]

	 ================> DF-SCS-MP2 Energies <==================
	-----------------------------------------------------------
	 SCS Same-Spin Scale       =       0.3333333333333333 [-]
	 SCS Opposite-Spin Scale   =       1.2000000000000000 [-]
	 SCS Same-Spin Energy      =      -0.2270352514749923 [Eh]
	 SCS Opposite-Spin Energy  =      -2.5569023948389793 [Eh]
	 SCS Correlation Energy    =      -2.7839376463139716 [Eh]
	 SCS Total Energy          =    -612.3146278574305370 [Eh]
	-----------------------------------------------------------

  Dipole Moment: [D]
     X:    -0.4827      Y:    -1.4638      Z:    -0.1572     Total:     1.5494

*** Psi4 exiting successfully. Buy a developer a beer!
