                               Psi4 1.4a3.dev225

  ==> Input File <==

--------------------------------------------------------------------------
#psi4
#
memory 32 gb

molecule  {
0 1
  N       -0.4697210     1.1445100    -0.2216410
  N        1.7892250     1.2839290     0.3484630
  C       -1.6240620     0.3182020    -0.0704420
  C        0.7850350     0.5381570    -0.1399480
  C       -0.5952140     2.4946130     0.3294290
  C        1.0156933    -0.9553974    -0.7012497
  C        3.3308620    -0.5454650    -0.0717700
  C       -1.7342750    -0.5947120     0.9884560
  C       -2.6794440     0.4585720    -0.9790390
  C        2.2640650    -1.3032160    -0.5830550
  C        3.0220600     0.7400440     0.3662130
  C       -2.8869950    -1.3690860     1.1220740
  C       -3.8377830    -0.3053550    -0.8293160
  C       -3.9434210    -1.2230030     0.2186750
  C        4.7300730    -1.0916580    -0.0030050
  H        0.1601300    -1.3363870    -1.0489480
  H       -0.4605330     2.5122530     1.4190480
  H       -1.5934070     2.8602250     0.0818210
  H        0.1591150     3.1409490    -0.1188450
  H       -0.9140430    -0.6937920     1.6961740
  H       -2.5719260     1.1603340    -1.8029750
  H        2.4420680    -2.3104690    -0.9583480
  H        3.8063450     1.3842980     0.7658560
  H       -2.9675220    -2.0774950     1.9434440
  H       -4.6536710    -0.1926670    -1.5394220
  H        5.0860610    -1.3967900    -0.9923270
  H        5.4219950    -0.3393960     0.3861000
  H        4.7833880    -1.9677830     0.6515600
  H       -4.8424050    -1.8242580     0.3291710
units angstrom
no_reorient  #important for SAPT in psi4, default
symmetry c1  #important for SAPT in psi4, default
}

set PROPERTIES_ORIGIN ["COM"]
properties('MP2/aug-cc-pvtz', properties = ['dipole'])
--------------------------------------------------------------------------

    Molecular point group: c1
  Charge       = 0
  Multiplicity = 1
  Basis Set: AUG-CC-PVTZ
    Blend: AUG-CC-PVTZ
  Basis Set: (AUG-CC-PVTZ AUX)
    Blend: AUG-CC-PVTZ-JKFIT

    Orbital Energies [Eh]
    ---------------------

    Doubly Occupied:

       1A    -15.581781     2A    -15.543800     3A    -11.325723
       4A    -11.279418     5A    -11.261461     6A    -11.248286
       7A    -11.245301     8A    -11.245103     9A    -11.241757
      10A    -11.241547    11A    -11.240863    12A    -11.237878
      13A    -11.234443    14A    -11.224622    15A    -11.221796
      16A     -1.288010    17A     -1.215310    18A     -1.145655
      19A     -1.096000    20A     -1.032849    21A     -1.022170
      22A     -1.011887    23A     -0.948032    24A     -0.907619
      25A     -0.847036    26A     -0.840209    27A     -0.827920
      28A     -0.782722    29A     -0.723464    30A     -0.687727
      31A     -0.677990    32A     -0.659114    33A     -0.649874
      34A     -0.632747    35A     -0.607637    36A     -0.595824
      37A     -0.586145    38A     -0.577054    39A     -0.573706
      40A     -0.560160    41A     -0.539354    42A     -0.527011
      43A     -0.516159    44A     -0.514884    45A     -0.513100
      46A     -0.504431    47A     -0.502286    48A     -0.421072
      49A     -0.394700    50A     -0.388588    51A     -0.345686
      52A     -0.340275    53A     -0.279672

  @DF-RHF Final Energy:  -609.49574741778360

   => Energetics <=

    Nuclear Repulsion Energy =            916.6693548927514712
    One-Electron Energy =               -2645.0144918261808016
    Two-Electron Energy =                1118.8493895156457256
    Total Energy =                       -609.4957474177836048
  Basis Set: (AUG-CC-PVTZ AUX)
    Blend: AUG-CC-PVTZ-RI
    Molecular point group: c1

    Geometry (in Angstrom), charge = 0, multiplicity = 1:

       Center              X                  Y                   Z               Mass
    ------------   -----------------  -----------------  -----------------  -----------------
         N           -0.452165646685     1.150281771063    -0.213357107218    14.003074004430
         N            1.806780353315     1.289700771063     0.356746892782    14.003074004430
         C           -1.606506646685     0.323973771063    -0.062158107218    12.000000000000
         C            0.802590353315     0.543928771063    -0.131664107218    12.000000000000
         C           -0.577658646685     2.500384771063     0.337712892782    12.000000000000
         C            1.033248653315    -0.949625628937    -0.692965807218    12.000000000000
         C            3.348417353315    -0.539693228937    -0.063486107218    12.000000000000
         C           -1.716719646685    -0.588940228937     0.996739892782    12.000000000000
         C           -2.661888646685     0.464343771063    -0.970755107218    12.000000000000
         C            2.281620353315    -1.297444228937    -0.574771107218    12.000000000000
         C            3.039615353315     0.745815771063     0.374496892782    12.000000000000
         C           -2.869439646685    -1.363314228937     1.130357892782    12.000000000000
         C           -3.820227646685    -0.299583228937    -0.821032107218    12.000000000000
         C           -3.925865646685    -1.217231228937     0.226958892782    12.000000000000
         C            4.747628353315    -1.085886228937     0.005278892782    12.000000000000
         H            0.177685353315    -1.330615228937    -1.040664107218     1.007825032230
         H           -0.442977646685     2.518024771063     1.427331892782     1.007825032230
         H           -1.575851646685     2.865996771063     0.090104892782     1.007825032230
         H            0.176670353315     3.146720771063    -0.110561107218     1.007825032230
         H           -0.896487646685    -0.688020228937     1.704457892782     1.007825032230
         H           -2.554370646685     1.166105771063    -1.794691107218     1.007825032230
         H            2.459623353315    -2.304697228937    -0.950064107218     1.007825032230
         H            3.823900353315     1.390069771063     0.774139892782     1.007825032230
         H           -2.949966646685    -2.071723228937     1.951727892782     1.007825032230
         H           -4.636115646685    -0.186895228937    -1.531138107218     1.007825032230
         H            5.103616353315    -1.391018228937    -0.984043107218     1.007825032230
         H            5.439550353315    -0.333624228937     0.394383892782     1.007825032230
         H            4.800943353315    -1.962011228937     0.659843892782     1.007825032230
         H           -4.824849646685    -1.818486228937     0.337454892782     1.007825032230

  Basis Set: AUG-CC-PVTZ
    Blend: AUG-CC-PVTZ
  Basis Set: (AUG-CC-PVTZ AUX)
    Blend: AUG-CC-PVTZ-JKFIT
	 Reference Energy          =    -609.4957474177836048 [Eh]
	 Singles Energy            =      -0.0000000000000000 [Eh]
	 Same-Spin Energy          =      -0.6795571580082593 [Eh]
	 Opposite-Spin Energy      =      -2.1315637562157770 [Eh]
	 Correlation Energy        =      -2.8111209142240363 [Eh]
	 Total Energy              =    -612.3068683320076389 [Eh]

	 ================> DF-SCS-MP2 Energies <==================
	-----------------------------------------------------------
	 SCS Same-Spin Scale       =       0.3333333333333333 [-]
	 SCS Opposite-Spin Scale   =       1.2000000000000000 [-]
	 SCS Same-Spin Energy      =      -0.2265190526694198 [Eh]
	 SCS Opposite-Spin Energy  =      -2.5578765074589325 [Eh]
	 SCS Correlation Energy    =      -2.7843955601283521 [Eh]
	 SCS Total Energy          =    -612.2801429779119644 [Eh]
	-----------------------------------------------------------

  Dipole Moment: [D]
     X:    -0.9989      Y:    -1.3191      Z:    -0.1548     Total:     1.6619

*** Psi4 exiting successfully. Buy a developer a beer!
