                               Psi4 1.4a3.dev225

  ==> Input File <==

--------------------------------------------------------------------------
#psi4
#
memory 32 gb

molecule  {
0 1
  N       -0.4697210     1.1445100    -0.2216410
  N        1.7892250     1.2839290     0.3484630
  C       -1.6240620     0.3182020    -0.0704420
  C        0.7850350     0.5381570    -0.1399480
  C       -0.5952140     2.4946130     0.3294290
  C        0.9870780    -0.7701080    -0.6316150
  C        3.3308620    -0.5454650    -0.0717700
  C       -1.7342750    -0.5947120     0.9884560
  C       -2.6794440     0.4585720    -0.9790390
  C        2.2640650    -1.3032160    -0.5830550
  C        3.0220600     0.7400440     0.3662130
  C       -2.8869950    -1.3690860     1.1220740
  C       -3.8377830    -0.3053550    -0.8293160
  C       -3.9434210    -1.2230030     0.2186750
  C        4.7300730    -1.0916580    -0.0030050
  H        0.1601300    -1.3363870    -1.0489480
  H       -0.4605330     2.5122530     1.4190480
  H       -1.5934070     2.8602250     0.0818210
  H        0.1591150     3.1409490    -0.1188450
  H       -0.9140430    -0.6937920     1.6961740
  H       -2.5719260     1.1603340    -1.8029750
  H        2.4420680    -2.3104690    -0.9583480
  H        3.8063450     1.3842980     0.7658560
  H       -2.9675220    -2.0774950     1.9434440
  H       -4.6536710    -0.1926670    -1.5394220
  H        5.1017157    -1.5012325    -0.9478444
  H        5.4219950    -0.3393960     0.3861000
  H        4.7833880    -1.9677830     0.6515600
  H       -4.8424050    -1.8242580     0.3291710
units angstrom
no_reorient  #important for SAPT in psi4, default
symmetry c1  #important for SAPT in psi4, default
}

set PROPERTIES_ORIGIN ["COM"]
properties('MP2/aug-cc-pvtz', properties = ['dipole'])
--------------------------------------------------------------------------

    Molecular point group: c1
  Charge       = 0
  Multiplicity = 1
  Basis Set: AUG-CC-PVTZ
    Blend: AUG-CC-PVTZ
  Basis Set: (AUG-CC-PVTZ AUX)
    Blend: AUG-CC-PVTZ-JKFIT

    Orbital Energies [Eh]
    ---------------------

    Doubly Occupied:

       1A    -15.572989     2A    -15.549273     3A    -11.308849
       4A    -11.275466     5A    -11.266043     6A    -11.250525
       7A    -11.245290     8A    -11.242116     9A    -11.241892
      10A    -11.238181    11A    -11.237799    12A    -11.236927
      13A    -11.231226    14A    -11.229076    15A    -11.225207
      16A     -1.290365    17A     -1.217625    18A     -1.142359
      19A     -1.089960    20A     -1.038033    21A     -1.018762
      22A     -1.008880    23A     -0.949570    24A     -0.907977
      25A     -0.847195    26A     -0.839582    27A     -0.829527
      28A     -0.785969    29A     -0.724754    30A     -0.685650
      31A     -0.674834    32A     -0.648379    33A     -0.639344
      34A     -0.622954    35A     -0.610013    36A     -0.593881
      37A     -0.588157    38A     -0.583516    39A     -0.568216
      40A     -0.562304    41A     -0.551250    42A     -0.534423
      43A     -0.521292    44A     -0.514544    45A     -0.507978
      46A     -0.500018    47A     -0.498960    48A     -0.417790
      49A     -0.410943    50A     -0.373712    51A     -0.342863
      52A     -0.339012    53A     -0.286475

  @DF-RHF Final Energy:  -609.53249880549197

   => Energetics <=

    Nuclear Repulsion Energy =            919.5204816556990863
    One-Electron Energy =               -2650.8701156373517733
    Two-Electron Energy =                1121.8171351761607184
    Total Energy =                       -609.5324988054919686
  Basis Set: (AUG-CC-PVTZ AUX)
    Blend: AUG-CC-PVTZ-RI
    Molecular point group: c1

    Geometry (in Angstrom), charge = 0, multiplicity = 1:

       Center              X                  Y                   Z               Mass
    ------------   -----------------  -----------------  -----------------  -----------------
         N           -0.450512035164     1.139589973035    -0.217801212782    14.003074004430
         N            1.808433964836     1.279008973035     0.352302787218    14.003074004430
         C           -1.604853035164     0.313281973035    -0.066602212782    12.000000000000
         C            0.804243964836     0.533236973035    -0.136108212782    12.000000000000
         C           -0.576005035164     2.489692973035     0.333268787218    12.000000000000
         C            1.006286964836    -0.775028026965    -0.627775212782    12.000000000000
         C            3.350070964836    -0.550385026965    -0.067930212782    12.000000000000
         C           -1.715066035164    -0.599632026965     0.992295787218    12.000000000000
         C           -2.660235035164     0.453651973035    -0.975199212782    12.000000000000
         C            2.283273964836    -1.308136026965    -0.579215212782    12.000000000000
         C            3.041268964836     0.735123973035     0.370052787218    12.000000000000
         C           -2.867786035164    -1.374006026965     1.125913787218    12.000000000000
         C           -3.818574035164    -0.310275026965    -0.825476212782    12.000000000000
         C           -3.924212035164    -1.227923026965     0.222514787218    12.000000000000
         C            4.749281964836    -1.096578026965     0.000834787218    12.000000000000
         H            0.179338964836    -1.341307026965    -1.045108212782     1.007825032230
         H           -0.441324035164     2.507332973035     1.422887787218     1.007825032230
         H           -1.574198035164     2.855304973035     0.085660787218     1.007825032230
         H            0.178323964836     3.136028973035    -0.115005212782     1.007825032230
         H           -0.894834035164    -0.698712026965     1.700013787218     1.007825032230
         H           -2.552717035164     1.155413973035    -1.799135212782     1.007825032230
         H            2.461276964836    -2.315389026965    -0.954508212782     1.007825032230
         H            3.825553964836     1.379377973035     0.769695787218     1.007825032230
         H           -2.948313035164    -2.082415026965     1.947283787218     1.007825032230
         H           -4.634462035164    -0.197587026965    -1.535582212782     1.007825032230
         H            5.120924664836    -1.506152526965    -0.944004612782     1.007825032230
         H            5.441203964836    -0.344316026965     0.389939787218     1.007825032230
         H            4.802596964836    -1.972703026965     0.655399787218     1.007825032230
         H           -4.823196035164    -1.829178026965     0.333010787218     1.007825032230

  Basis Set: AUG-CC-PVTZ
    Blend: AUG-CC-PVTZ
  Basis Set: (AUG-CC-PVTZ AUX)
    Blend: AUG-CC-PVTZ-JKFIT
	 Reference Energy          =    -609.5324988054919686 [Eh]
	 Singles Energy            =      -0.0000000000000000 [Eh]
	 Same-Spin Energy          =      -0.6811712250350719 [Eh]
	 Opposite-Spin Energy      =      -2.1307429809819918 [Eh]
	 Correlation Energy        =      -2.8119142060170637 [Eh]
	 Total Energy              =    -612.3444130115090047 [Eh]

	 ================> DF-SCS-MP2 Energies <==================
	-----------------------------------------------------------
	 SCS Same-Spin Scale       =       0.3333333333333333 [-]
	 SCS Opposite-Spin Scale   =       1.2000000000000000 [-]
	 SCS Same-Spin Energy      =      -0.2270570750116906 [Eh]
	 SCS Opposite-Spin Energy  =      -2.5568915771783902 [Eh]
	 SCS Correlation Energy    =      -2.7839486521900807 [Eh]
	 SCS Total Energy          =    -612.3164474576821021 [Eh]
	-----------------------------------------------------------

  Dipole Moment: [D]
     X:    -0.5071      Y:    -1.4995      Z:    -0.1587     Total:     1.5909

*** Psi4 exiting successfully. Buy a developer a beer!
