                               Psi4 1.4a3.dev225

  ==> Input File <==

--------------------------------------------------------------------------
#psi4
#
memory 32 gb

molecule  {
0 1
  N       -0.4697210     1.1445100    -0.2216410
  N        1.7892250     1.2839290     0.3484630
  C       -1.6240620     0.3182020    -0.0704420
  C        0.7850350     0.5381570    -0.1399480
  C       -0.5952140     2.4946130     0.3294290
  C        0.9870780    -0.7701080    -0.6316150
  C        3.3308620    -0.5454650    -0.0717700
  C       -1.7342750    -0.5947120     0.9884560
  C       -2.6794440     0.4585720    -0.9790390
  C        2.2640650    -1.3032160    -0.5830550
  C        3.0220600     0.7400440     0.3662130
  C       -2.8869950    -1.3690860     1.1220740
  C       -3.8377830    -0.3053550    -0.8293160
  C       -3.9449334    -1.2361407     0.2336788
  C        4.7300730    -1.0916580    -0.0030050
  H        0.1601300    -1.3363870    -1.0489480
  H       -0.4605330     2.5122530     1.4190480
  H       -1.5934070     2.8602250     0.0818210
  H        0.1591150     3.1409490    -0.1188450
  H       -0.9140430    -0.6937920     1.6961740
  H       -2.5719260     1.1603340    -1.8029750
  H        2.4420680    -2.3104690    -0.9583480
  H        3.8063450     1.3842980     0.7658560
  H       -2.9675220    -2.0774950     1.9434440
  H       -4.6536710    -0.1926670    -1.5394220
  H        5.0860610    -1.3967900    -0.9923270
  H        5.4219950    -0.3393960     0.3861000
  H        4.7833880    -1.9677830     0.6515600
  H       -4.8424050    -1.8242580     0.3291710
units angstrom
no_reorient  #important for SAPT in psi4, default
symmetry c1  #important for SAPT in psi4, default
}

set PROPERTIES_ORIGIN ["COM"]
properties('MP2/aug-cc-pvtz', properties = ['dipole'])
--------------------------------------------------------------------------

    Molecular point group: c1
  Charge       = 0
  Multiplicity = 1
  Basis Set: AUG-CC-PVTZ
    Blend: AUG-CC-PVTZ
  Basis Set: (AUG-CC-PVTZ AUX)
    Blend: AUG-CC-PVTZ-JKFIT

    Orbital Energies [Eh]
    ---------------------

    Doubly Occupied:

       1A    -15.572927     2A    -15.549029     3A    -11.308648
       4A    -11.275646     5A    -11.265570     6A    -11.250252
       7A    -11.245290     8A    -11.244017     9A    -11.241115
      10A    -11.238345    11A    -11.237594    12A    -11.236950
      13A    -11.230391    14A    -11.228916    15A    -11.225178
      16A     -1.290234    17A     -1.217425    18A     -1.141316
      19A     -1.089912    20A     -1.038117    21A     -1.018143
      22A     -1.008638    23A     -0.949400    24A     -0.907638
      25A     -0.847014    26A     -0.840208    27A     -0.828013
      28A     -0.785787    29A     -0.724412    30A     -0.686469
      31A     -0.674525    32A     -0.648612    33A     -0.638185
      34A     -0.622606    35A     -0.609306    36A     -0.593065
      37A     -0.588371    38A     -0.583761    39A     -0.576698
      40A     -0.562149    41A     -0.543360    42A     -0.534786
      43A     -0.523384    44A     -0.515709    45A     -0.506933
      46A     -0.500286    47A     -0.497797    48A     -0.418027
      49A     -0.410355    50A     -0.373638    51A     -0.341198
      52A     -0.340208    53A     -0.286367

  @DF-RHF Final Energy:  -609.53314568373696

   => Energetics <=

    Nuclear Repulsion Energy =            919.4071658001956848
    One-Electron Energy =               -2650.6567902945380411
    Two-Electron Energy =                1121.7164788106051674
    Total Energy =                       -609.5331456837370752
  Basis Set: (AUG-CC-PVTZ AUX)
    Blend: AUG-CC-PVTZ-RI
    Molecular point group: c1

    Geometry (in Angstrom), charge = 0, multiplicity = 1:

       Center              X                  Y                   Z               Mass
    ------------   -----------------  -----------------  -----------------  -----------------
         N           -0.450340791801     1.139854427768    -0.218483717617    14.003074004430
         N            1.808605208199     1.279273427768     0.351620282383    14.003074004430
         C           -1.604681791801     0.313546427768    -0.067284717617    12.000000000000
         C            0.804415208199     0.533501427768    -0.136790717617    12.000000000000
         C           -0.575833791801     2.489957427768     0.332586282383    12.000000000000
         C            1.006458208199    -0.774763572232    -0.628457717617    12.000000000000
         C            3.350242208199    -0.550120572232    -0.068612717617    12.000000000000
         C           -1.714894791801    -0.599367572232     0.991613282383    12.000000000000
         C           -2.660063791801     0.453916427768    -0.975881717617    12.000000000000
         C            2.283445208199    -1.307871572232    -0.579897717617    12.000000000000
         C            3.041440208199     0.735388427768     0.369370282383    12.000000000000
         C           -2.867614791801    -1.373741572232     1.125231282383    12.000000000000
         C           -3.818402791801    -0.310010572232    -0.826158717617    12.000000000000
         C           -3.925553191801    -1.240796272232     0.236836082383    12.000000000000
         C            4.749453208199    -1.096313572232     0.000152282383    12.000000000000
         H            0.179510208199    -1.341042572232    -1.045790717617     1.007825032230
         H           -0.441152791801     2.507597427768     1.422205282383     1.007825032230
         H           -1.574026791801     2.855569427768     0.084978282383     1.007825032230
         H            0.178495208199     3.136293427768    -0.115687717617     1.007825032230
         H           -0.894662791801    -0.698447572232     1.699331282383     1.007825032230
         H           -2.552545791801     1.155678427768    -1.799817717617     1.007825032230
         H            2.461448208199    -2.315124572232    -0.955190717617     1.007825032230
         H            3.825725208199     1.379642427768     0.769013282383     1.007825032230
         H           -2.948141791801    -2.082150572232     1.946601282383     1.007825032230
         H           -4.634290791801    -0.197322572232    -1.536264717617     1.007825032230
         H            5.105441208199    -1.401445572232    -0.989169717617     1.007825032230
         H            5.441375208199    -0.344051572232     0.389257282383     1.007825032230
         H            4.802768208199    -1.972438572232     0.654717282383     1.007825032230
         H           -4.823024791801    -1.828913572232     0.332328282383     1.007825032230

  Basis Set: AUG-CC-PVTZ
    Blend: AUG-CC-PVTZ
  Basis Set: (AUG-CC-PVTZ AUX)
    Blend: AUG-CC-PVTZ-JKFIT
	 Reference Energy          =    -609.5331456837369615 [Eh]
	 Singles Energy            =      -0.0000000000000000 [Eh]
	 Same-Spin Energy          =      -0.6811215454073223 [Eh]
	 Opposite-Spin Energy      =      -2.1308172883705891 [Eh]
	 Correlation Energy        =      -2.8119388337779112 [Eh]
	 Total Energy              =    -612.3450845175149198 [Eh]

	 ================> DF-SCS-MP2 Energies <==================
	-----------------------------------------------------------
	 SCS Same-Spin Scale       =       0.3333333333333333 [-]
	 SCS Opposite-Spin Scale   =       1.2000000000000000 [-]
	 SCS Same-Spin Energy      =      -0.2270405151357741 [Eh]
	 SCS Opposite-Spin Energy  =      -2.5569807460447067 [Eh]
	 SCS Correlation Energy    =      -2.7840212611804809 [Eh]
	 SCS Total Energy          =    -612.3171669449174033 [Eh]
	-----------------------------------------------------------

  Dipole Moment: [D]
     X:    -0.4963      Y:    -1.4624      Z:    -0.1702     Total:     1.5536

*** Psi4 exiting successfully. Buy a developer a beer!
