                               Psi4 1.4a3.dev225

  ==> Input File <==

--------------------------------------------------------------------------
#psi4
#
memory 32 gb

molecule  {
0 1
  N       -0.4697210     1.1445100    -0.2216410
  N        1.7892250     1.2839290     0.3484630
  C       -1.6240620     0.3182020    -0.0704420
  C        0.7850350     0.5381570    -0.1399480
  C       -0.5952140     2.4946130     0.3294290
  C        0.9870780    -0.7701080    -0.6316150
  C        3.3308620    -0.5454650    -0.0717700
  C       -1.7342750    -0.5947120     0.9884560
  C       -2.6794440     0.4585720    -0.9790390
  C        2.2640650    -1.3032160    -0.5830550
  C        3.0220600     0.7400440     0.3662130
  C       -2.8869950    -1.3690860     1.1220740
  C       -3.8377830    -0.3053550    -0.8293160
  C       -3.9434210    -1.2230030     0.2186750
  C        4.7300730    -1.0916580    -0.0030050
  H        0.1448961    -1.3468189    -1.0566360
  H       -0.4605330     2.5122530     1.4190480
  H       -1.5934070     2.8602250     0.0818210
  H        0.1591150     3.1409490    -0.1188450
  H       -0.9140430    -0.6937920     1.6961740
  H       -2.5719260     1.1603340    -1.8029750
  H        2.4420680    -2.3104690    -0.9583480
  H        3.8063450     1.3842980     0.7658560
  H       -2.9675220    -2.0774950     1.9434440
  H       -4.6536710    -0.1926670    -1.5394220
  H        5.0860610    -1.3967900    -0.9923270
  H        5.4219950    -0.3393960     0.3861000
  H        4.7833880    -1.9677830     0.6515600
  H       -4.8424050    -1.8242580     0.3291710
units angstrom
no_reorient  #important for SAPT in psi4, default
symmetry c1  #important for SAPT in psi4, default
}

set PROPERTIES_ORIGIN ["COM"]
properties('MP2/aug-cc-pvtz', properties = ['dipole'])
--------------------------------------------------------------------------

    Molecular point group: c1
  Charge       = 0
  Multiplicity = 1
  Basis Set: AUG-CC-PVTZ
    Blend: AUG-CC-PVTZ
  Basis Set: (AUG-CC-PVTZ AUX)
    Blend: AUG-CC-PVTZ-JKFIT

    Orbital Energies [Eh]
    ---------------------

    Doubly Occupied:

       1A    -15.572831     2A    -15.549168     3A    -11.308799
       4A    -11.275333     5A    -11.265648     6A    -11.250416
       7A    -11.245194     8A    -11.242006     9A    -11.241787
      10A    -11.238066    11A    -11.237658    12A    -11.236798
      13A    -11.231129    14A    -11.230512    15A    -11.225253
      16A     -1.290213    17A     -1.217489    18A     -1.142245
      19A     -1.089883    20A     -1.037528    21A     -1.018637
      22A     -1.008766    23A     -0.949445    24A     -0.907533
      25A     -0.846093    26A     -0.839091    27A     -0.829196
      28A     -0.785430    29A     -0.724425    30A     -0.685361
      31A     -0.674413    32A     -0.648241    33A     -0.637312
      34A     -0.620078    35A     -0.609487    36A     -0.593800
      37A     -0.588095    38A     -0.583819    39A     -0.576729
      40A     -0.561588    41A     -0.543233    42A     -0.534254
      43A     -0.523449    44A     -0.514264    45A     -0.507766
      46A     -0.500002    47A     -0.498484    48A     -0.418097
      49A     -0.410300    50A     -0.373739    51A     -0.342772
      52A     -0.338937    53A     -0.286560

  @DF-RHF Final Energy:  -609.53301518865896

   => Energetics <=

    Nuclear Repulsion Energy =            919.5134879165486836
    One-Electron Energy =               -2650.8782952517044578
    Two-Electron Energy =                1121.8317921464968094
    Total Energy =                       -609.5330151886589647
  Basis Set: (AUG-CC-PVTZ AUX)
    Blend: AUG-CC-PVTZ-RI
    Molecular point group: c1

    Geometry (in Angstrom), charge = 0, multiplicity = 1:

       Center              X                  Y                   Z               Mass
    ------------   -----------------  -----------------  -----------------  -----------------
         N           -0.450354903223     1.139111736143    -0.217535818181    14.003074004430
         N            1.808591096777     1.278530736143     0.352568181819    14.003074004430
         C           -1.604695903223     0.312803736143    -0.066336818181    12.000000000000
         C            0.804401096777     0.532758736143    -0.135842818181    12.000000000000
         C           -0.575847903223     2.489214736143     0.333534181819    12.000000000000
         C            1.006444096777    -0.775506263857    -0.627509818181    12.000000000000
         C            3.350228096777    -0.550863263857    -0.067664818181    12.000000000000
         C           -1.714908903223    -0.600110263857     0.992561181819    12.000000000000
         C           -2.660077903223     0.453173736143    -0.974933818181    12.000000000000
         C            2.283431096777    -1.308614263858    -0.578949818181    12.000000000000
         C            3.041426096777     0.734645736143     0.370318181819    12.000000000000
         C           -2.867628903223    -1.374484263858     1.126179181819    12.000000000000
         C           -3.818416903223    -0.310753263857    -0.825210818181    12.000000000000
         C           -3.924054903223    -1.228401263857     0.222780181819    12.000000000000
         C            4.749439096777    -1.097056263858     0.001100181819    12.000000000000
         H            0.164262196777    -1.352217163857    -1.052530818181     1.007825032230
         H           -0.441166903223     2.506854736142     1.423153181819     1.007825032230
         H           -1.574040903223     2.854826736142     0.085926181819     1.007825032230
         H            0.178481096777     3.135550736143    -0.114739818181     1.007825032230
         H           -0.894676903223    -0.699190263857     1.700279181819     1.007825032230
         H           -2.552559903223     1.154935736143    -1.798869818181     1.007825032230
         H            2.461434096777    -2.315867263857    -0.954242818181     1.007825032230
         H            3.825711096777     1.378899736142     0.769961181819     1.007825032230
         H           -2.948155903223    -2.082893263857     1.947549181819     1.007825032230
         H           -4.634304903223    -0.198065263857    -1.535316818181     1.007825032230
         H            5.105427096777    -1.402188263857    -0.988221818181     1.007825032230
         H            5.441361096777    -0.344794263857     0.390205181819     1.007825032230
         H            4.802754096777    -1.973181263857     0.655665181819     1.007825032230
         H           -4.823038903223    -1.829656263857     0.333276181819     1.007825032230

  Basis Set: AUG-CC-PVTZ
    Blend: AUG-CC-PVTZ
  Basis Set: (AUG-CC-PVTZ AUX)
    Blend: AUG-CC-PVTZ-JKFIT
	 Reference Energy          =    -609.5330151886589647 [Eh]
	 Singles Energy            =      -0.0000000000000000 [Eh]
	 Same-Spin Energy          =      -0.6812144281025091 [Eh]
	 Opposite-Spin Energy      =      -2.1309519433379478 [Eh]
	 Correlation Energy        =      -2.8121663714404570 [Eh]
	 Total Energy              =    -612.3451815600993768 [Eh]

	 ================> DF-SCS-MP2 Energies <==================
	-----------------------------------------------------------
	 SCS Same-Spin Scale       =       0.3333333333333333 [-]
	 SCS Opposite-Spin Scale   =       1.2000000000000000 [-]
	 SCS Same-Spin Energy      =      -0.2270714760341697 [Eh]
	 SCS Opposite-Spin Energy  =      -2.5571423320055371 [Eh]
	 SCS Correlation Energy    =      -2.7842138080397070 [Eh]
	 SCS Total Energy          =    -612.3172289966986455 [Eh]
	-----------------------------------------------------------

  Dipole Moment: [D]
     X:    -0.4886      Y:    -1.4613      Z:    -0.1650     Total:     1.5497

*** Psi4 exiting successfully. Buy a developer a beer!
