                               Psi4 1.4a3.dev225

  ==> Input File <==

--------------------------------------------------------------------------
#psi4
#
memory 32 gb

molecule  {
0 1
  N       -0.4697210     1.1445100    -0.2216410
  N        1.7892250     1.2839290     0.3484630
  C       -1.6240620     0.3182020    -0.0704420
  C        0.7850350     0.5381570    -0.1399480
  C       -0.5952140     2.4946130     0.3294290
  C        0.9870780    -0.7701080    -0.6316150
  C        3.3308620    -0.5454650    -0.0717700
  C       -1.7342750    -0.5947120     0.9884560
  C       -2.6794440     0.4585720    -0.9790390
  C        2.4485140    -1.3802185    -0.5760410
  C        3.0220600     0.7400440     0.3662130
  C       -2.8869950    -1.3690860     1.1220740
  C       -3.8377830    -0.3053550    -0.8293160
  C       -3.9434210    -1.2230030     0.2186750
  C        4.7300730    -1.0916580    -0.0030050
  H        0.1601300    -1.3363870    -1.0489480
  H       -0.4605330     2.5122530     1.4190480
  H       -1.5934070     2.8602250     0.0818210
  H        0.1591150     3.1409490    -0.1188450
  H       -0.9140430    -0.6937920     1.6961740
  H       -2.5719260     1.1603340    -1.8029750
  H        2.4420680    -2.3104690    -0.9583480
  H        3.8063450     1.3842980     0.7658560
  H       -2.9675220    -2.0774950     1.9434440
  H       -4.6536710    -0.1926670    -1.5394220
  H        5.0860610    -1.3967900    -0.9923270
  H        5.4219950    -0.3393960     0.3861000
  H        4.7833880    -1.9677830     0.6515600
  H       -4.8424050    -1.8242580     0.3291710
units angstrom
no_reorient  #important for SAPT in psi4, default
symmetry c1  #important for SAPT in psi4, default
}

set PROPERTIES_ORIGIN ["COM"]
properties('MP2/aug-cc-pvtz', properties = ['dipole'])
--------------------------------------------------------------------------

    Molecular point group: c1
  Charge       = 0
  Multiplicity = 1
  Basis Set: AUG-CC-PVTZ
    Blend: AUG-CC-PVTZ
  Basis Set: (AUG-CC-PVTZ AUX)
    Blend: AUG-CC-PVTZ-JKFIT

    Orbital Energies [Eh]
    ---------------------

    Doubly Occupied:

       1A    -15.567402     2A    -15.558446     3A    -11.303119
       4A    -11.277320     5A    -11.272399     6A    -11.253613
       7A    -11.243614     8A    -11.239385     9A    -11.239202
      10A    -11.238285    11A    -11.235461    12A    -11.234655
      13A    -11.234013    14A    -11.229744    15A    -11.223793
      16A     -1.288066    17A     -1.218210    18A     -1.140244
      19A     -1.102581    20A     -1.021302    21A     -1.014156
      22A     -1.004677    23A     -0.944737    24A     -0.908632
      25A     -0.862699    26A     -0.835679    27A     -0.826959
      28A     -0.787829    29A     -0.727300    30A     -0.685503
      31A     -0.674010    32A     -0.646387    33A     -0.635601
      34A     -0.628714    35A     -0.609052    36A     -0.594011
      37A     -0.591616    38A     -0.585218    39A     -0.580622
      40A     -0.565510    41A     -0.545494    42A     -0.538238
      43A     -0.520346    44A     -0.508682    45A     -0.499964
      46A     -0.497199    47A     -0.472999    48A     -0.421666
      49A     -0.416756    50A     -0.364471    51A     -0.341789
      52A     -0.335864    53A     -0.283743

  @DF-RHF Final Energy:  -609.48736143175461

   => Energetics <=

    Nuclear Repulsion Energy =            917.4350210099127025
    One-Electron Energy =               -2646.6908186551095241
    Two-Electron Energy =                1119.7684362134421008
    Total Energy =                       -609.4873614317546071
  Basis Set: (AUG-CC-PVTZ AUX)
    Blend: AUG-CC-PVTZ-RI
    Molecular point group: c1

    Geometry (in Angstrom), charge = 0, multiplicity = 1:

       Center              X                  Y                   Z               Mass
    ------------   -----------------  -----------------  -----------------  -----------------
         N           -0.461604597836     1.143722761302    -0.217999770102    14.003074004430
         N            1.797341402164     1.283141761302     0.352104229898    14.003074004430
         C           -1.615945597836     0.317414761302    -0.066800770102    12.000000000000
         C            0.793151402164     0.537369761302    -0.136306770102    12.000000000000
         C           -0.587097597836     2.493825761302     0.333070229898    12.000000000000
         C            0.995194402164    -0.770895238698    -0.627973770102    12.000000000000
         C            3.338978402164    -0.546252238698    -0.068128770102    12.000000000000
         C           -1.726158597836    -0.595499238698     0.992097229898    12.000000000000
         C           -2.671327597836     0.457784761302    -0.975397770102    12.000000000000
         C            2.456630402164    -1.381005738698    -0.572399770102    12.000000000000
         C            3.030176402164     0.739256761302     0.369854229898    12.000000000000
         C           -2.878878597836    -1.369873238698     1.125715229898    12.000000000000
         C           -3.829666597836    -0.306142238698    -0.825674770102    12.000000000000
         C           -3.935304597836    -1.223790238698     0.222316229898    12.000000000000
         C            4.738189402164    -1.092445238698     0.000636229898    12.000000000000
         H            0.168246402164    -1.337174238698    -1.045306770102     1.007825032230
         H           -0.452416597836     2.511465761302     1.422689229898     1.007825032230
         H           -1.585290597836     2.859437761302     0.085462229898     1.007825032230
         H            0.167231402164     3.140161761302    -0.115203770102     1.007825032230
         H           -0.905926597836    -0.694579238698     1.699815229898     1.007825032230
         H           -2.563809597836     1.159546761302    -1.799333770102     1.007825032230
         H            2.450184402164    -2.311256238698    -0.954706770102     1.007825032230
         H            3.814461402164     1.383510761302     0.769497229898     1.007825032230
         H           -2.959405597836    -2.078282238698     1.947085229898     1.007825032230
         H           -4.645554597836    -0.193454238698    -1.535780770102     1.007825032230
         H            5.094177402164    -1.397577238698    -0.988685770102     1.007825032230
         H            5.430111402164    -0.340183238698     0.389741229898     1.007825032230
         H            4.791504402164    -1.968570238698     0.655201229898     1.007825032230
         H           -4.834288597836    -1.825045238698     0.332812229898     1.007825032230

  Basis Set: AUG-CC-PVTZ
    Blend: AUG-CC-PVTZ
  Basis Set: (AUG-CC-PVTZ AUX)
    Blend: AUG-CC-PVTZ-JKFIT
	 Reference Energy          =    -609.4873614317546071 [Eh]
	 Singles Energy            =      -0.0000000000000000 [Eh]
	 Same-Spin Energy          =      -0.6825790091555057 [Eh]
	 Opposite-Spin Energy      =      -2.1346171399660379 [Eh]
	 Correlation Energy        =      -2.8171961491215436 [Eh]
	 Total Energy              =    -612.3045575808761214 [Eh]

	 ================> DF-SCS-MP2 Energies <==================
	-----------------------------------------------------------
	 SCS Same-Spin Scale       =       0.3333333333333333 [-]
	 SCS Opposite-Spin Scale   =       1.2000000000000000 [-]
	 SCS Same-Spin Energy      =      -0.2275263363851686 [Eh]
	 SCS Opposite-Spin Energy  =      -2.5615405679592453 [Eh]
	 SCS Correlation Energy    =      -2.7890669043444141 [Eh]
	 SCS Total Energy          =    -612.2764283360990021 [Eh]
	-----------------------------------------------------------

  Dipole Moment: [D]
     X:    -0.2867      Y:    -1.4550      Z:    -0.1524     Total:     1.4908

*** Psi4 exiting successfully. Buy a developer a beer!
