                               Psi4 1.4a3.dev225

  ==> Input File <==

--------------------------------------------------------------------------
#psi4
#
memory 32 gb

molecule  {
0 1
  N       -0.4697210     1.1445100    -0.2216410
  N        1.7892250     1.2839290     0.3484630
  C       -1.6240620     0.3182020    -0.0704420
  C        0.7850350     0.5381570    -0.1399480
  C       -0.5952140     2.4946130     0.3294290
  C        0.9870780    -0.7701080    -0.6316150
  C        3.3308620    -0.5454650    -0.0717700
  C       -1.7342750    -0.5947120     0.9884560
  C       -2.6794440     0.4585720    -0.9790390
  C        2.2640650    -1.3032160    -0.5830550
  C        3.0687917     0.7463188     0.3780465
  C       -2.8869950    -1.3690860     1.1220740
  C       -3.8377830    -0.3053550    -0.8293160
  C       -3.9434210    -1.2230030     0.2186750
  C        4.7300730    -1.0916580    -0.0030050
  H        0.1601300    -1.3363870    -1.0489480
  H       -0.4605330     2.5122530     1.4190480
  H       -1.5934070     2.8602250     0.0818210
  H        0.1591150     3.1409490    -0.1188450
  H       -0.9140430    -0.6937920     1.6961740
  H       -2.5719260     1.1603340    -1.8029750
  H        2.4420680    -2.3104690    -0.9583480
  H        3.8063450     1.3842980     0.7658560
  H       -2.9675220    -2.0774950     1.9434440
  H       -4.6536710    -0.1926670    -1.5394220
  H        5.0860610    -1.3967900    -0.9923270
  H        5.4219950    -0.3393960     0.3861000
  H        4.7833880    -1.9677830     0.6515600
  H       -4.8424050    -1.8242580     0.3291710
units angstrom
no_reorient  #important for SAPT in psi4, default
symmetry c1  #important for SAPT in psi4, default
}

set PROPERTIES_ORIGIN ["COM"]
properties('MP2/aug-cc-pvtz', properties = ['dipole'])
--------------------------------------------------------------------------

    Molecular point group: c1
  Charge       = 0
  Multiplicity = 1
  Basis Set: AUG-CC-PVTZ
    Blend: AUG-CC-PVTZ
  Basis Set: (AUG-CC-PVTZ AUX)
    Blend: AUG-CC-PVTZ-JKFIT

    Orbital Energies [Eh]
    ---------------------

    Doubly Occupied:

       1A    -15.572244     2A    -15.549487     3A    -11.307878
       4A    -11.275186     5A    -11.265475     6A    -11.250997
       7A    -11.244404     8A    -11.241961     9A    -11.241735
      10A    -11.237997    11A    -11.237567    12A    -11.236694
      13A    -11.232362    14A    -11.230887    15A    -11.224543
      16A     -1.286500    17A     -1.208970    18A     -1.141733
      19A     -1.087718    20A     -1.038758    21A     -1.018620
      22A     -1.008303    23A     -0.948406    24A     -0.908211
      25A     -0.850294    26A     -0.837940    27A     -0.827902
      28A     -0.783657    29A     -0.725997    30A     -0.685583
      31A     -0.671663    32A     -0.647778    33A     -0.638156
      34A     -0.627593    35A     -0.610939    36A     -0.593817
      37A     -0.590083    38A     -0.583817    39A     -0.576411
      40A     -0.562070    41A     -0.541664    42A     -0.533599
      43A     -0.519668    44A     -0.514967    45A     -0.508515
      46A     -0.499918    47A     -0.498163    48A     -0.417351
      49A     -0.407861    50A     -0.369303    51A     -0.342896
      52A     -0.338854    53A     -0.288083

  @DF-RHF Final Energy:  -609.52934641884690

   => Energetics <=

    Nuclear Repulsion Energy =            918.6423339013697387
    One-Electron Energy =               -2649.1610082662696186
    Two-Electron Energy =                1120.9893279460529811
    Total Energy =                       -609.5293464188468988
  Basis Set: (AUG-CC-PVTZ AUX)
    Blend: AUG-CC-PVTZ-RI
    Molecular point group: c1

    Geometry (in Angstrom), charge = 0, multiplicity = 1:

       Center              X                  Y                   Z               Mass
    ------------   -----------------  -----------------  -----------------  -----------------
         N           -0.453262969117     1.138678599694    -0.218291690432    14.003074004430
         N            1.805683030883     1.278097599694     0.351812309568    14.003074004430
         C           -1.607603969117     0.312370599694    -0.067092690432    12.000000000000
         C            0.801493030883     0.532325599694    -0.136598690432    12.000000000000
         C           -0.578755969117     2.488781599694     0.332778309568    12.000000000000
         C            1.003536030883    -0.775939400306    -0.628265690432    12.000000000000
         C            3.347320030883    -0.551296400306    -0.068420690432    12.000000000000
         C           -1.717816969117    -0.600543400306     0.991805309568    12.000000000000
         C           -2.662985969117     0.452740599694    -0.975689690432    12.000000000000
         C            2.280523030883    -1.309047400306    -0.579705690432    12.000000000000
         C            3.085249730883     0.740487399694     0.381395809568    12.000000000000
         C           -2.870536969117    -1.374917400306     1.125423309568    12.000000000000
         C           -3.821324969117    -0.311186400306    -0.825966690432    12.000000000000
         C           -3.926962969117    -1.228834400306     0.222024309568    12.000000000000
         C            4.746531030883    -1.097489400306     0.000344309568    12.000000000000
         H            0.176588030883    -1.342218400306    -1.045598690432     1.007825032230
         H           -0.444074969117     2.506421599694     1.422397309568     1.007825032230
         H           -1.576948969117     2.854393599694     0.085170309568     1.007825032230
         H            0.175573030883     3.135117599694    -0.115495690432     1.007825032230
         H           -0.897584969117    -0.699623400306     1.699523309568     1.007825032230
         H           -2.555467969117     1.154502599694    -1.799625690432     1.007825032230
         H            2.458526030883    -2.316300400306    -0.954998690432     1.007825032230
         H            3.822803030883     1.378466599694     0.769205309568     1.007825032230
         H           -2.951063969117    -2.083326400306     1.946793309568     1.007825032230
         H           -4.637212969117    -0.198498400306    -1.536072690432     1.007825032230
         H            5.102519030883    -1.402621400306    -0.988977690432     1.007825032230
         H            5.438453030883    -0.345227400306     0.389449309568     1.007825032230
         H            4.799846030883    -1.973614400306     0.654909309568     1.007825032230
         H           -4.825946969117    -1.830089400306     0.332520309568     1.007825032230

  Basis Set: AUG-CC-PVTZ
    Blend: AUG-CC-PVTZ
  Basis Set: (AUG-CC-PVTZ AUX)
    Blend: AUG-CC-PVTZ-JKFIT
	 Reference Energy          =    -609.5293464188468988 [Eh]
	 Singles Energy            =      -0.0000000000000000 [Eh]
	 Same-Spin Energy          =      -0.6812757831975526 [Eh]
	 Opposite-Spin Energy      =      -2.1317324420951040 [Eh]
	 Correlation Energy        =      -2.8130082252926565 [Eh]
	 Total Energy              =    -612.3423546441395047 [Eh]

	 ================> DF-SCS-MP2 Energies <==================
	-----------------------------------------------------------
	 SCS Same-Spin Scale       =       0.3333333333333333 [-]
	 SCS Opposite-Spin Scale   =       1.2000000000000000 [-]
	 SCS Same-Spin Energy      =      -0.2270919277325175 [Eh]
	 SCS Opposite-Spin Energy  =      -2.5580789305141249 [Eh]
	 SCS Correlation Energy    =      -2.7851708582466426 [Eh]
	 SCS Total Energy          =    -612.3145172770935005 [Eh]
	-----------------------------------------------------------

  Dipole Moment: [D]
     X:    -0.4333      Y:    -1.4761      Z:    -0.1625     Total:     1.5469

*** Psi4 exiting successfully. Buy a developer a beer!
