                               Psi4 1.4a3.dev225

  ==> Input File <==

--------------------------------------------------------------------------
#psi4
#
memory 32 gb

molecule  {
0 1
  N       -0.4697210     1.1445100    -0.2216410
  N        1.7892250     1.2839290     0.3484630
  C       -1.6240620     0.3182020    -0.0704420
  C        0.7850350     0.5381570    -0.1399480
  C       -0.5952140     2.4946130     0.3294290
  C        1.0013857    -0.8627527    -0.6664324
  C        3.3308620    -0.5454650    -0.0717700
  C       -1.7342750    -0.5947120     0.9884560
  C       -2.6794440     0.4585720    -0.9790390
  C        2.2640650    -1.3032160    -0.5830550
  C        3.0220600     0.7400440     0.3662130
  C       -2.8869950    -1.3690860     1.1220740
  C       -3.8377830    -0.3053550    -0.8293160
  C       -3.9434210    -1.2230030     0.2186750
  C        4.7300730    -1.0916580    -0.0030050
  H        0.1601300    -1.3363870    -1.0489480
  H       -0.4605330     2.5122530     1.4190480
  H       -1.5934070     2.8602250     0.0818210
  H        0.1591150     3.1409490    -0.1188450
  H       -0.9140430    -0.6937920     1.6961740
  H       -2.5719260     1.1603340    -1.8029750
  H        2.4420680    -2.3104690    -0.9583480
  H        3.8063450     1.3842980     0.7658560
  H       -2.9675220    -2.0774950     1.9434440
  H       -4.6536710    -0.1926670    -1.5394220
  H        5.0860610    -1.3967900    -0.9923270
  H        5.4219950    -0.3393960     0.3861000
  H        4.7833880    -1.9677830     0.6515600
  H       -4.8424050    -1.8242580     0.3291710
units angstrom
no_reorient  #important for SAPT in psi4, default
symmetry c1  #important for SAPT in psi4, default
}

set PROPERTIES_ORIGIN ["COM"]
properties('MP2/aug-cc-pvtz', properties = ['dipole'])
--------------------------------------------------------------------------

    Molecular point group: c1
  Charge       = 0
  Multiplicity = 1
  Basis Set: AUG-CC-PVTZ
    Blend: AUG-CC-PVTZ
  Basis Set: (AUG-CC-PVTZ AUX)
    Blend: AUG-CC-PVTZ-JKFIT

    Orbital Energies [Eh]
    ---------------------

    Doubly Occupied:

       1A    -15.578057     2A    -15.546449     3A    -11.319507
       4A    -11.277696     5A    -11.262889     6A    -11.247117
       7A    -11.243884     8A    -11.243679     9A    -11.243074
      10A    -11.240154    11A    -11.239913    12A    -11.239134
      13A    -11.231585    14A    -11.227097    15A    -11.223266
      16A     -1.289008    17A     -1.216508    18A     -1.144200
      19A     -1.092536    20A     -1.034115    21A     -1.020631
      22A     -1.010612    23A     -0.948730    24A     -0.907685
      25A     -0.844342    26A     -0.840335    27A     -0.829277
      28A     -0.784440    29A     -0.724215    30A     -0.686633
      31A     -0.672408    32A     -0.650839    33A     -0.648182
      34A     -0.630002    35A     -0.607922    36A     -0.594726
      37A     -0.585886    38A     -0.582414    39A     -0.575108
      40A     -0.561076    41A     -0.540565    42A     -0.529281
      43A     -0.520465    44A     -0.518221    45A     -0.511247
      46A     -0.502554    47A     -0.501331    48A     -0.419022
      49A     -0.404236    50A     -0.381159    51A     -0.344365
      52A     -0.339713    53A     -0.282494

  @DF-RHF Final Energy:  -609.52361437171771

   => Energetics <=

    Nuclear Repulsion Energy =            918.0974687494208410
    One-Electron Energy =               -2647.9622006517761292
    Two-Electron Energy =                1120.3411175306375753
    Total Energy =                       -609.5236143717177129
  Basis Set: (AUG-CC-PVTZ AUX)
    Blend: AUG-CC-PVTZ-RI
    Molecular point group: c1

    Geometry (in Angstrom), charge = 0, multiplicity = 1:

       Center              X                  Y                   Z               Mass
    ------------   -----------------  -----------------  -----------------  -----------------
         N           -0.451299025810     1.144670219789    -0.215466014302    14.003074004430
         N            1.807646974190     1.284089219789     0.354637985698    14.003074004430
         C           -1.605640025810     0.318362219789    -0.064267014302    12.000000000000
         C            0.803456974190     0.538317219789    -0.133773014302    12.000000000000
         C           -0.576792025810     2.494773219789     0.335603985698    12.000000000000
         C            1.019807674190    -0.862592480211    -0.660257414302    12.000000000000
         C            3.349283974190    -0.545304780211    -0.065595014302    12.000000000000
         C           -1.715853025810    -0.594551780211     0.994630985698    12.000000000000
         C           -2.661022025810     0.458732219789    -0.972864014302    12.000000000000
         C            2.282486974190    -1.303055780211    -0.576880014302    12.000000000000
         C            3.040481974190     0.740204219789     0.372387985698    12.000000000000
         C           -2.868573025810    -1.368925780211     1.128248985698    12.000000000000
         C           -3.819361025810    -0.305194780211    -0.823141014302    12.000000000000
         C           -3.924999025810    -1.222842780211     0.224849985698    12.000000000000
         C            4.748494974190    -1.091497780211     0.003169985698    12.000000000000
         H            0.178551974190    -1.336226780211    -1.042773014302     1.007825032230
         H           -0.442111025810     2.512413219789     1.425222985698     1.007825032230
         H           -1.574985025810     2.860385219789     0.087995985698     1.007825032230
         H            0.177536974190     3.141109219789    -0.112670014302     1.007825032230
         H           -0.895621025810    -0.693631780211     1.702348985698     1.007825032230
         H           -2.553504025810     1.160494219789    -1.796800014302     1.007825032230
         H            2.460489974190    -2.310308780211    -0.952173014302     1.007825032230
         H            3.824766974190     1.384458219789     0.772030985698     1.007825032230
         H           -2.949100025810    -2.077334780211     1.949618985698     1.007825032230
         H           -4.635249025810    -0.192506780211    -1.533247014302     1.007825032230
         H            5.104482974190    -1.396629780211    -0.986152014302     1.007825032230
         H            5.440416974190    -0.339235780211     0.392274985698     1.007825032230
         H            4.801809974190    -1.967622780211     0.657734985698     1.007825032230
         H           -4.823983025810    -1.824097780211     0.335345985698     1.007825032230

  Basis Set: AUG-CC-PVTZ
    Blend: AUG-CC-PVTZ
  Basis Set: (AUG-CC-PVTZ AUX)
    Blend: AUG-CC-PVTZ-JKFIT
	 Reference Energy          =    -609.5236143717177129 [Eh]
	 Singles Energy            =      -0.0000000000000000 [Eh]
	 Same-Spin Energy          =      -0.6802248141806205 [Eh]
	 Opposite-Spin Energy      =      -2.1307208669387503 [Eh]
	 Correlation Energy        =      -2.8109456811193709 [Eh]
	 Total Energy              =    -612.3345600528371051 [Eh]

	 ================> DF-SCS-MP2 Energies <==================
	-----------------------------------------------------------
	 SCS Same-Spin Scale       =       0.3333333333333333 [-]
	 SCS Opposite-Spin Scale   =       1.2000000000000000 [-]
	 SCS Same-Spin Energy      =      -0.2267416047268735 [Eh]
	 SCS Opposite-Spin Energy  =      -2.5568650403265001 [Eh]
	 SCS Correlation Energy    =      -2.7836066450533736 [Eh]
	 SCS Total Energy          =    -612.3072210167711091 [Eh]
	-----------------------------------------------------------

  Dipole Moment: [D]
     X:    -0.7703      Y:    -1.3860      Z:    -0.1607     Total:     1.5938

*** Psi4 exiting successfully. Buy a developer a beer!
