                               Psi4 1.4a3.dev225

  ==> Input File <==

--------------------------------------------------------------------------
#psi4
#
memory 32 gb

molecule  {
0 1
  N       -0.4697210     1.1445100    -0.2216410
  N        1.7892250     1.2839290     0.3484630
  C       -1.6240620     0.3182020    -0.0704420
  C        0.7850350     0.5381570    -0.1399480
  C       -0.5952140     2.4946130     0.3294290
  C        0.9870780    -0.7701080    -0.6316150
  C        3.3308620    -0.5454650    -0.0717700
  C       -1.7185576    -0.4645221     0.8374475
  C       -2.6794440     0.4585720    -0.9790390
  C        2.2640650    -1.3032160    -0.5830550
  C        3.0220600     0.7400440     0.3662130
  C       -2.8869950    -1.3690860     1.1220740
  C       -3.8377830    -0.3053550    -0.8293160
  C       -3.9434210    -1.2230030     0.2186750
  C        4.7300730    -1.0916580    -0.0030050
  H        0.1601300    -1.3363870    -1.0489480
  H       -0.4605330     2.5122530     1.4190480
  H       -1.5934070     2.8602250     0.0818210
  H        0.1591150     3.1409490    -0.1188450
  H       -0.9140430    -0.6937920     1.6961740
  H       -2.5719260     1.1603340    -1.8029750
  H        2.4420680    -2.3104690    -0.9583480
  H        3.8063450     1.3842980     0.7658560
  H       -2.9675220    -2.0774950     1.9434440
  H       -4.6536710    -0.1926670    -1.5394220
  H        5.0860610    -1.3967900    -0.9923270
  H        5.4219950    -0.3393960     0.3861000
  H        4.7833880    -1.9677830     0.6515600
  H       -4.8424050    -1.8242580     0.3291710
units angstrom
no_reorient  #important for SAPT in psi4, default
symmetry c1  #important for SAPT in psi4, default
}

set PROPERTIES_ORIGIN ["COM"]
properties('MP2/aug-cc-pvtz', properties = ['dipole'])
--------------------------------------------------------------------------

    Molecular point group: c1
  Charge       = 0
  Multiplicity = 1
  Basis Set: AUG-CC-PVTZ
    Blend: AUG-CC-PVTZ
  Basis Set: (AUG-CC-PVTZ AUX)
    Blend: AUG-CC-PVTZ-JKFIT

    Orbital Energies [Eh]
    ---------------------

    Doubly Occupied:

       1A    -15.569419     2A    -15.547340     3A    -11.307331
       4A    -11.264252     5A    -11.252329     6A    -11.249119
       7A    -11.248490     8A    -11.244432     9A    -11.241760
      10A    -11.240157    11A    -11.239548    12A    -11.231677
      13A    -11.228854    14A    -11.227826    15A    -11.224192
      16A     -1.292209    17A     -1.222776    18A     -1.150284
      19A     -1.088792    20A     -1.042690    21A     -1.031907
      22A     -1.003253    23A     -0.948299    24A     -0.906160
      25A     -0.850235    26A     -0.845788    27A     -0.827177
      28A     -0.782613    29A     -0.726089    30A     -0.683376
      31A     -0.672761    32A     -0.650439    33A     -0.635018
      34A     -0.623358    35A     -0.618134    36A     -0.594927
      37A     -0.588340    38A     -0.576502    39A     -0.569150
      40A     -0.560253    41A     -0.542218    42A     -0.533059
      43A     -0.522728    44A     -0.521903    45A     -0.511863
      46A     -0.507682    47A     -0.465263    48A     -0.418020
      49A     -0.409156    50A     -0.372516    51A     -0.368628
      52A     -0.326379    53A     -0.288867

  @DF-RHF Final Energy:  -609.47396846899278

   => Energetics <=

    Nuclear Repulsion Energy =            923.1260741307374929
    One-Electron Energy =               -2658.0090074971626564
    Two-Electron Energy =                1125.4089648974324973
    Total Energy =                       -609.4739684689927799
  Basis Set: (AUG-CC-PVTZ AUX)
    Blend: AUG-CC-PVTZ-RI
    Molecular point group: c1

    Geometry (in Angstrom), charge = 0, multiplicity = 1:

       Center              X                  Y                   Z               Mass
    ------------   -----------------  -----------------  -----------------  -----------------
         N           -0.451384412279     1.131172979435    -0.208428241875    14.003074004430
         N            1.807561587721     1.270591979435     0.361675758125    14.003074004430
         C           -1.605725412279     0.304864979435    -0.057229241875    12.000000000000
         C            0.803371587721     0.524819979435    -0.126735241875    12.000000000000
         C           -0.576877412279     2.481275979435     0.342641758125    12.000000000000
         C            1.005414587721    -0.783445020565    -0.618402241875    12.000000000000
         C            3.349198587721    -0.558802020565    -0.058557241875    12.000000000000
         C           -1.700221012279    -0.477859120565     0.850660258125    12.000000000000
         C           -2.661107412279     0.445234979435    -0.965826241875    12.000000000000
         C            2.282401587721    -1.316553020565    -0.569842241875    12.000000000000
         C            3.040396587721     0.726706979435     0.379425758125    12.000000000000
         C           -2.868658412279    -1.382423020565     1.135286758125    12.000000000000
         C           -3.819446412279    -0.318692020565    -0.816103241875    12.000000000000
         C           -3.925084412279    -1.236340020565     0.231887758125    12.000000000000
         C            4.748409587721    -1.104995020565     0.010207758125    12.000000000000
         H            0.178466587721    -1.349724020565    -1.035735241875     1.007825032230
         H           -0.442196412279     2.498915979435     1.432260758125     1.007825032230
         H           -1.575070412279     2.846887979435     0.095033758125     1.007825032230
         H            0.177451587721     3.127611979435    -0.105632241875     1.007825032230
         H           -0.895706412279    -0.707129020565     1.709386758125     1.007825032230
         H           -2.553589412279     1.146996979435    -1.789762241875     1.007825032230
         H            2.460404587721    -2.323806020565    -0.945135241875     1.007825032230
         H            3.824681587721     1.370960979435     0.779068758125     1.007825032230
         H           -2.949185412279    -2.090832020565     1.956656758125     1.007825032230
         H           -4.635334412279    -0.206004020565    -1.526209241875     1.007825032230
         H            5.104397587721    -1.410127020565    -0.979114241875     1.007825032230
         H            5.440331587721    -0.352733020565     0.399312758125     1.007825032230
         H            4.801724587721    -1.981120020565     0.664772758125     1.007825032230
         H           -4.824068412279    -1.837595020565     0.342383758125     1.007825032230

  Basis Set: AUG-CC-PVTZ
    Blend: AUG-CC-PVTZ
  Basis Set: (AUG-CC-PVTZ AUX)
    Blend: AUG-CC-PVTZ-JKFIT
	 Reference Energy          =    -609.4739684689927799 [Eh]
	 Singles Energy            =      -0.0000000000000000 [Eh]
	 Same-Spin Energy          =      -0.6804457599568846 [Eh]
	 Opposite-Spin Energy      =      -2.1320456095479661 [Eh]
	 Correlation Energy        =      -2.8124913695048508 [Eh]
	 Total Energy              =    -612.2864598384976489 [Eh]

	 ================> DF-SCS-MP2 Energies <==================
	-----------------------------------------------------------
	 SCS Same-Spin Scale       =       0.3333333333333333 [-]
	 SCS Opposite-Spin Scale   =       1.2000000000000000 [-]
	 SCS Same-Spin Energy      =      -0.2268152533189615 [Eh]
	 SCS Opposite-Spin Energy  =      -2.5584547314575592 [Eh]
	 SCS Correlation Energy    =      -2.7852699847765208 [Eh]
	 SCS Total Energy          =    -612.2592384537692851 [Eh]
	-----------------------------------------------------------

  Dipole Moment: [D]
     X:    -0.7295      Y:    -1.5673      Z:    -0.1270     Total:     1.7334

*** Psi4 exiting successfully. Buy a developer a beer!
