                               Psi4 1.4a3.dev225

  ==> Input File <==

--------------------------------------------------------------------------
#psi4
#
memory 32 gb

molecule  {
0 1
  N       -0.4697210     1.1445100    -0.2216410
  N        1.7892250     1.2839290     0.3484630
  C       -1.6240620     0.3182020    -0.0704420
  C        0.7850350     0.5381570    -0.1399480
  C       -0.5952140     2.4946130     0.3294290
  C        0.9870780    -0.7701080    -0.6316150
  C        3.3308620    -0.5454650    -0.0717700
  C       -1.7342750    -0.5947120     0.9884560
  C       -2.6794440     0.4585720    -0.9790390
  C        2.2179528    -1.2839654    -0.5848085
  C        3.0220600     0.7400440     0.3662130
  C       -2.8869950    -1.3690860     1.1220740
  C       -3.8377830    -0.3053550    -0.8293160
  C       -3.9434210    -1.2230030     0.2186750
  C        4.7300730    -1.0916580    -0.0030050
  H        0.1601300    -1.3363870    -1.0489480
  H       -0.4605330     2.5122530     1.4190480
  H       -1.5934070     2.8602250     0.0818210
  H        0.1591150     3.1409490    -0.1188450
  H       -0.9140430    -0.6937920     1.6961740
  H       -2.5719260     1.1603340    -1.8029750
  H        2.4420680    -2.3104690    -0.9583480
  H        3.8063450     1.3842980     0.7658560
  H       -2.9675220    -2.0774950     1.9434440
  H       -4.6536710    -0.1926670    -1.5394220
  H        5.0860610    -1.3967900    -0.9923270
  H        5.4219950    -0.3393960     0.3861000
  H        4.7833880    -1.9677830     0.6515600
  H       -4.8424050    -1.8242580     0.3291710
units angstrom
no_reorient  #important for SAPT in psi4, default
symmetry c1  #important for SAPT in psi4, default
}

set PROPERTIES_ORIGIN ["COM"]
properties('MP2/aug-cc-pvtz', properties = ['dipole'])
--------------------------------------------------------------------------

    Molecular point group: c1
  Charge       = 0
  Multiplicity = 1
  Basis Set: AUG-CC-PVTZ
    Blend: AUG-CC-PVTZ
  Basis Set: (AUG-CC-PVTZ AUX)
    Blend: AUG-CC-PVTZ-JKFIT

    Orbital Energies [Eh]
    ---------------------

    Doubly Occupied:

       1A    -15.574411     2A    -15.546844     3A    -11.310116
       4A    -11.276210     5A    -11.262579     6A    -11.248647
       7A    -11.245678     8A    -11.242781     9A    -11.242543
      10A    -11.238842    11A    -11.238560    12A    -11.237628
      13A    -11.230832    14A    -11.225523    15A    -11.224851
      16A     -1.291001    17A     -1.217507    18A     -1.142915
      19A     -1.090297    20A     -1.042597    21A     -1.019610
      22A     -1.009555    23A     -0.950564    24A     -0.907532
      25A     -0.841701    26A     -0.840278    27A     -0.829853
      28A     -0.786081    29A     -0.724651    30A     -0.686219
      31A     -0.676085    32A     -0.649060    33A     -0.640111
      34A     -0.622648    35A     -0.607953    36A     -0.593902
      37A     -0.588281    38A     -0.583125    39A     -0.575808
      40A     -0.560826    41A     -0.542665    42A     -0.533844
      43A     -0.524357    44A     -0.514008    45A     -0.508066
      46A     -0.500856    47A     -0.499507    48A     -0.417577
      49A     -0.407891    50A     -0.379582    51A     -0.343096
      52A     -0.339443    53A     -0.286391

  @DF-RHF Final Energy:  -609.53122726948936

   => Energetics <=

    Nuclear Repulsion Energy =            920.2395851261600228
    One-Electron Energy =               -2652.2986428808940218
    Two-Electron Energy =                1122.5278304852447491
    Total Energy =                       -609.5312272694893636
  Basis Set: (AUG-CC-PVTZ AUX)
    Blend: AUG-CC-PVTZ-RI
    Molecular point group: c1

    Geometry (in Angstrom), charge = 0, multiplicity = 1:

       Center              X                  Y                   Z               Mass
    ------------   -----------------  -----------------  -----------------  -----------------
         N           -0.447639352166     1.137892646833    -0.217468716779    14.003074004430
         N            1.811306647834     1.277311646833     0.352635283221    14.003074004430
         C           -1.601980352166     0.311584646833    -0.066269716779    12.000000000000
         C            0.807116647834     0.531539646833    -0.135775716779    12.000000000000
         C           -0.573132352166     2.487995646833     0.333601283221    12.000000000000
         C            1.009159647834    -0.776725353167    -0.627442716779    12.000000000000
         C            3.352943647834    -0.552082353167    -0.067597716779    12.000000000000
         C           -1.712193352166    -0.601329353167     0.992628283221    12.000000000000
         C           -2.657362352166     0.451954646833    -0.974866716779    12.000000000000
         C            2.240034447834    -1.290582753167    -0.580636216779    12.000000000000
         C            3.044141647834     0.733426646833     0.370385283221    12.000000000000
         C           -2.864913352166    -1.375703353167     1.126246283221    12.000000000000
         C           -3.815701352166    -0.311972353167    -0.825143716779    12.000000000000
         C           -3.921339352166    -1.229620353167     0.222847283221    12.000000000000
         C            4.752154647834    -1.098275353167     0.001167283221    12.000000000000
         H            0.182211647834    -1.343004353167    -1.044775716779     1.007825032230
         H           -0.438451352166     2.505635646833     1.423220283221     1.007825032230
         H           -1.571325352166     2.853607646833     0.085993283221     1.007825032230
         H            0.181196647834     3.134331646833    -0.114672716779     1.007825032230
         H           -0.891961352166    -0.700409353167     1.700346283221     1.007825032230
         H           -2.549844352166     1.153716646833    -1.798802716779     1.007825032230
         H            2.464149647834    -2.317086353167    -0.954175716779     1.007825032230
         H            3.828426647834     1.377680646833     0.770028283221     1.007825032230
         H           -2.945440352166    -2.084112353167     1.947616283221     1.007825032230
         H           -4.631589352166    -0.199284353167    -1.535249716779     1.007825032230
         H            5.108142647834    -1.403407353167    -0.988154716779     1.007825032230
         H            5.444076647834    -0.346013353167     0.390272283221     1.007825032230
         H            4.805469647834    -1.974400353167     0.655732283221     1.007825032230
         H           -4.820323352166    -1.830875353167     0.333343283221     1.007825032230

  Basis Set: AUG-CC-PVTZ
    Blend: AUG-CC-PVTZ
  Basis Set: (AUG-CC-PVTZ AUX)
    Blend: AUG-CC-PVTZ-JKFIT
	 Reference Energy          =    -609.5312272694893636 [Eh]
	 Singles Energy            =      -0.0000000000000000 [Eh]
	 Same-Spin Energy          =      -0.6807406256641620 [Eh]
	 Opposite-Spin Energy      =      -2.1304242096564718 [Eh]
	 Correlation Energy        =      -2.8111648353206338 [Eh]
	 Total Energy              =    -612.3423921048099601 [Eh]

	 ================> DF-SCS-MP2 Energies <==================
	-----------------------------------------------------------
	 SCS Same-Spin Scale       =       0.3333333333333333 [-]
	 SCS Opposite-Spin Scale   =       1.2000000000000000 [-]
	 SCS Same-Spin Energy      =      -0.2269135418880540 [Eh]
	 SCS Opposite-Spin Energy  =      -2.5565090515877662 [Eh]
	 SCS Correlation Energy    =      -2.7834225934758203 [Eh]
	 SCS Total Energy          =    -612.3146498629652115 [Eh]
	-----------------------------------------------------------

  Dipole Moment: [D]
     X:    -0.5556      Y:    -1.4595      Z:    -0.1693     Total:     1.5708

*** Psi4 exiting successfully. Buy a developer a beer!
