                               Psi4 1.4a3.dev225

  ==> Input File <==

--------------------------------------------------------------------------
#psi4
#
memory 32 gb

molecule  {
0 1
  N       -0.4697210     1.1445100    -0.2216410
  N        1.7892250     1.2839290     0.3484630
  C       -1.6240620     0.3182020    -0.0704420
  C        0.7850350     0.5381570    -0.1399480
  C       -0.5952140     2.4946130     0.3294290
  C        0.9870780    -0.7701080    -0.6316150
  C        3.3308620    -0.5454650    -0.0717700
  C       -1.7342750    -0.5947120     0.9884560
  C       -2.6794440     0.4585720    -0.9790390
  C        2.2640650    -1.3032160    -0.5830550
  C        3.0220600     0.7400440     0.3662130
  C       -2.8869950    -1.3690860     1.1220740
  C       -3.8377830    -0.3053550    -0.8293160
  C       -3.9434210    -1.2230030     0.2186750
  C        4.7300730    -1.0916580    -0.0030050
  H        0.1601300    -1.3363870    -1.0489480
  H       -0.4605330     2.5122530     1.4190480
  H       -1.5934070     2.8602250     0.0818210
  H        0.1591150     3.1409490    -0.1188450
  H       -0.9140430    -0.6937920     1.6961740
  H       -2.5521546     1.2893803    -1.9544878
  H        2.4420680    -2.3104690    -0.9583480
  H        3.8063450     1.3842980     0.7658560
  H       -2.9675220    -2.0774950     1.9434440
  H       -4.6536710    -0.1926670    -1.5394220
  H        5.0860610    -1.3967900    -0.9923270
  H        5.4219950    -0.3393960     0.3861000
  H        4.7833880    -1.9677830     0.6515600
  H       -4.8424050    -1.8242580     0.3291710
units angstrom
no_reorient  #important for SAPT in psi4, default
symmetry c1  #important for SAPT in psi4, default
}

set PROPERTIES_ORIGIN ["COM"]
properties('MP2/aug-cc-pvtz', properties = ['dipole'])
--------------------------------------------------------------------------

    Molecular point group: c1
  Charge       = 0
  Multiplicity = 1
  Basis Set: AUG-CC-PVTZ
    Blend: AUG-CC-PVTZ
  Basis Set: (AUG-CC-PVTZ AUX)
    Blend: AUG-CC-PVTZ-JKFIT

    Orbital Energies [Eh]
    ---------------------

    Doubly Occupied:

       1A    -15.572777     2A    -15.548959     3A    -11.308595
       4A    -11.277837     5A    -11.265566     6A    -11.258157
       7A    -11.250266     8A    -11.244750     9A    -11.243963
      10A    -11.243094    11A    -11.239793    12A    -11.239461
      13A    -11.230363    14A    -11.228903    15A    -11.225171
      16A     -1.290154    17A     -1.217408    18A     -1.143141
      19A     -1.089953    20A     -1.037768    21A     -1.017300
      22A     -1.007994    23A     -0.949251    24A     -0.907077
      25A     -0.846949    26A     -0.839634    27A     -0.822812
      28A     -0.785290    29A     -0.723600    30A     -0.678218
      31A     -0.673322    32A     -0.648606    33A     -0.634889
      34A     -0.621593    35A     -0.608908    36A     -0.592403
      37A     -0.585105    38A     -0.577729    39A     -0.572325
      40A     -0.561063    41A     -0.543221    42A     -0.533495
      43A     -0.523315    44A     -0.514160    45A     -0.506501
      46A     -0.499951    47A     -0.487704    48A     -0.418196
      49A     -0.410325    50A     -0.373660    51A     -0.344161
      52A     -0.340217    53A     -0.286715

  @DF-RHF Final Energy:  -609.51136783157290

   => Energetics <=

    Nuclear Repulsion Energy =            918.6554828284010910
    One-Electron Energy =               -2649.1501587702919096
    Two-Electron Energy =                1120.9833081103179211
    Total Energy =                       -609.5113678315728976
  Basis Set: (AUG-CC-PVTZ AUX)
    Blend: AUG-CC-PVTZ-RI
    Molecular point group: c1

    Geometry (in Angstrom), charge = 0, multiplicity = 1:

       Center              X                  Y                   Z               Mass
    ------------   -----------------  -----------------  -----------------  -----------------
         N           -0.450532977035     1.138402203165    -0.216804173820    14.003074004430
         N            1.808413022965     1.277821203165     0.353299826180    14.003074004430
         C           -1.604873977035     0.312094203165    -0.065605173820    12.000000000000
         C            0.804223022965     0.532049203165    -0.135111173820    12.000000000000
         C           -0.576025977035     2.488505203165     0.334265826180    12.000000000000
         C            1.006266022965    -0.776215796835    -0.626778173820    12.000000000000
         C            3.350050022965    -0.551572796835    -0.066933173820    12.000000000000
         C           -1.715086977035    -0.600819796835     0.993292826180    12.000000000000
         C           -2.660255977035     0.452464203165    -0.974202173820    12.000000000000
         C            2.283253022965    -1.309323796835    -0.578218173820    12.000000000000
         C            3.041248022965     0.733936203165     0.371049826180    12.000000000000
         C           -2.867806977035    -1.375193796835     1.126910826180    12.000000000000
         C           -3.818594977035    -0.311462796835    -0.824479173820    12.000000000000
         C           -3.924232977035    -1.229110796835     0.223511826180    12.000000000000
         C            4.749261022965    -1.097765796835     0.001831826180    12.000000000000
         H            0.179318022965    -1.342494796835    -1.044111173820     1.007825032230
         H           -0.441344977035     2.506145203165     1.423884826180     1.007825032230
         H           -1.574218977035     2.854117203165     0.086657826180     1.007825032230
         H            0.178303022965     3.134841203165    -0.114008173820     1.007825032230
         H           -0.894854977035    -0.699899796835     1.701010826180     1.007825032230
         H           -2.532966577035     1.283272503165    -1.949650973820     1.007825032230
         H            2.461256022965    -2.316576796835    -0.953511173820     1.007825032230
         H            3.825533022965     1.378190203165     0.770692826180     1.007825032230
         H           -2.948333977035    -2.083602796835     1.948280826180     1.007825032230
         H           -4.634482977035    -0.198774796835    -1.534585173820     1.007825032230
         H            5.105249022965    -1.402897796835    -0.987490173820     1.007825032230
         H            5.441183022965    -0.345503796835     0.390936826180     1.007825032230
         H            4.802576022965    -1.973890796835     0.656396826180     1.007825032230
         H           -4.823216977035    -1.830365796835     0.334007826180     1.007825032230

  Basis Set: AUG-CC-PVTZ
    Blend: AUG-CC-PVTZ
  Basis Set: (AUG-CC-PVTZ AUX)
    Blend: AUG-CC-PVTZ-JKFIT
	 Reference Energy          =    -609.5113678315728976 [Eh]
	 Singles Energy            =      -0.0000000000000000 [Eh]
	 Same-Spin Energy          =      -0.6817405371667515 [Eh]
	 Opposite-Spin Energy      =      -2.1330080399740465 [Eh]
	 Correlation Energy        =      -2.8147485771407981 [Eh]
	 Total Energy              =    -612.3261164087136876 [Eh]

	 ================> DF-SCS-MP2 Energies <==================
	-----------------------------------------------------------
	 SCS Same-Spin Scale       =       0.3333333333333333 [-]
	 SCS Opposite-Spin Scale   =       1.2000000000000000 [-]
	 SCS Same-Spin Energy      =      -0.2272468457222505 [Eh]
	 SCS Opposite-Spin Energy  =      -2.5596096479688559 [Eh]
	 SCS Correlation Energy    =      -2.7868564936911064 [Eh]
	 SCS Total Energy          =    -612.2982243252639591 [Eh]
	-----------------------------------------------------------

  Dipole Moment: [D]
     X:    -0.5059      Y:    -1.5093      Z:    -0.1175     Total:     1.5961

*** Psi4 exiting successfully. Buy a developer a beer!
