                               Psi4 1.4a3.dev225

  ==> Input File <==

--------------------------------------------------------------------------
#psi4
#
memory 32 gb

molecule  {
0 1
  N       -0.4697210     1.1445100    -0.2216410
  N        1.7892250     1.2839290     0.3484630
  C       -1.6240620     0.3182020    -0.0704420
  C        0.7850350     0.5381570    -0.1399480
  C       -0.5952140     2.4946130     0.3294290
  C        0.9870780    -0.7701080    -0.6316150
  C        3.3308620    -0.5454650    -0.0717700
  C       -1.7342750    -0.5947120     0.9884560
  C       -2.6794440     0.4585720    -0.9790390
  C        2.2640650    -1.3032160    -0.5830550
  C        3.0220600     0.7400440     0.3662130
  C       -2.8869950    -1.3690860     1.1220740
  C       -3.8377830    -0.3053550    -0.8293160
  C       -3.9434210    -1.2230030     0.2186750
  C        4.7300730    -1.0916580    -0.0030050
  H        0.1601300    -1.3363870    -1.0489480
  H       -0.4605330     2.5122530     1.4190480
  H       -1.4105039     2.7932324     0.1271912
  H        0.1591150     3.1409490    -0.1188450
  H       -0.9140430    -0.6937920     1.6961740
  H       -2.5719260     1.1603340    -1.8029750
  H        2.4420680    -2.3104690    -0.9583480
  H        3.8063450     1.3842980     0.7658560
  H       -2.9675220    -2.0774950     1.9434440
  H       -4.6536710    -0.1926670    -1.5394220
  H        5.0860610    -1.3967900    -0.9923270
  H        5.4219950    -0.3393960     0.3861000
  H        4.7833880    -1.9677830     0.6515600
  H       -4.8424050    -1.8242580     0.3291710
units angstrom
no_reorient  #important for SAPT in psi4, default
symmetry c1  #important for SAPT in psi4, default
}

set PROPERTIES_ORIGIN ["COM"]
properties('MP2/aug-cc-pvtz', properties = ['dipole'])
--------------------------------------------------------------------------

    Molecular point group: c1
  Charge       = 0
  Multiplicity = 1
  Basis Set: AUG-CC-PVTZ
    Blend: AUG-CC-PVTZ
  Basis Set: (AUG-CC-PVTZ AUX)
    Blend: AUG-CC-PVTZ-JKFIT

    Orbital Energies [Eh]
    ---------------------

    Doubly Occupied:

       1A    -15.571332     2A    -15.548009     3A    -11.307389
       4A    -11.275434     5A    -11.264855     6A    -11.249616
       7A    -11.242323     8A    -11.242117     9A    -11.238448
      10A    -11.237972    11A    -11.237242    12A    -11.229733
      13A    -11.228195    14A    -11.224726    15A    -11.220588
      16A     -1.289730    17A     -1.217479    18A     -1.142750
      19A     -1.089278    20A     -1.039111    21A     -1.018956
      22A     -1.012186    23A     -0.962096    24A     -0.914276
      25A     -0.849960    26A     -0.839170    27A     -0.829290
      28A     -0.787262    29A     -0.725741    30A     -0.685378
      31A     -0.676846    32A     -0.648075    33A     -0.639844
      34A     -0.623521    35A     -0.615224    36A     -0.598712
      37A     -0.588286    38A     -0.587076    39A     -0.577269
      40A     -0.563171    41A     -0.552061    42A     -0.541838
      43A     -0.523116    44A     -0.514432    45A     -0.507765
      46A     -0.500181    47A     -0.499121    48A     -0.417609
      49A     -0.409388    50A     -0.372908    51A     -0.342931
      52A     -0.339445    53A     -0.286147

  @DF-RHF Final Energy:  -609.49960120296168

   => Energetics <=

    Nuclear Repulsion Energy =            920.6736707654002885
    One-Electron Energy =               -2653.0553270544719453
    Two-Electron Energy =                1122.8820550861098582
    Total Energy =                       -609.4996012029616850
  Basis Set: (AUG-CC-PVTZ AUX)
    Blend: AUG-CC-PVTZ-RI
    Molecular point group: c1

    Geometry (in Angstrom), charge = 0, multiplicity = 1:

       Center              X                  Y                   Z               Mass
    ------------   -----------------  -----------------  -----------------  -----------------
         N           -0.451362836617     1.139399463414    -0.217805728050    14.003074004430
         N            1.807583163383     1.278818463414     0.352298271950    14.003074004430
         C           -1.605703836617     0.313091463414    -0.066606728050    12.000000000000
         C            0.803393163383     0.533046463414    -0.136112728050    12.000000000000
         C           -0.576855836617     2.489502463414     0.333264271950    12.000000000000
         C            1.005436163383    -0.775218536586    -0.627779728050    12.000000000000
         C            3.349220163383    -0.550575536586    -0.067934728050    12.000000000000
         C           -1.715916836617    -0.599822536586     0.992291271950    12.000000000000
         C           -2.661085836617     0.453461463414    -0.975203728050    12.000000000000
         C            2.282423163383    -1.308326536586    -0.579219728050    12.000000000000
         C            3.040418163383     0.734933463414     0.370048271950    12.000000000000
         C           -2.868636836617    -1.374196536586     1.125909271950    12.000000000000
         C           -3.819424836617    -0.310465536586    -0.825480728050    12.000000000000
         C           -3.925062836617    -1.228113536586     0.222510271950    12.000000000000
         C            4.748431163383    -1.096768536586     0.000830271950    12.000000000000
         H            0.178488163383    -1.341497536586    -1.045112728050     1.007825032230
         H           -0.442174836617     2.507142463414     1.422883271950     1.007825032230
         H           -1.392145736617     2.788121863414     0.131026471950     1.007825032230
         H            0.177473163383     3.135838463414    -0.115009728050     1.007825032230
         H           -0.895684836617    -0.698902536586     1.700009271950     1.007825032230
         H           -2.553567836617     1.155223463414    -1.799139728050     1.007825032230
         H            2.460426163383    -2.315579536586    -0.954512728050     1.007825032230
         H            3.824703163383     1.379187463414     0.769691271950     1.007825032230
         H           -2.949163836617    -2.082605536586     1.947279271950     1.007825032230
         H           -4.635312836617    -0.197777536586    -1.535586728050     1.007825032230
         H            5.104419163383    -1.401900536586    -0.988491728050     1.007825032230
         H            5.440353163383    -0.344506536586     0.389935271950     1.007825032230
         H            4.801746163383    -1.972893536586     0.655395271950     1.007825032230
         H           -4.824046836617    -1.829368536586     0.333006271950     1.007825032230

  Basis Set: AUG-CC-PVTZ
    Blend: AUG-CC-PVTZ
  Basis Set: (AUG-CC-PVTZ AUX)
    Blend: AUG-CC-PVTZ-JKFIT
	 Reference Energy          =    -609.4996012029616850 [Eh]
	 Singles Energy            =      -0.0000000000000000 [Eh]
	 Same-Spin Energy          =      -0.6810213190903894 [Eh]
	 Opposite-Spin Energy      =      -2.1297977572465547 [Eh]
	 Correlation Energy        =      -2.8108190763369443 [Eh]
	 Total Energy              =    -612.3104202792986825 [Eh]

	 ================> DF-SCS-MP2 Energies <==================
	-----------------------------------------------------------
	 SCS Same-Spin Scale       =       0.3333333333333333 [-]
	 SCS Opposite-Spin Scale   =       1.2000000000000000 [-]
	 SCS Same-Spin Energy      =      -0.2270071063634631 [Eh]
	 SCS Opposite-Spin Energy  =      -2.5557573086958656 [Eh]
	 SCS Correlation Energy    =      -2.7827644150593289 [Eh]
	 SCS Total Energy          =    -612.2823656180210037 [Eh]
	-----------------------------------------------------------

  Dipole Moment: [D]
     X:    -0.5731      Y:    -1.4217      Z:    -0.1689     Total:     1.5422

*** Psi4 exiting successfully. Buy a developer a beer!
