                               Psi4 1.4a3.dev225

  ==> Input File <==

--------------------------------------------------------------------------
#psi4
#
memory 32 gb

molecule  {
0 1
  N       -0.4697210     1.1445100    -0.2216410
  N        1.7892250     1.2839290     0.3484630
  C       -1.6240620     0.3182020    -0.0704420
  C        0.7850350     0.5381570    -0.1399480
  C       -0.5952140     2.4946130     0.3294290
  C        0.9870780    -0.7701080    -0.6316150
  C        3.3308620    -0.5454650    -0.0717700
  C       -1.7342750    -0.5947120     0.9884560
  C       -2.6794440     0.4585720    -0.9790390
  C        2.2640650    -1.3032160    -0.5830550
  C        3.0220600     0.7400440     0.3662130
  C       -2.8869950    -1.3690860     1.1220740
  C       -3.8377830    -0.3053550    -0.8293160
  C       -3.9305232    -1.2061499     0.2066469
  C        4.7300730    -1.0916580    -0.0030050
  H        0.1601300    -1.3363870    -1.0489480
  H       -0.4605330     2.5122530     1.4190480
  H       -1.5934070     2.8602250     0.0818210
  H        0.1591150     3.1409490    -0.1188450
  H       -0.9140430    -0.6937920     1.6961740
  H       -2.5719260     1.1603340    -1.8029750
  H        2.4420680    -2.3104690    -0.9583480
  H        3.8063450     1.3842980     0.7658560
  H       -2.9675220    -2.0774950     1.9434440
  H       -4.6536710    -0.1926670    -1.5394220
  H        5.0860610    -1.3967900    -0.9923270
  H        5.4219950    -0.3393960     0.3861000
  H        4.7833880    -1.9677830     0.6515600
  H       -4.8424050    -1.8242580     0.3291710
units angstrom
no_reorient  #important for SAPT in psi4, default
symmetry c1  #important for SAPT in psi4, default
}

set PROPERTIES_ORIGIN ["COM"]
properties('MP2/aug-cc-pvtz', properties = ['dipole'])
--------------------------------------------------------------------------

    Molecular point group: c1
  Charge       = 0
  Multiplicity = 1
  Basis Set: AUG-CC-PVTZ
    Blend: AUG-CC-PVTZ
  Basis Set: (AUG-CC-PVTZ AUX)
    Blend: AUG-CC-PVTZ-JKFIT

    Orbital Energies [Eh]
    ---------------------

    Doubly Occupied:

       1A    -15.572670     2A    -15.548952     3A    -11.308546
       4A    -11.274856     5A    -11.265562     6A    -11.250254
       7A    -11.245047     8A    -11.241854     9A    -11.239536
      10A    -11.237873    11A    -11.237455    12A    -11.236731
      13A    -11.230353    14A    -11.228875    15A    -11.225163
      16A     -1.290076    17A     -1.217419    18A     -1.144504
      19A     -1.089962    20A     -1.037927    21A     -1.020192
      22A     -1.008836    23A     -0.949340    24A     -0.907228
      25A     -0.846977    26A     -0.838785    27A     -0.830196
      28A     -0.785207    29A     -0.724979    30A     -0.683389
      31A     -0.674027    32A     -0.648348    33A     -0.638150
      34A     -0.622955    35A     -0.610074    36A     -0.595693
      37A     -0.587690    38A     -0.583652    39A     -0.576641
      40A     -0.560766    41A     -0.543080    42A     -0.533433
      43A     -0.523354    44A     -0.512513    45A     -0.509193
      46A     -0.501904    47A     -0.497431    48A     -0.418184
      49A     -0.410297    50A     -0.373629    51A     -0.344764
      52A     -0.338327    53A     -0.286647

  @DF-RHF Final Energy:  -609.53311262506986

   => Energetics <=

    Nuclear Repulsion Energy =            920.0547711049396185
    One-Electron Energy =               -2651.9567673751980692
    Two-Electron Energy =                1122.3688836451885891
    Total Energy =                       -609.5331126250698617
  Basis Set: (AUG-CC-PVTZ AUX)
    Blend: AUG-CC-PVTZ-RI
    Molecular point group: c1

    Geometry (in Angstrom), charge = 0, multiplicity = 1:

       Center              X                  Y                   Z               Mass
    ------------   -----------------  -----------------  -----------------  -----------------
         N           -0.451213627226     1.138037865008    -0.216846377404    14.003074004430
         N            1.807732372774     1.277456865008     0.353257622596    14.003074004430
         C           -1.605554627226     0.311729865008    -0.065647377404    12.000000000000
         C            0.803542372774     0.531684865008    -0.135153377404    12.000000000000
         C           -0.576706627226     2.488140865008     0.334223622596    12.000000000000
         C            1.005585372774    -0.776580134992    -0.626820377404    12.000000000000
         C            3.349369372774    -0.551937134992    -0.066975377404    12.000000000000
         C           -1.715767627226    -0.601184134992     0.993250622596    12.000000000000
         C           -2.660936627226     0.452099865008    -0.974244377404    12.000000000000
         C            2.282572372774    -1.309688134992    -0.578260377404    12.000000000000
         C            3.040567372774     0.733571865008     0.371007622596    12.000000000000
         C           -2.868487627226    -1.375558134992     1.126868622596    12.000000000000
         C           -3.819275627226    -0.311827134992    -0.824521377404    12.000000000000
         C           -3.912015827226    -1.212622034992     0.211441522596    12.000000000000
         C            4.748580372774    -1.098130134992     0.001789622596    12.000000000000
         H            0.178637372774    -1.342859134992    -1.044153377404     1.007825032230
         H           -0.442025627226     2.505780865008     1.423842622596     1.007825032230
         H           -1.574899627226     2.853752865008     0.086615622596     1.007825032230
         H            0.177622372774     3.134476865008    -0.114050377404     1.007825032230
         H           -0.895535627226    -0.700264134992     1.700968622596     1.007825032230
         H           -2.553418627226     1.153861865008    -1.798180377404     1.007825032230
         H            2.460575372774    -2.316941134992    -0.953553377404     1.007825032230
         H            3.824852372774     1.377825865008     0.770650622596     1.007825032230
         H           -2.949014627226    -2.083967134992     1.948238622596     1.007825032230
         H           -4.635163627226    -0.199139134992    -1.534627377404     1.007825032230
         H            5.104568372774    -1.403262134992    -0.987532377404     1.007825032230
         H            5.440502372774    -0.345868134992     0.390894622596     1.007825032230
         H            4.801895372774    -1.974255134992     0.656354622596     1.007825032230
         H           -4.823897627226    -1.830730134992     0.333965622596     1.007825032230

  Basis Set: AUG-CC-PVTZ
    Blend: AUG-CC-PVTZ
  Basis Set: (AUG-CC-PVTZ AUX)
    Blend: AUG-CC-PVTZ-JKFIT
	 Reference Energy          =    -609.5331126250698617 [Eh]
	 Singles Energy            =      -0.0000000000000000 [Eh]
	 Same-Spin Energy          =      -0.6811622913117499 [Eh]
	 Opposite-Spin Energy      =      -2.1306916607916273 [Eh]
	 Correlation Energy        =      -2.8118539521033772 [Eh]
	 Total Energy              =    -612.3449665771732953 [Eh]

	 ================> DF-SCS-MP2 Energies <==================
	-----------------------------------------------------------
	 SCS Same-Spin Scale       =       0.3333333333333333 [-]
	 SCS Opposite-Spin Scale   =       1.2000000000000000 [-]
	 SCS Same-Spin Energy      =      -0.2270540971039166 [Eh]
	 SCS Opposite-Spin Energy  =      -2.5568299929499525 [Eh]
	 SCS Correlation Energy    =      -2.7838840900538693 [Eh]
	 SCS Total Energy          =    -612.3169967151237643 [Eh]
	-----------------------------------------------------------

  Dipole Moment: [D]
     X:    -0.4903      Y:    -1.4610      Z:    -0.1642     Total:     1.5498

*** Psi4 exiting successfully. Buy a developer a beer!
