                               Psi4 1.4a3.dev225

  ==> Input File <==

--------------------------------------------------------------------------
#psi4
#
memory 32 gb

molecule  {
0 1
  N       -0.4697210     1.1445100    -0.2216410
  N        1.7892250     1.2839290     0.3484630
  C       -1.6240620     0.3182020    -0.0704420
  C        0.7850350     0.5381570    -0.1399480
  C       -0.5952140     2.4946130     0.3294290
  C        0.9870780    -0.7701080    -0.6316150
  C        3.3154145    -0.5834325    -0.0389929
  C       -1.7342750    -0.5947120     0.9884560
  C       -2.6794440     0.4585720    -0.9790390
  C        2.2640650    -1.3032160    -0.5830550
  C        3.0220600     0.7400440     0.3662130
  C       -2.8869950    -1.3690860     1.1220740
  C       -3.8377830    -0.3053550    -0.8293160
  C       -3.9434210    -1.2230030     0.2186750
  C        4.7300730    -1.0916580    -0.0030050
  H        0.1601300    -1.3363870    -1.0489480
  H       -0.4605330     2.5122530     1.4190480
  H       -1.5934070     2.8602250     0.0818210
  H        0.1591150     3.1409490    -0.1188450
  H       -0.9140430    -0.6937920     1.6961740
  H       -2.5719260     1.1603340    -1.8029750
  H        2.4420680    -2.3104690    -0.9583480
  H        3.8063450     1.3842980     0.7658560
  H       -2.9675220    -2.0774950     1.9434440
  H       -4.6536710    -0.1926670    -1.5394220
  H        5.0860610    -1.3967900    -0.9923270
  H        5.4219950    -0.3393960     0.3861000
  H        4.7833880    -1.9677830     0.6515600
  H       -4.8424050    -1.8242580     0.3291710
units angstrom
no_reorient  #important for SAPT in psi4, default
symmetry c1  #important for SAPT in psi4, default
}

set PROPERTIES_ORIGIN ["COM"]
properties('MP2/aug-cc-pvtz', properties = ['dipole'])
--------------------------------------------------------------------------

    Molecular point group: c1
  Charge       = 0
  Multiplicity = 1
  Basis Set: AUG-CC-PVTZ
    Blend: AUG-CC-PVTZ
  Basis Set: (AUG-CC-PVTZ AUX)
    Blend: AUG-CC-PVTZ-JKFIT

    Orbital Energies [Eh]
    ---------------------

    Doubly Occupied:

       1A    -15.572302     2A    -15.550447     3A    -11.308046
       4A    -11.275072     5A    -11.269619     6A    -11.247689
       7A    -11.245100     8A    -11.241757     9A    -11.241540
      10A    -11.237816    11A    -11.237401    12A    -11.236548
      13A    -11.231150    14A    -11.227806    15A    -11.225396
      16A     -1.290081    17A     -1.217369    18A     -1.141970
      19A     -1.092120    20A     -1.036499    21A     -1.018358
      22A     -1.008583    23A     -0.949637    24A     -0.906104
      25A     -0.849271    26A     -0.838324    27A     -0.828119
      28A     -0.785025    29A     -0.724413    30A     -0.685315
      31A     -0.674440    32A     -0.647999    33A     -0.638259
      34A     -0.622886    35A     -0.609367    36A     -0.593655
      37A     -0.587730    38A     -0.583798    39A     -0.576613
      40A     -0.560359    41A     -0.541826    42A     -0.533957
      43A     -0.524744    44A     -0.516289    45A     -0.508867
      46A     -0.499860    47A     -0.498937    48A     -0.417230
      49A     -0.410112    50A     -0.375189    51A     -0.342616
      52A     -0.338393    53A     -0.284789

  @DF-RHF Final Energy:  -609.53189981659591

   => Energetics <=

    Nuclear Repulsion Energy =            919.6042144894129251
    One-Electron Energy =               -2651.0586440355659761
    Two-Electron Energy =                1121.9225297295570272
    Total Energy =                       -609.5318998165960238
  Basis Set: (AUG-CC-PVTZ AUX)
    Blend: AUG-CC-PVTZ-RI
    Molecular point group: c1

    Geometry (in Angstrom), charge = 0, multiplicity = 1:

       Center              X                  Y                   Z               Mass
    ------------   -----------------  -----------------  -----------------  -----------------
         N           -0.449496733499     1.141358385315    -0.219560258253    14.003074004430
         N            1.809449266501     1.280777385315     0.350543741747    14.003074004430
         C           -1.603837733499     0.315050385315    -0.068361258253    12.000000000000
         C            0.805259266501     0.535005385315    -0.137867258253    12.000000000000
         C           -0.574989733499     2.491461385315     0.331509741747    12.000000000000
         C            1.007302266501    -0.773259614685    -0.629534258253    12.000000000000
         C            3.335638766501    -0.586584114685    -0.036912158253    12.000000000000
         C           -1.714050733499    -0.597863614685     0.990536741747    12.000000000000
         C           -2.659219733499     0.455420385315    -0.976958258253    12.000000000000
         C            2.284289266501    -1.306367614685    -0.580974258253    12.000000000000
         C            3.042284266501     0.736892385315     0.368293741747    12.000000000000
         C           -2.866770733499    -1.372237614685     1.124154741747    12.000000000000
         C           -3.817558733499    -0.308506614685    -0.827235258253    12.000000000000
         C           -3.923196733499    -1.226154614685     0.220755741747    12.000000000000
         C            4.750297266501    -1.094809614685    -0.000924258253    12.000000000000
         H            0.180354266501    -1.339538614685    -1.046867258253     1.007825032230
         H           -0.440308733499     2.509101385315     1.421128741747     1.007825032230
         H           -1.573182733499     2.857073385315     0.083901741747     1.007825032230
         H            0.179339266501     3.137797385315    -0.116764258253     1.007825032230
         H           -0.893818733499    -0.696943614685     1.698254741747     1.007825032230
         H           -2.551701733499     1.157182385315    -1.800894258253     1.007825032230
         H            2.462292266501    -2.313620614685    -0.956267258253     1.007825032230
         H            3.826569266501     1.381146385315     0.767936741747     1.007825032230
         H           -2.947297733499    -2.080646614685     1.945524741747     1.007825032230
         H           -4.633446733499    -0.195818614685    -1.537341258253     1.007825032230
         H            5.106285266501    -1.399941614685    -0.990246258253     1.007825032230
         H            5.442219266501    -0.342547614685     0.388180741747     1.007825032230
         H            4.803612266501    -1.970934614685     0.653640741747     1.007825032230
         H           -4.822180733499    -1.827409614685     0.331251741747     1.007825032230

  Basis Set: AUG-CC-PVTZ
    Blend: AUG-CC-PVTZ
  Basis Set: (AUG-CC-PVTZ AUX)
    Blend: AUG-CC-PVTZ-JKFIT
	 Reference Energy          =    -609.5318998165959101 [Eh]
	 Singles Energy            =      -0.0000000000000000 [Eh]
	 Same-Spin Energy          =      -0.6813826039911184 [Eh]
	 Opposite-Spin Energy      =      -2.1310183650838224 [Eh]
	 Correlation Energy        =      -2.8124009690749405 [Eh]
	 Total Energy              =    -612.3443007856708391 [Eh]

	 ================> DF-SCS-MP2 Energies <==================
	-----------------------------------------------------------
	 SCS Same-Spin Scale       =       0.3333333333333333 [-]
	 SCS Opposite-Spin Scale   =       1.2000000000000000 [-]
	 SCS Same-Spin Energy      =      -0.2271275346637061 [Eh]
	 SCS Opposite-Spin Energy  =      -2.5572220381005866 [Eh]
	 SCS Correlation Energy    =      -2.7843495727642926 [Eh]
	 SCS Total Energy          =    -612.3162493893602232 [Eh]
	-----------------------------------------------------------

  Dipole Moment: [D]
     X:    -0.4512      Y:    -1.4348      Z:    -0.1672     Total:     1.5133

*** Psi4 exiting successfully. Buy a developer a beer!
