                               Psi4 1.4a3.dev225

  ==> Input File <==

--------------------------------------------------------------------------
#psi4
#
memory 32 gb

molecule  {
0 1
  N       -0.4697210     1.1445100    -0.2216410
  N        1.7892250     1.2839290     0.3484630
  C       -1.6240620     0.3182020    -0.0704420
  C        0.7850350     0.5381570    -0.1399480
  C       -0.5952140     2.4946130     0.3294290
  C        0.9870780    -0.7701080    -0.6316150
  C        3.3308620    -0.5454650    -0.0717700
  C       -1.7342750    -0.5947120     0.9884560
  C       -2.6794440     0.4585720    -0.9790390
  C        2.2640650    -1.3032160    -0.5830550
  C        3.0220600     0.7400440     0.3662130
  C       -2.8869950    -1.3690860     1.1220740
  C       -3.8377830    -0.3053550    -0.8293160
  C       -3.9434210    -1.2230030     0.2186750
  C        4.7300730    -1.0916580    -0.0030050
  H        0.1601300    -1.3363870    -1.0489480
  H       -0.4605330     2.5122530     1.4190480
  H       -1.5751167     2.8535257     0.0863580
  H        0.1591150     3.1409490    -0.1188450
  H       -0.9140430    -0.6937920     1.6961740
  H       -2.5719260     1.1603340    -1.8029750
  H        2.4420680    -2.3104690    -0.9583480
  H        3.8063450     1.3842980     0.7658560
  H       -2.9675220    -2.0774950     1.9434440
  H       -4.6536710    -0.1926670    -1.5394220
  H        5.0860610    -1.3967900    -0.9923270
  H        5.4219950    -0.3393960     0.3861000
  H        4.7833880    -1.9677830     0.6515600
  H       -4.8424050    -1.8242580     0.3291710
units angstrom
no_reorient  #important for SAPT in psi4, default
symmetry c1  #important for SAPT in psi4, default
}

set PROPERTIES_ORIGIN ["COM"]
properties('MP2/aug-cc-pvtz', properties = ['dipole'])
--------------------------------------------------------------------------

    Molecular point group: c1
  Charge       = 0
  Multiplicity = 1
  Basis Set: AUG-CC-PVTZ
    Blend: AUG-CC-PVTZ
  Basis Set: (AUG-CC-PVTZ AUX)
    Blend: AUG-CC-PVTZ-JKFIT

    Orbital Energies [Eh]
    ---------------------

    Doubly Occupied:

       1A    -15.572635     2A    -15.548885     3A    -11.308458
       4A    -11.275378     5A    -11.265489     6A    -11.250184
       7A    -11.242754     8A    -11.242076     9A    -11.241857
      10A    -11.238141    11A    -11.237739    12A    -11.236889
      13A    -11.230306    14A    -11.228820    15A    -11.225122
      16A     -1.290087    17A     -1.217380    18A     -1.142303
      19A     -1.089852    20A     -1.038005    21A     -1.018716
      22A     -1.008996    23A     -0.950187    24A     -0.908124
      25A     -0.847249    26A     -0.839209    27A     -0.829235
      28A     -0.785709    29A     -0.724654    30A     -0.685434
      31A     -0.674485    32A     -0.648222    33A     -0.638358
      34A     -0.622698    35A     -0.609900    36A     -0.594135
      37A     -0.588003    38A     -0.584183    39A     -0.576743
      40A     -0.561662    41A     -0.543408    42A     -0.536422
      43A     -0.523438    44A     -0.514578    45A     -0.507851
      46A     -0.500050    47A     -0.498852    48A     -0.418006
      49A     -0.410220    50A     -0.373552    51A     -0.342852
      52A     -0.339027    53A     -0.286467

  @DF-RHF Final Energy:  -609.53379621999363

   => Energetics <=

    Nuclear Repulsion Energy =            919.7009559630150761
    One-Electron Energy =               -2651.2435274096546891
    Two-Electron Energy =                1122.0087752266460939
    Total Energy =                       -609.5337962199935191
  Basis Set: (AUG-CC-PVTZ AUX)
    Blend: AUG-CC-PVTZ-RI
    Molecular point group: c1

    Geometry (in Angstrom), charge = 0, multiplicity = 1:

       Center              X                  Y                   Z               Mass
    ------------   -----------------  -----------------  -----------------  -----------------
         N           -0.450525442601     1.139092748209    -0.217598007402    14.003074004430
         N            1.808420557399     1.278511748209     0.352505992598    14.003074004430
         C           -1.604866442601     0.312784748209    -0.066399007402    12.000000000000
         C            0.804230557399     0.532739748209    -0.135905007402    12.000000000000
         C           -0.576018442601     2.489195748209     0.333471992598    12.000000000000
         C            1.006273557399    -0.775525251791    -0.627572007402    12.000000000000
         C            3.350057557399    -0.550882251791    -0.067727007402    12.000000000000
         C           -1.715079442601    -0.600129251791     0.992498992598    12.000000000000
         C           -2.660248442601     0.453154748209    -0.974996007402    12.000000000000
         C            2.283260557399    -1.308633251791    -0.579012007402    12.000000000000
         C            3.041255557399     0.734626748209     0.370255992598    12.000000000000
         C           -2.867799442601    -1.374503251791     1.126116992598    12.000000000000
         C           -3.818587442601    -0.310772251791    -0.825273007402    12.000000000000
         C           -3.924225442601    -1.228420251791     0.222717992598    12.000000000000
         C            4.749268557399    -1.097075251791     0.001037992598    12.000000000000
         H            0.179325557399    -1.341804251791    -1.044905007402     1.007825032230
         H           -0.441337442601     2.506835748209     1.423090992598     1.007825032230
         H           -1.555921142601     2.848108448209     0.090400992598     1.007825032230
         H            0.178310557399     3.135531748209    -0.114802007402     1.007825032230
         H           -0.894847442601    -0.699209251791     1.700216992598     1.007825032230
         H           -2.552730442601     1.154916748209    -1.798932007402     1.007825032230
         H            2.461263557399    -2.315886251791    -0.954305007402     1.007825032230
         H            3.825540557399     1.378880748209     0.769898992598     1.007825032230
         H           -2.948326442601    -2.082912251791     1.947486992598     1.007825032230
         H           -4.634475442601    -0.198084251791    -1.535379007402     1.007825032230
         H            5.105256557399    -1.402207251791    -0.988284007402     1.007825032230
         H            5.441190557399    -0.344813251791     0.390142992598     1.007825032230
         H            4.802583557399    -1.973200251791     0.655602992598     1.007825032230
         H           -4.823209442601    -1.829675251791     0.333213992598     1.007825032230

  Basis Set: AUG-CC-PVTZ
    Blend: AUG-CC-PVTZ
  Basis Set: (AUG-CC-PVTZ AUX)
    Blend: AUG-CC-PVTZ-JKFIT
	 Reference Energy          =    -609.5337962199936328 [Eh]
	 Singles Energy            =      -0.0000000000000000 [Eh]
	 Same-Spin Energy          =      -0.6811119369349169 [Eh]
	 Opposite-Spin Energy      =      -2.1305900524624186 [Eh]
	 Correlation Energy        =      -2.8117019893973354 [Eh]
	 Total Energy              =    -612.3454982093909393 [Eh]

	 ================> DF-SCS-MP2 Energies <==================
	-----------------------------------------------------------
	 SCS Same-Spin Scale       =       0.3333333333333333 [-]
	 SCS Opposite-Spin Scale   =       1.2000000000000000 [-]
	 SCS Same-Spin Energy      =      -0.2270373123116390 [Eh]
	 SCS Opposite-Spin Energy  =      -2.5567080629549022 [Eh]
	 SCS Correlation Energy    =      -2.7837453752665411 [Eh]
	 SCS Total Energy          =    -612.3175415952601952 [Eh]
	-----------------------------------------------------------

  Dipole Moment: [D]
     X:    -0.5039      Y:    -1.4571      Z:    -0.1671     Total:     1.5508

*** Psi4 exiting successfully. Buy a developer a beer!
