                               Psi4 1.4a3.dev225

  ==> Input File <==

--------------------------------------------------------------------------
#psi4
#
memory 32 gb

molecule  {
0 1
  N       -0.4697210     1.1445100    -0.2216410
  N        1.7892250     1.2839290     0.3484630
  C       -1.6240620     0.3182020    -0.0704420
  C        0.7850350     0.5381570    -0.1399480
  C       -0.5952140     2.4946130     0.3294290
  C        0.9870780    -0.7701080    -0.6316150
  C        3.3308620    -0.5454650    -0.0717700
  C       -1.7342750    -0.5947120     0.9884560
  C       -2.6794440     0.4585720    -0.9790390
  C        2.2640650    -1.3032160    -0.5830550
  C        3.0220600     0.7400440     0.3662130
  C       -2.8869950    -1.3690860     1.1220740
  C       -3.8377830    -0.3053550    -0.8293160
  C       -3.9434210    -1.2230030     0.2186750
  C        4.7300730    -1.0916580    -0.0030050
  H        0.1601300    -1.3363870    -1.0489480
  H       -0.4605330     2.5122530     1.4190480
  H       -1.5934070     2.8602250     0.0818210
  H        0.1591150     3.1409490    -0.1188450
  H       -0.9140430    -0.6937920     1.6961740
  H       -2.5719260     1.1603340    -1.8029750
  H        2.4420680    -2.3104690    -0.9583480
  H        3.8063450     1.3842980     0.7658560
  H       -2.9675220    -2.0774950     1.9434440
  H       -4.6536710    -0.1926670    -1.5394220
  H        5.0860610    -1.3967900    -0.9923270
  H        5.4093415    -0.3531530     0.3789842
  H        4.7833880    -1.9677830     0.6515600
  H       -4.8424050    -1.8242580     0.3291710
units angstrom
no_reorient  #important for SAPT in psi4, default
symmetry c1  #important for SAPT in psi4, default
}

set PROPERTIES_ORIGIN ["COM"]
properties('MP2/aug-cc-pvtz', properties = ['dipole'])
--------------------------------------------------------------------------

    Molecular point group: c1
  Charge       = 0
  Multiplicity = 1
  Basis Set: AUG-CC-PVTZ
    Blend: AUG-CC-PVTZ
  Basis Set: (AUG-CC-PVTZ AUX)
    Blend: AUG-CC-PVTZ-JKFIT

    Orbital Energies [Eh]
    ---------------------

    Doubly Occupied:

       1A    -15.572787     2A    -15.548970     3A    -11.308552
       4A    -11.275345     5A    -11.265537     6A    -11.250117
       7A    -11.245160     8A    -11.242019     9A    -11.241796
      10A    -11.238081    11A    -11.237687    12A    -11.236819
      13A    -11.230220    14A    -11.228838    15A    -11.222749
      16A     -1.290134    17A     -1.217375    18A     -1.142245
      19A     -1.090000    20A     -1.038194    21A     -1.018671
      22A     -1.008861    23A     -0.950267    24A     -0.907844
      25A     -0.847171    26A     -0.839326    27A     -0.829253
      28A     -0.785598    29A     -0.724536    30A     -0.685466
      31A     -0.674640    32A     -0.648244    33A     -0.638339
      34A     -0.622878    35A     -0.609608    36A     -0.593799
      37A     -0.588345    38A     -0.584053    39A     -0.576474
      40A     -0.561591    41A     -0.545522    42A     -0.534213
      43A     -0.523376    44A     -0.515107    45A     -0.507969
      46A     -0.500013    47A     -0.498799    48A     -0.418015
      49A     -0.410289    50A     -0.373561    51A     -0.342810
      52A     -0.338941    53A     -0.286464

  @DF-RHF Final Energy:  -609.53377480077222

   => Energetics <=

    Nuclear Repulsion Energy =            919.6948949692724682
    One-Electron Energy =               -2651.2320035408124568
    Two-Electron Energy =                1122.0033337707679948
    Total Energy =                       -609.5337748007721075
  Basis Set: (AUG-CC-PVTZ AUX)
    Blend: AUG-CC-PVTZ-RI
    Molecular point group: c1

    Geometry (in Angstrom), charge = 0, multiplicity = 1:

       Center              X                  Y                   Z               Mass
    ------------   -----------------  -----------------  -----------------  -----------------
         N           -0.450368029854     1.139128651102    -0.217538728993    14.003074004430
         N            1.808577970146     1.278547651102     0.352565271007    14.003074004430
         C           -1.604709029854     0.312820651102    -0.066339728993    12.000000000000
         C            0.804387970146     0.532775651102    -0.135845728993    12.000000000000
         C           -0.575861029854     2.489231651102     0.333531271007    12.000000000000
         C            1.006430970146    -0.775489348898    -0.627512728993    12.000000000000
         C            3.350214970146    -0.550846348898    -0.067667728993    12.000000000000
         C           -1.714922029854    -0.600093348898     0.992558271007    12.000000000000
         C           -2.660091029854     0.453190651102    -0.974936728993    12.000000000000
         C            2.283417970146    -1.308597348898    -0.578952728993    12.000000000000
         C            3.041412970146     0.734662651102     0.370315271007    12.000000000000
         C           -2.867642029854    -1.374467348898     1.126176271007    12.000000000000
         C           -3.818430029854    -0.310736348898    -0.825213728993    12.000000000000
         C           -3.924068029854    -1.228384348898     0.222777271007    12.000000000000
         C            4.749425970146    -1.097039348898     0.001097271007    12.000000000000
         H            0.179482970146    -1.341768348898    -1.044845728993     1.007825032230
         H           -0.441180029854     2.506871651102     1.423150271007     1.007825032230
         H           -1.574054029854     2.854843651102     0.085923271007     1.007825032230
         H            0.178467970146     3.135567651102    -0.114742728993     1.007825032230
         H           -0.894690029854    -0.699173348898     1.700276271007     1.007825032230
         H           -2.552573029854     1.154952651102    -1.798872728993     1.007825032230
         H            2.461420970146    -2.315850348898    -0.954245728993     1.007825032230
         H            3.825697970146     1.378916651102     0.769958271007     1.007825032230
         H           -2.948169029854    -2.082876348898     1.947546271007     1.007825032230
         H           -4.634318029854    -0.198048348898    -1.535319728993     1.007825032230
         H            5.105413970146    -1.402171348898    -0.988224728993     1.007825032230
         H            5.428694470146    -0.358534348898     0.383086471007     1.007825032230
         H            4.802740970146    -1.973164348898     0.655662271007     1.007825032230
         H           -4.823052029854    -1.829639348898     0.333273271007     1.007825032230

  Basis Set: AUG-CC-PVTZ
    Blend: AUG-CC-PVTZ
  Basis Set: (AUG-CC-PVTZ AUX)
    Blend: AUG-CC-PVTZ-JKFIT
	 Reference Energy          =    -609.5337748007722212 [Eh]
	 Singles Energy            =      -0.0000000000000000 [Eh]
	 Same-Spin Energy          =      -0.6811293600334325 [Eh]
	 Opposite-Spin Energy      =      -2.1306118543935537 [Eh]
	 Correlation Energy        =      -2.8117412144269860 [Eh]
	 Total Energy              =    -612.3455160151992231 [Eh]

	 ================> DF-SCS-MP2 Energies <==================
	-----------------------------------------------------------
	 SCS Same-Spin Scale       =       0.3333333333333333 [-]
	 SCS Opposite-Spin Scale   =       1.2000000000000000 [-]
	 SCS Same-Spin Energy      =      -0.2270431200111442 [Eh]
	 SCS Opposite-Spin Energy  =      -2.5567342252722645 [Eh]
	 SCS Correlation Energy    =      -2.7837773452834087 [Eh]
	 SCS Total Energy          =    -612.3175521460556183 [Eh]
	-----------------------------------------------------------

  Dipole Moment: [D]
     X:    -0.4815      Y:    -1.4599      Z:    -0.1635     Total:     1.5459

*** Psi4 exiting successfully. Buy a developer a beer!
