                               Psi4 1.4a3.dev225

  ==> Input File <==

--------------------------------------------------------------------------
#psi4
#
memory 32 gb

molecule  {
0 1
  N       -0.4697210     1.1445100    -0.2216410
  N        1.7892250     1.2839290     0.3484630
  C       -1.6240620     0.3182020    -0.0704420
  C        0.7850350     0.5381570    -0.1399480
  C       -0.5952140     2.4946130     0.3294290
  C        0.9870780    -0.7701080    -0.6316150
  C        3.3308620    -0.5454650    -0.0717700
  C       -1.7342750    -0.5947120     0.9884560
  C       -2.6794440     0.4585720    -0.9790390
  C        2.2640650    -1.3032160    -0.5830550
  C        2.9988317     0.7363187     0.3600952
  C       -2.8869950    -1.3690860     1.1220740
  C       -3.8377830    -0.3053550    -0.8293160
  C       -3.9434210    -1.2230030     0.2186750
  C        4.7300730    -1.0916580    -0.0030050
  H        0.1601300    -1.3363870    -1.0489480
  H       -0.4605330     2.5122530     1.4190480
  H       -1.5934070     2.8602250     0.0818210
  H        0.1591150     3.1409490    -0.1188450
  H       -0.9140430    -0.6937920     1.6961740
  H       -2.5719260     1.1603340    -1.8029750
  H        2.4420680    -2.3104690    -0.9583480
  H        3.8063450     1.3842980     0.7658560
  H       -2.9675220    -2.0774950     1.9434440
  H       -4.6536710    -0.1926670    -1.5394220
  H        5.0860610    -1.3967900    -0.9923270
  H        5.4219950    -0.3393960     0.3861000
  H        4.7833880    -1.9677830     0.6515600
  H       -4.8424050    -1.8242580     0.3291710
units angstrom
no_reorient  #important for SAPT in psi4, default
symmetry c1  #important for SAPT in psi4, default
}

set PROPERTIES_ORIGIN ["COM"]
properties('MP2/aug-cc-pvtz', properties = ['dipole'])
--------------------------------------------------------------------------

    Molecular point group: c1
  Charge       = 0
  Multiplicity = 1
  Basis Set: AUG-CC-PVTZ
    Blend: AUG-CC-PVTZ
  Basis Set: (AUG-CC-PVTZ AUX)
    Blend: AUG-CC-PVTZ-JKFIT

    Orbital Energies [Eh]
    ---------------------

    Doubly Occupied:

       1A    -15.573164     2A    -15.548752     3A    -11.309036
       4A    -11.275496     5A    -11.265722     6A    -11.249956
       7A    -11.245615     8A    -11.242112     9A    -11.241890
      10A    -11.238187    11A    -11.237818    12A    -11.236950
      13A    -11.229613    14A    -11.228016    15A    -11.225526
      16A     -1.292511    17A     -1.221800    18A     -1.142556
      19A     -1.091164    20A     -1.037642    21A     -1.018749
      22A     -1.009085    23A     -0.949891    24A     -0.907252
      25A     -0.845599    26A     -0.840002    27A     -0.829836
      28A     -0.786713    29A     -0.723979    30A     -0.685465
      31A     -0.675648    32A     -0.648540    33A     -0.638517
      34A     -0.621002    35A     -0.608771    36A     -0.593930
      37A     -0.587235    38A     -0.583496    39A     -0.576863
      40A     -0.561362    41A     -0.543840    42A     -0.534630
      43A     -0.525536    44A     -0.514416    45A     -0.507403
      46A     -0.500049    47A     -0.499132    48A     -0.418453
      49A     -0.410945    50A     -0.375817    51A     -0.342860
      52A     -0.339049    53A     -0.285821

  @DF-RHF Final Energy:  -609.53354533923573

   => Energetics <=

    Nuclear Repulsion Energy =            920.1027915959990651
    One-Electron Energy =               -2652.0258454845779852
    Two-Electron Energy =                1122.3895085493431907
    Total Energy =                       -609.5335453392358431
  Basis Set: (AUG-CC-PVTZ AUX)
    Blend: AUG-CC-PVTZ-RI
    Molecular point group: c1

    Geometry (in Angstrom), charge = 0, multiplicity = 1:

       Center              X                  Y                   Z               Mass
    ------------   -----------------  -----------------  -----------------  -----------------
         N           -0.449025445253     1.139284312421    -0.217204368217    14.003074004430
         N            1.809920554747     1.278703312421     0.352899631783    14.003074004430
         C           -1.603366445253     0.312976312421    -0.066005368217    12.000000000000
         C            0.805730554747     0.532931312421    -0.135511368217    12.000000000000
         C           -0.574518445253     2.489387312421     0.333865631783    12.000000000000
         C            1.007773554747    -0.775333687579    -0.627178368217    12.000000000000
         C            3.351557554747    -0.550690687579    -0.067333368217    12.000000000000
         C           -1.713579445253    -0.599937687579     0.992892631783    12.000000000000
         C           -2.658748445253     0.453346312421    -0.974602368217    12.000000000000
         C            2.284760554747    -1.308441687579    -0.578618368217    12.000000000000
         C            3.019527254747     0.731093012421     0.364531831783    12.000000000000
         C           -2.866299445253    -1.374311687579     1.126510631783    12.000000000000
         C           -3.817087445253    -0.310580687579    -0.824879368217    12.000000000000
         C           -3.922725445253    -1.228228687579     0.223111631783    12.000000000000
         C            4.750768554747    -1.096883687579     0.001431631783    12.000000000000
         H            0.180825554747    -1.341612687579    -1.044511368217     1.007825032230
         H           -0.439837445253     2.507027312421     1.423484631783     1.007825032230
         H           -1.572711445253     2.854999312421     0.086257631783     1.007825032230
         H            0.179810554747     3.135723312421    -0.114408368217     1.007825032230
         H           -0.893347445253    -0.699017687579     1.700610631783     1.007825032230
         H           -2.551230445253     1.155108312421    -1.798538368217     1.007825032230
         H            2.462763554747    -2.315694687579    -0.953911368217     1.007825032230
         H            3.827040554747     1.379072312421     0.770292631783     1.007825032230
         H           -2.946826445253    -2.082720687579     1.947880631783     1.007825032230
         H           -4.632975445253    -0.197892687579    -1.534985368217     1.007825032230
         H            5.106756554747    -1.402015687579    -0.987890368217     1.007825032230
         H            5.442690554747    -0.344621687579     0.390536631783     1.007825032230
         H            4.804083554747    -1.973008687579     0.655996631783     1.007825032230
         H           -4.821709445253    -1.829483687579     0.333607631783     1.007825032230

  Basis Set: AUG-CC-PVTZ
    Blend: AUG-CC-PVTZ
  Basis Set: (AUG-CC-PVTZ AUX)
    Blend: AUG-CC-PVTZ-JKFIT
	 Reference Energy          =    -609.5335453392357294 [Eh]
	 Singles Energy            =      -0.0000000000000000 [Eh]
	 Same-Spin Energy          =      -0.6810899420644546 [Eh]
	 Opposite-Spin Energy      =      -2.1303937335709531 [Eh]
	 Correlation Energy        =      -2.8114836756354076 [Eh]
	 Total Energy              =    -612.3450290148711019 [Eh]

	 ================> DF-SCS-MP2 Energies <==================
	-----------------------------------------------------------
	 SCS Same-Spin Scale       =       0.3333333333333333 [-]
	 SCS Opposite-Spin Scale   =       1.2000000000000000 [-]
	 SCS Same-Spin Energy      =      -0.2270299806881515 [Eh]
	 SCS Opposite-Spin Energy  =      -2.5564724802851435 [Eh]
	 SCS Correlation Energy    =      -2.7835024609732950 [Eh]
	 SCS Total Energy          =    -612.3170478002090249 [Eh]
	-----------------------------------------------------------

  Dipole Moment: [D]
     X:    -0.5304      Y:    -1.4602      Z:    -0.1710     Total:     1.5629

*** Psi4 exiting successfully. Buy a developer a beer!
