                               Psi4 1.4a3.dev225

  ==> Input File <==

--------------------------------------------------------------------------
#psi4
#
memory 32 gb

molecule  {
0 1
  N       -0.4697210     1.1445100    -0.2216410
  N        1.7892250     1.2839290     0.3484630
  C       -1.6240620     0.3182020    -0.0704420
  C        0.7850350     0.5381570    -0.1399480
  C       -0.5952140     2.4946130     0.3294290
  C        0.9870780    -0.7701080    -0.6316150
  C        3.3308620    -0.5454650    -0.0717700
  C       -1.7342750    -0.5947120     0.9884560
  C       -2.6794440     0.4585720    -0.9790390
  C        2.2640650    -1.3032160    -0.5830550
  C        3.0220600     0.7400440     0.3662130
  C       -2.8869950    -1.3690860     1.1220740
  C       -3.8377830    -0.3053550    -0.8293160
  C       -3.9682475    -1.2568376     0.2435529
  C        4.7300730    -1.0916580    -0.0030050
  H        0.1601300    -1.3363870    -1.0489480
  H       -0.4605330     2.5122530     1.4190480
  H       -1.5934070     2.8602250     0.0818210
  H        0.1591150     3.1409490    -0.1188450
  H       -0.9140430    -0.6937920     1.6961740
  H       -2.5719260     1.1603340    -1.8029750
  H        2.4420680    -2.3104690    -0.9583480
  H        3.8063450     1.3842980     0.7658560
  H       -2.9675220    -2.0774950     1.9434440
  H       -4.6536710    -0.1926670    -1.5394220
  H        5.0860610    -1.3967900    -0.9923270
  H        5.4219950    -0.3393960     0.3861000
  H        4.7833880    -1.9677830     0.6515600
  H       -4.8424050    -1.8242580     0.3291710
units angstrom
no_reorient  #important for SAPT in psi4, default
symmetry c1  #important for SAPT in psi4, default
}

set PROPERTIES_ORIGIN ["COM"]
properties('MP2/aug-cc-pvtz', properties = ['dipole'])
--------------------------------------------------------------------------

    Molecular point group: c1
  Charge       = 0
  Multiplicity = 1
  Basis Set: AUG-CC-PVTZ
    Blend: AUG-CC-PVTZ
  Basis Set: (AUG-CC-PVTZ AUX)
    Blend: AUG-CC-PVTZ-JKFIT

    Orbital Energies [Eh]
    ---------------------

    Doubly Occupied:

       1A    -15.573211     2A    -15.549169     3A    -11.308790
       4A    -11.276501     5A    -11.265652     6A    -11.250326
       7A    -11.246664     8A    -11.245518     9A    -11.242581
      10A    -11.239282    11A    -11.237587    12A    -11.236988
      13A    -11.230500    14A    -11.229027    15A    -11.225240
      16A     -1.290446    17A     -1.217501    18A     -1.138300
      19A     -1.089921    20A     -1.038151    21A     -1.016953
      22A     -1.007972    23A     -0.949512    24A     -0.908211
      25A     -0.847103    26A     -0.840774    27A     -0.826969
      28A     -0.786528    29A     -0.723869    30A     -0.690452
      31A     -0.674911    32A     -0.648757    33A     -0.638267
      34A     -0.622263    35A     -0.608884    36A     -0.590658
      37A     -0.588861    38A     -0.583956    39A     -0.576772
      40A     -0.563597    41A     -0.543789    42A     -0.536187
      43A     -0.523470    44A     -0.519177    45A     -0.506917
      46A     -0.498529    47A     -0.494316    48A     -0.417887
      49A     -0.410467    50A     -0.373718    51A     -0.341029
      52A     -0.338632    53A     -0.286280

  @DF-RHF Final Energy:  -609.53017496872531

   => Energetics <=

    Nuclear Repulsion Energy =            918.7391661475003275
    One-Electron Energy =               -2649.3046426518667431
    Two-Electron Energy =                1121.0353015356411106
    Total Energy =                       -609.5301749687253050
  Basis Set: (AUG-CC-PVTZ AUX)
    Blend: AUG-CC-PVTZ-RI
    Molecular point group: c1

    Geometry (in Angstrom), charge = 0, multiplicity = 1:

       Center              X                  Y                   Z               Mass
    ------------   -----------------  -----------------  -----------------  -----------------
         N           -0.448928641213     1.141108052806    -0.219081798440    14.003074004430
         N            1.810017358787     1.280527052806     0.351022201560    14.003074004430
         C           -1.603269641213     0.314800052806    -0.067882798440    12.000000000000
         C            0.805827358787     0.534755052806    -0.137388798440    12.000000000000
         C           -0.574421641213     2.491211052806     0.331988201560    12.000000000000
         C            1.007870358787    -0.773509947194    -0.629055798440    12.000000000000
         C            3.351654358787    -0.548866947194    -0.069210798440    12.000000000000
         C           -1.713482641213    -0.598113947194     0.991015201560    12.000000000000
         C           -2.658651641213     0.455170052806    -0.976479798440    12.000000000000
         C            2.284857358787    -1.306617947194    -0.580495798440    12.000000000000
         C            3.042852358787     0.736642052806     0.368772201560    12.000000000000
         C           -2.866202641213    -1.372487947194     1.124633201560    12.000000000000
         C           -3.816990641213    -0.308756947194    -0.826756798440    12.000000000000
         C           -3.947455141213    -1.260239547194     0.246112101560    12.000000000000
         C            4.750865358787    -1.095059947194    -0.000445798440    12.000000000000
         H            0.180922358787    -1.339788947194    -1.046388798440     1.007825032230
         H           -0.439740641213     2.508851052806     1.421607201560     1.007825032230
         H           -1.572614641213     2.856823052806     0.084380201560     1.007825032230
         H            0.179907358787     3.137547052806    -0.116285798440     1.007825032230
         H           -0.893250641213    -0.697193947194     1.698733201560     1.007825032230
         H           -2.551133641213     1.156932052806    -1.800415798440     1.007825032230
         H            2.462860358787    -2.313870947194    -0.955788798440     1.007825032230
         H            3.827137358787     1.380896052806     0.768415201560     1.007825032230
         H           -2.946729641213    -2.080896947194     1.946003201560     1.007825032230
         H           -4.632878641213    -0.196068947194    -1.536862798440     1.007825032230
         H            5.106853358787    -1.400191947194    -0.989767798440     1.007825032230
         H            5.442787358787    -0.342797947194     0.388659201560     1.007825032230
         H            4.804180358787    -1.971184947194     0.654119201560     1.007825032230
         H           -4.821612641213    -1.827659947194     0.331730201560     1.007825032230

  Basis Set: AUG-CC-PVTZ
    Blend: AUG-CC-PVTZ
  Basis Set: (AUG-CC-PVTZ AUX)
    Blend: AUG-CC-PVTZ-JKFIT
	 Reference Energy          =    -609.5301749687253050 [Eh]
	 Singles Energy            =      -0.0000000000000000 [Eh]
	 Same-Spin Energy          =      -0.6811213575021435 [Eh]
	 Opposite-Spin Energy      =      -2.1311095400755722 [Eh]
	 Correlation Energy        =      -2.8122308975777157 [Eh]
	 Total Energy              =    -612.3424058663030110 [Eh]

	 ================> DF-SCS-MP2 Energies <==================
	-----------------------------------------------------------
	 SCS Same-Spin Scale       =       0.3333333333333333 [-]
	 SCS Opposite-Spin Scale   =       1.2000000000000000 [-]
	 SCS Same-Spin Energy      =      -0.2270404525007145 [Eh]
	 SCS Opposite-Spin Energy  =      -2.5573314480906864 [Eh]
	 SCS Correlation Energy    =      -2.7843719005914007 [Eh]
	 SCS Total Energy          =    -612.3145468693167004 [Eh]
	-----------------------------------------------------------

  Dipole Moment: [D]
     X:    -0.4905      Y:    -1.4628      Z:    -0.1718     Total:     1.5524

*** Psi4 exiting successfully. Buy a developer a beer!
