                               Psi4 1.4a3.dev225

  ==> Input File <==

--------------------------------------------------------------------------
#psi4
#
memory 32 gb

molecule  {
0 1
  N       -0.4697210     1.1445100    -0.2216410
  N        1.7892250     1.2839290     0.3484630
  C       -1.6240620     0.3182020    -0.0704420
  C        0.7850350     0.5381570    -0.1399480
  C       -0.5952140     2.4946130     0.3294290
  C        0.9870780    -0.7701080    -0.6316150
  C        3.3308620    -0.5454650    -0.0717700
  C       -1.7342750    -0.5947120     0.9884560
  C       -2.6794440     0.4585720    -0.9790390
  C        2.2640650    -1.3032160    -0.5830550
  C        2.9297819     0.7228053     0.3409603
  C       -2.8869950    -1.3690860     1.1220740
  C       -3.8377830    -0.3053550    -0.8293160
  C       -3.9434210    -1.2230030     0.2186750
  C        4.7300730    -1.0916580    -0.0030050
  H        0.1601300    -1.3363870    -1.0489480
  H       -0.4605330     2.5122530     1.4190480
  H       -1.5934070     2.8602250     0.0818210
  H        0.1591150     3.1409490    -0.1188450
  H       -0.9140430    -0.6937920     1.6961740
  H       -2.5719260     1.1603340    -1.8029750
  H        2.4420680    -2.3104690    -0.9583480
  H        3.8063450     1.3842980     0.7658560
  H       -2.9675220    -2.0774950     1.9434440
  H       -4.6536710    -0.1926670    -1.5394220
  H        5.0860610    -1.3967900    -0.9923270
  H        5.4219950    -0.3393960     0.3861000
  H        4.7833880    -1.9677830     0.6515600
  H       -4.8424050    -1.8242580     0.3291710
units angstrom
no_reorient  #important for SAPT in psi4, default
symmetry c1  #important for SAPT in psi4, default
}

set PROPERTIES_ORIGIN ["COM"]
properties('MP2/aug-cc-pvtz', properties = ['dipole'])
--------------------------------------------------------------------------

    Molecular point group: c1
  Charge       = 0
  Multiplicity = 1
  Basis Set: AUG-CC-PVTZ
    Blend: AUG-CC-PVTZ
  Basis Set: (AUG-CC-PVTZ AUX)
    Blend: AUG-CC-PVTZ-JKFIT

    Orbital Energies [Eh]
    ---------------------

    Doubly Occupied:

       1A    -15.574361     2A    -15.548072     3A    -11.310631
       4A    -11.275989     5A    -11.266588     6A    -11.249304
       7A    -11.247047     8A    -11.242432     9A    -11.242210
      10A    -11.238547    11A    -11.238254    12A    -11.237383
      13A    -11.228204    14A    -11.226619    15A    -11.225760
      16A     -1.302201    17A     -1.234767    18A     -1.143474
      19A     -1.095329    20A     -1.036820    21A     -1.019060
      22A     -1.009951    23A     -0.951472    24A     -0.906806
      25A     -0.845343    26A     -0.840222    27A     -0.831191
      28A     -0.790393    29A     -0.722779    30A     -0.685843
      31A     -0.678933    32A     -0.649543    33A     -0.639401
      34A     -0.618745    35A     -0.606305    36A     -0.594469
      37A     -0.586944    38A     -0.580800    39A     -0.577543
      40A     -0.560952    41A     -0.544107    42A     -0.536465
      43A     -0.532646    44A     -0.514284    45A     -0.506173
      46A     -0.500389    47A     -0.499860    48A     -0.420401
      49A     -0.408600    50A     -0.382210    51A     -0.343080
      52A     -0.339394    53A     -0.284110

  @DF-RHF Final Energy:  -609.52338624094148

   => Energetics <=

    Nuclear Repulsion Energy =            921.6495163255264060
    One-Electron Energy =               -2655.0009896773030960
    Two-Electron Energy =                1123.8280871108352130
    Total Energy =                       -609.5233862409415906
  Basis Set: (AUG-CC-PVTZ AUX)
    Blend: AUG-CC-PVTZ-RI
    Molecular point group: c1

    Geometry (in Angstrom), charge = 0, multiplicity = 1:

       Center              X                  Y                   Z               Mass
    ------------   -----------------  -----------------  -----------------  -----------------
         N           -0.444843052810     1.140102828073    -0.216045354561    14.003074004430
         N            1.814102947190     1.279521828073     0.354058645439    14.003074004430
         C           -1.599184052810     0.313794828073    -0.064846354561    12.000000000000
         C            0.809912947190     0.533749828073    -0.134352354561    12.000000000000
         C           -0.570336052810     2.490205828073     0.335024645439    12.000000000000
         C            1.011955947190    -0.774515171927    -0.626019354561    12.000000000000
         C            3.355739947190    -0.549872171927    -0.066174354561    12.000000000000
         C           -1.709397052810    -0.599119171927     0.994051645439    12.000000000000
         C           -2.654566052810     0.454164828073    -0.973443354561    12.000000000000
         C            2.288942947190    -1.307623171927    -0.577459354561    12.000000000000
         C            2.954659847190     0.718398128073     0.346555945439    12.000000000000
         C           -2.862117052810    -1.373493171927     1.127669645439    12.000000000000
         C           -3.812905052810    -0.309762171927    -0.823720354561    12.000000000000
         C           -3.918543052810    -1.227410171927     0.224270645439    12.000000000000
         C            4.754950947190    -1.096065171927     0.002590645439    12.000000000000
         H            0.185007947190    -1.340794171927    -1.043352354561     1.007825032230
         H           -0.435655052810     2.507845828073     1.424643645439     1.007825032230
         H           -1.568529052810     2.855817828073     0.087416645439     1.007825032230
         H            0.183992947190     3.136541828073    -0.113249354561     1.007825032230
         H           -0.889165052810    -0.698199171927     1.701769645439     1.007825032230
         H           -2.547048052810     1.155926828073    -1.797379354561     1.007825032230
         H            2.466945947190    -2.314876171927    -0.952752354561     1.007825032230
         H            3.831222947190     1.379890828073     0.771451645439     1.007825032230
         H           -2.942644052810    -2.081902171927     1.949039645439     1.007825032230
         H           -4.628793052810    -0.197074171927    -1.533826354561     1.007825032230
         H            5.110938947190    -1.401197171927    -0.986731354561     1.007825032230
         H            5.446872947190    -0.343803171927     0.391695645439     1.007825032230
         H            4.808265947190    -1.972190171927     0.657155645439     1.007825032230
         H           -4.817527052810    -1.828665171927     0.334766645439     1.007825032230

  Basis Set: AUG-CC-PVTZ
    Blend: AUG-CC-PVTZ
  Basis Set: (AUG-CC-PVTZ AUX)
    Blend: AUG-CC-PVTZ-JKFIT
	 Reference Energy          =    -609.5233862409414769 [Eh]
	 Singles Energy            =      -0.0000000000000000 [Eh]
	 Same-Spin Energy          =      -0.6810597223668033 [Eh]
	 Opposite-Spin Energy      =      -2.1298813064133864 [Eh]
	 Correlation Energy        =      -2.8109410287801895 [Eh]
	 Total Energy              =    -612.3343272697217117 [Eh]

	 ================> DF-SCS-MP2 Energies <==================
	-----------------------------------------------------------
	 SCS Same-Spin Scale       =       0.3333333333333333 [-]
	 SCS Opposite-Spin Scale   =       1.2000000000000000 [-]
	 SCS Same-Spin Energy      =      -0.2270199074556011 [Eh]
	 SCS Opposite-Spin Energy  =      -2.5558575676960635 [Eh]
	 SCS Correlation Energy    =      -2.7828774751516647 [Eh]
	 SCS Total Energy          =    -612.3062637160930990 [Eh]
	-----------------------------------------------------------

  Dipole Moment: [D]
     X:    -0.6769      Y:    -1.4682      Z:    -0.1962     Total:     1.6286

*** Psi4 exiting successfully. Buy a developer a beer!
