                               Psi4 1.4a3.dev225

  ==> Input File <==

--------------------------------------------------------------------------
#psi4
#
memory 32 gb

molecule  {
0 1
  N       -0.4697210     1.1445100    -0.2216410
  N        1.7892250     1.2839290     0.3484630
  C       -1.6240620     0.3182020    -0.0704420
  C        0.7850350     0.5381570    -0.1399480
  C       -0.5952140     2.4946130     0.3294290
  C        0.9870780    -0.7701080    -0.6316150
  C        3.3308620    -0.5454650    -0.0717700
  C       -1.7342750    -0.5947120     0.9884560
  C       -2.6794440     0.4585720    -0.9790390
  C        2.2640650    -1.3032160    -0.5830550
  C        3.0220600     0.7400440     0.3662130
  C       -2.8869950    -1.3690860     1.1220740
  C       -3.8377830    -0.3053550    -0.8293160
  C       -3.9509829    -1.2886915     0.2936939
  C        4.7300730    -1.0916580    -0.0030050
  H        0.1601300    -1.3363870    -1.0489480
  H       -0.4605330     2.5122530     1.4190480
  H       -1.5934070     2.8602250     0.0818210
  H        0.1591150     3.1409490    -0.1188450
  H       -0.9140430    -0.6937920     1.6961740
  H       -2.5719260     1.1603340    -1.8029750
  H        2.4420680    -2.3104690    -0.9583480
  H        3.8063450     1.3842980     0.7658560
  H       -2.9675220    -2.0774950     1.9434440
  H       -4.6536710    -0.1926670    -1.5394220
  H        5.0860610    -1.3967900    -0.9923270
  H        5.4219950    -0.3393960     0.3861000
  H        4.7833880    -1.9677830     0.6515600
  H       -4.8424050    -1.8242580     0.3291710
units angstrom
no_reorient  #important for SAPT in psi4, default
symmetry c1  #important for SAPT in psi4, default
}

set PROPERTIES_ORIGIN ["COM"]
properties('MP2/aug-cc-pvtz', properties = ['dipole'])
--------------------------------------------------------------------------

    Molecular point group: c1
  Charge       = 0
  Multiplicity = 1
  Basis Set: AUG-CC-PVTZ
    Blend: AUG-CC-PVTZ
  Basis Set: (AUG-CC-PVTZ AUX)
    Blend: AUG-CC-PVTZ-JKFIT

    Orbital Energies [Eh]
    ---------------------

    Doubly Occupied:

       1A    -15.573366     2A    -15.549123     3A    -11.308808
       4A    -11.276872     5A    -11.265546     6A    -11.251468
       7A    -11.250214     8A    -11.245719     9A    -11.239522
      10A    -11.237715    11A    -11.237206    12A    -11.236529
      13A    -11.230418    14A    -11.228958    15A    -11.225180
      16A     -1.290486    17A     -1.217509    18A     -1.138471
      19A     -1.089878    20A     -1.038929    21A     -1.020443
      22A     -1.004295    23A     -0.949474    24A     -0.908404
      25A     -0.847102    26A     -0.843763    27A     -0.823467
      28A     -0.786549    29A     -0.723796    30A     -0.691249
      31A     -0.675128    32A     -0.651167    33A     -0.637552
      34A     -0.622205    35A     -0.608427    36A     -0.592937
      37A     -0.588208    38A     -0.582362    39A     -0.576823
      40A     -0.564058    41A     -0.543877    42A     -0.537265
      43A     -0.523596    44A     -0.520772    45A     -0.506668
      46A     -0.498790    47A     -0.486610    48A     -0.417954
      49A     -0.410419    50A     -0.373650    51A     -0.347524
      52A     -0.333721    53A     -0.285715

  @DF-RHF Final Energy:  -609.52206589410741

   => Energetics <=

    Nuclear Repulsion Energy =            918.6522957393784736
    One-Electron Energy =               -2649.1169512650840261
    Two-Electron Energy =                1120.9425896315979116
    Total Energy =                       -609.5220658941075271
  Basis Set: (AUG-CC-PVTZ AUX)
    Blend: AUG-CC-PVTZ-RI
    Molecular point group: c1

    Geometry (in Angstrom), charge = 0, multiplicity = 1:

       Center              X                  Y                   Z               Mass
    ------------   -----------------  -----------------  -----------------  -----------------
         N           -0.449974369551     1.143037464775    -0.222118872255    14.003074004430
         N            1.808971630449     1.282456464775     0.347985127745    14.003074004430
         C           -1.604315369551     0.316729464775    -0.070919872255    12.000000000000
         C            0.804781630449     0.536684464775    -0.140425872255    12.000000000000
         C           -0.575467369551     2.493140464775     0.328951127745    12.000000000000
         C            1.006824630449    -0.771580535225    -0.632092872255    12.000000000000
         C            3.350608630449    -0.546937535225    -0.072247872255    12.000000000000
         C           -1.714528369551    -0.596184535225     0.987978127745    12.000000000000
         C           -2.659697369551     0.457099464775    -0.979516872255    12.000000000000
         C            2.283811630449    -1.304688535225    -0.583532872255    12.000000000000
         C            3.041806630449     0.738571464775     0.365735127745    12.000000000000
         C           -2.867248369551    -1.370558535225     1.121596127745    12.000000000000
         C           -3.818036369551    -0.306827535225    -0.829793872255    12.000000000000
         C           -3.931236269551    -1.290164035225     0.293216027745    12.000000000000
         C            4.749819630449    -1.093130535225    -0.003482872255    12.000000000000
         H            0.179876630449    -1.337859535225    -1.049425872255     1.007825032230
         H           -0.440786369551     2.510780464775     1.418570127745     1.007825032230
         H           -1.573660369551     2.858752464775     0.081343127745     1.007825032230
         H            0.178861630449     3.139476464775    -0.119322872255     1.007825032230
         H           -0.894296369551    -0.695264535225     1.695696127745     1.007825032230
         H           -2.552179369551     1.158861464775    -1.803452872255     1.007825032230
         H            2.461814630449    -2.311941535225    -0.958825872255     1.007825032230
         H            3.826091630449     1.382825464775     0.765378127745     1.007825032230
         H           -2.947775369551    -2.078967535225     1.942966127745     1.007825032230
         H           -4.633924369551    -0.194139535225    -1.539899872255     1.007825032230
         H            5.105807630449    -1.398262535225    -0.992804872255     1.007825032230
         H            5.441741630449    -0.340868535225     0.385622127745     1.007825032230
         H            4.803134630449    -1.969255535225     0.651082127745     1.007825032230
         H           -4.822658369551    -1.825730535225     0.328693127745     1.007825032230

  Basis Set: AUG-CC-PVTZ
    Blend: AUG-CC-PVTZ
  Basis Set: (AUG-CC-PVTZ AUX)
    Blend: AUG-CC-PVTZ-JKFIT
	 Reference Energy          =    -609.5220658941074134 [Eh]
	 Singles Energy            =      -0.0000000000000000 [Eh]
	 Same-Spin Energy          =      -0.6809631631167027 [Eh]
	 Opposite-Spin Energy      =      -2.1315122252310488 [Eh]
	 Correlation Energy        =      -2.8124753883477513 [Eh]
	 Total Energy              =    -612.3345412824551204 [Eh]

	 ================> DF-SCS-MP2 Energies <==================
	-----------------------------------------------------------
	 SCS Same-Spin Scale       =       0.3333333333333333 [-]
	 SCS Opposite-Spin Scale   =       1.2000000000000000 [-]
	 SCS Same-Spin Energy      =      -0.2269877210389009 [Eh]
	 SCS Opposite-Spin Energy  =      -2.5578146702772586 [Eh]
	 SCS Correlation Energy    =      -2.7848023913161595 [Eh]
	 SCS Total Energy          =    -612.3068682854235476 [Eh]
	-----------------------------------------------------------

  Dipole Moment: [D]
     X:    -0.5010      Y:    -1.4577      Z:    -0.1831     Total:     1.5522

*** Psi4 exiting successfully. Buy a developer a beer!
