                               Psi4 1.4a3.dev225

  ==> Input File <==

--------------------------------------------------------------------------
#psi4
#
memory 32 gb

molecule  {
0 1
  N       -0.4697210     1.1445100    -0.2216410
  N        1.7892250     1.2839290     0.3484630
  C       -1.6240620     0.3182020    -0.0704420
  C        0.7850350     0.5381570    -0.1399480
  C       -0.5952140     2.4946130     0.3294290
  C        0.9870780    -0.7701080    -0.6316150
  C        3.3308620    -0.5454650    -0.0717700
  C       -1.7342750    -0.5947120     0.9884560
  C       -2.6794440     0.4585720    -0.9790390
  C        2.2640650    -1.3032160    -0.5830550
  C        3.0220600     0.7400440     0.3662130
  C       -2.8869950    -1.3690860     1.1220740
  C       -3.8377830    -0.3053550    -0.8293160
  C       -3.9434210    -1.2230030     0.2186750
  C        4.7300730    -1.0916580    -0.0030050
  H        0.1601300    -1.3363870    -1.0489480
  H       -0.4605330     2.5122530     1.4190480
  H       -1.5934070     2.8602250     0.0818210
  H        0.1591150     3.1409490    -0.1188450
  H       -0.9140430    -0.6937920     1.6961740
  H       -2.5699489     1.1732386    -1.8181263
  H        2.4420680    -2.3104690    -0.9583480
  H        3.8063450     1.3842980     0.7658560
  H       -2.9675220    -2.0774950     1.9434440
  H       -4.6536710    -0.1926670    -1.5394220
  H        5.0860610    -1.3967900    -0.9923270
  H        5.4219950    -0.3393960     0.3861000
  H        4.7833880    -1.9677830     0.6515600
  H       -4.8424050    -1.8242580     0.3291710
units angstrom
no_reorient  #important for SAPT in psi4, default
symmetry c1  #important for SAPT in psi4, default
}

set PROPERTIES_ORIGIN ["COM"]
properties('MP2/aug-cc-pvtz', properties = ['dipole'])
--------------------------------------------------------------------------

    Molecular point group: c1
  Charge       = 0
  Multiplicity = 1
  Basis Set: AUG-CC-PVTZ
    Blend: AUG-CC-PVTZ
  Basis Set: (AUG-CC-PVTZ AUX)
    Blend: AUG-CC-PVTZ-JKFIT

    Orbital Energies [Eh]
    ---------------------

    Doubly Occupied:

       1A    -15.572816     2A    -15.549004     3A    -11.308608
       4A    -11.275573     5A    -11.265577     6A    -11.250264
       7A    -11.245147     8A    -11.242170     9A    -11.242002
      10A    -11.239104    11A    -11.238231    12A    -11.237863
      13A    -11.230385    14A    -11.228908    15A    -11.225178
      16A     -1.290170    17A     -1.217404    18A     -1.142302
      19A     -1.089936    20A     -1.037942    21A     -1.018343
      22A     -1.008712    23A     -0.949370    24A     -0.907435
      25A     -0.846994    26A     -0.839190    27A     -0.828322
      28A     -0.785522    29A     -0.724399    30A     -0.684305
      31A     -0.674299    32A     -0.648233    33A     -0.637821
      34A     -0.622550    35A     -0.609493    36A     -0.593455
      37A     -0.587321    38A     -0.583613    39A     -0.576624
      40A     -0.561590    41A     -0.543261    42A     -0.534154
      43A     -0.523362    44A     -0.514478    45A     -0.507527
      46A     -0.499548    47A     -0.498810    48A     -0.418077
      49A     -0.410338    50A     -0.373643    51A     -0.342951
      52A     -0.339059    53A     -0.286535

  @DF-RHF Final Energy:  -609.53306504119530

   => Energetics <=

    Nuclear Repulsion Energy =            919.5022515895252582
    One-Electron Energy =               -2650.8548009846499554
    Two-Electron Energy =                1121.8194843539292833
    Total Energy =                       -609.5330650411954139
  Basis Set: (AUG-CC-PVTZ AUX)
    Blend: AUG-CC-PVTZ-RI
    Molecular point group: c1

    Geometry (in Angstrom), charge = 0, multiplicity = 1:

       Center              X                  Y                   Z               Mass
    ------------   -----------------  -----------------  -----------------  -----------------
         N           -0.450442456490     1.138993022133    -0.217497851979    14.003074004430
         N            1.808503543510     1.278412022133     0.352606148021    14.003074004430
         C           -1.604783456490     0.312685022133    -0.066298851979    12.000000000000
         C            0.804313543510     0.532640022133    -0.135804851979    12.000000000000
         C           -0.575935456490     2.489096022133     0.333572148021    12.000000000000
         C            1.006356543510    -0.775624977867    -0.627471851979    12.000000000000
         C            3.350140543510    -0.550981977867    -0.067626851979    12.000000000000
         C           -1.714996456490    -0.600228977867     0.992599148021    12.000000000000
         C           -2.660165456490     0.453055022133    -0.974895851979    12.000000000000
         C            2.283343543510    -1.308732977867    -0.578911851979    12.000000000000
         C            3.041338543510     0.734527022133     0.370356148021    12.000000000000
         C           -2.867716456490    -1.374602977867     1.126217148021    12.000000000000
         C           -3.818504456490    -0.310871977867    -0.825172851979    12.000000000000
         C           -3.924142456490    -1.228519977867     0.222818148021    12.000000000000
         C            4.749351543510    -1.097174977867     0.001138148021    12.000000000000
         H            0.179408543510    -1.341903977867    -1.044804851979     1.007825032230
         H           -0.441254456490     2.506736022133     1.423191148021     1.007825032230
         H           -1.574128456490     2.854708022133     0.085964148021     1.007825032230
         H            0.178393543510     3.135432022133    -0.114701851979     1.007825032230
         H           -0.894764456490    -0.699308977867     1.700317148021     1.007825032230
         H           -2.550670356490     1.167721622133    -1.813983151979     1.007825032230
         H            2.461346543510    -2.315985977867    -0.954204851979     1.007825032230
         H            3.825623543510     1.378781022133     0.769999148021     1.007825032230
         H           -2.948243456490    -2.083011977867     1.947587148021     1.007825032230
         H           -4.634392456490    -0.198183977867    -1.535278851979     1.007825032230
         H            5.105339543510    -1.402306977867    -0.988183851979     1.007825032230
         H            5.441273543510    -0.344912977867     0.390243148021     1.007825032230
         H            4.802666543510    -1.973299977867     0.655703148021     1.007825032230
         H           -4.823126456490    -1.829774977867     0.333314148021     1.007825032230

  Basis Set: AUG-CC-PVTZ
    Blend: AUG-CC-PVTZ
  Basis Set: (AUG-CC-PVTZ AUX)
    Blend: AUG-CC-PVTZ-JKFIT
	 Reference Energy          =    -609.5330650411953002 [Eh]
	 Singles Energy            =      -0.0000000000000000 [Eh]
	 Same-Spin Energy          =      -0.6811854681225996 [Eh]
	 Opposite-Spin Energy      =      -2.1309091110214262 [Eh]
	 Correlation Energy        =      -2.8120945791440257 [Eh]
	 Total Energy              =    -612.3451596203393592 [Eh]

	 ================> DF-SCS-MP2 Energies <==================
	-----------------------------------------------------------
	 SCS Same-Spin Scale       =       0.3333333333333333 [-]
	 SCS Opposite-Spin Scale   =       1.2000000000000000 [-]
	 SCS Same-Spin Energy      =      -0.2270618227075332 [Eh]
	 SCS Opposite-Spin Energy  =      -2.5570909332257115 [Eh]
	 SCS Correlation Energy    =      -2.7841527559332446 [Eh]
	 SCS Total Energy          =    -612.3172177971285919 [Eh]
	-----------------------------------------------------------

  Dipole Moment: [D]
     X:    -0.4947      Y:    -1.4663      Z:    -0.1635     Total:     1.5561

*** Psi4 exiting successfully. Buy a developer a beer!
