                               Psi4 1.4a2.dev612

  ==> Input File <==

--------------------------------------------------------------------------
#psi4
#
memory 32 gb

molecule  {
0 1
  C        0.0000050    -0.0010510     1.5142370
  C       -1.2520500    -0.0616820     0.6690270
  C        1.2520490     0.0607460     0.6690880
  C       -1.4240560    -1.1040230    -0.2532470
  C        1.4240080     1.1043180    -0.2518010
  C       -2.1165568     1.0746500     0.5681877
  C        2.2520300    -0.9115710     0.7784920
  C       -2.5726140    -1.1747650    -1.0400080
  C        2.5725550     1.1761430    -1.0384820
  C       -3.4033600     0.8449620    -0.0099780
  C        3.4034060    -0.8448920    -0.0111060
  C       -3.5670250    -0.1989710    -0.9208610
  C        3.5670250     0.2002580    -0.9206030
  H       -0.0499850     0.8761900     2.1725100
  H        0.0500080    -0.8791980     2.1713010
  H       -0.6441500    -1.8566960    -0.3590190
  H        0.6440540     1.8570770    -0.3565980
  H       -2.1304810     1.7254050     1.4919990
  H        2.1305710    -1.7273750     1.4897110
  H       -2.6925720    -1.9901910    -1.7497850
  H        2.6924780     1.9925180    -1.7471720
  H       -4.1706330     1.6097110     0.0875230
  H        4.1707290    -1.6097160     0.0854040
  H       -4.4617180    -0.2525870    -1.5364500
  H        4.4617050     0.2547150    -1.5361360
units angstrom
no_reorient  #important for SAPT in psi4, default
symmetry c1  #important for SAPT in psi4, default
}

set PROPERTIES_ORIGIN ["COM"]
properties('MP2/aug-cc-pvtz', properties = ['dipole'])
--------------------------------------------------------------------------

    Molecular point group: c1
  Charge       = 0
  Multiplicity = 1
  Basis Set: AUG-CC-PVTZ
    Blend: AUG-CC-PVTZ
  Basis Set: (AUG-CC-PVTZ AUX)
    Blend: AUG-CC-PVTZ-JKFIT

    Orbital Energies [Eh]
    ---------------------

    Doubly Occupied:

       1A    -11.250958     2A    -11.243821     3A    -11.243024
       4A    -11.240796     5A    -11.239889     6A    -11.238329
       7A    -11.236001     8A    -11.235271     9A    -11.232936
      10A    -11.232294    11A    -11.232189    12A    -11.230612
      13A    -11.230106    14A     -1.160685    15A     -1.143275
      16A     -1.067223    17A     -1.011683    18A     -1.008340
      19A     -1.005756    20A     -0.925730    21A     -0.828309
      22A     -0.821728    23A     -0.812250    24A     -0.781251
      25A     -0.696492    26A     -0.685777    27A     -0.641817
      28A     -0.635252    29A     -0.633375    30A     -0.611421
      31A     -0.583640    32A     -0.582550    33A     -0.574182
      34A     -0.564814    35A     -0.542704    36A     -0.510569
      37A     -0.494654    38A     -0.491674    39A     -0.482979
      40A     -0.474793    41A     -0.473810    42A     -0.340100
      43A     -0.336452    44A     -0.334234    45A     -0.312064

  @DF-RHF Final Energy:  -499.41560812529588

   => Energetics <=

    Nuclear Repulsion Energy =            693.1370917002175247
    One-Electron Energy =               -2049.7937776758612927
    Two-Electron Energy =                 857.2410778503478923
    Total Energy =                       -499.4156081252958757
  Basis Set: (AUG-CC-PVTZ AUX)
    Blend: AUG-CC-PVTZ-RI
    Molecular point group: c1

    Geometry (in Angstrom), charge = 0, multiplicity = 1:

       Center              X                  Y                   Z               Mass
    ------------   -----------------  -----------------  -----------------  -----------------
         C           -0.009662218401    -0.012766569959     1.530595086809    12.000000000000
         C           -1.261717218401    -0.073397569959     0.685385086809    12.000000000000
         C            1.242381781599     0.049030430041     0.685446086809    12.000000000000
         C           -1.433723218401    -1.115738569959    -0.236888913191    12.000000000000
         C            1.414340781599     1.092602430041    -0.235442913191    12.000000000000
         C           -2.126224018401     1.062934430041     0.584545786809    12.000000000000
         C            2.242362781599    -0.923286569959     0.794850086809    12.000000000000
         C           -2.582281218401    -1.186480569959    -1.023649913191    12.000000000000
         C            2.562887781599     1.164427430041    -1.022123913191    12.000000000000
         C           -3.413027218401     0.833246430041     0.006380086809    12.000000000000
         C            3.393738781599    -0.856607569959     0.005252086809    12.000000000000
         C           -3.576692218401    -0.210686569959    -0.904502913191    12.000000000000
         C            3.557357781599     0.188542430041    -0.904244913191    12.000000000000
         H           -0.059652218401     0.864474430041     2.188868086809     1.007825032230
         H            0.040340781599    -0.890913569959     2.187659086809     1.007825032230
         H           -0.653817218401    -1.868411569959    -0.342660913191     1.007825032230
         H            0.634386781599     1.845361430041    -0.340239913191     1.007825032230
         H           -2.140148218401     1.713689430041     1.508357086809     1.007825032230
         H            2.120903781599    -1.739090569959     1.506069086809     1.007825032230
         H           -2.702239218401    -2.001906569959    -1.733426913191     1.007825032230
         H            2.682810781599     1.980802430041    -1.730813913191     1.007825032230
         H           -4.180300218401     1.597995430041     0.103881086809     1.007825032230
         H            4.161061781599    -1.621431569959     0.101762086809     1.007825032230
         H           -4.471385218401    -0.264302569959    -1.520091913191     1.007825032230
         H            4.452037781599     0.242999430041    -1.519777913191     1.007825032230

  Basis Set: AUG-CC-PVTZ
    Blend: AUG-CC-PVTZ
  Basis Set: (AUG-CC-PVTZ AUX)
    Blend: AUG-CC-PVTZ-JKFIT
	 Reference Energy          =    -499.4156081252958757 [Eh]
	 Singles Energy            =      -0.0000000000000000 [Eh]
	 Same-Spin Energy          =      -0.5656715891244785 [Eh]
	 Opposite-Spin Energy      =      -1.7828780212819964 [Eh]
	 Correlation Energy        =      -2.3485496104064749 [Eh]
	 Total Energy              =    -501.7641577357023266 [Eh]

	 ================> DF-SCS-MP2 Energies <==================
	-----------------------------------------------------------
	 SCS Same-Spin Scale       =       0.3333333333333333 [-]
	 SCS Opposite-Spin Scale   =       1.2000000000000000 [-]
	 SCS Same-Spin Energy      =      -0.1885571963748262 [Eh]
	 SCS Opposite-Spin Energy  =      -2.1394536255383954 [Eh]
	 SCS Correlation Energy    =      -2.3280108219132214 [Eh]
	 SCS Total Energy          =    -501.7436189472090859 [Eh]
	-----------------------------------------------------------

  Dipole Moment: [D]
     X:    -0.1071      Y:    -0.2393      Z:     0.0792     Total:     0.2739

*** Psi4 exiting successfully. Buy a developer a beer!
