                               Psi4 1.4a2.dev612

  ==> Input File <==

--------------------------------------------------------------------------
#psi4
#
memory 32 gb

molecule  {
0 1
  C        0.0000050    -0.0010510     1.5142370
  C       -1.2520500    -0.0616820     0.6690270
  C        1.2520490     0.0607460     0.6690880
  C       -1.4240560    -1.1040230    -0.2532470
  C        1.4240080     1.1043180    -0.2518010
  C       -2.1842644     0.9926015     0.6739409
  C        2.2520300    -0.9115710     0.7784920
  C       -2.5726140    -1.1747650    -1.0400080
  C        2.5725550     1.1761430    -1.0384820
  C       -3.4033600     0.8449620    -0.0099780
  C        3.4034060    -0.8448920    -0.0111060
  C       -3.5670250    -0.1989710    -0.9208610
  C        3.5670250     0.2002580    -0.9206030
  H       -0.0499850     0.8761900     2.1725100
  H        0.0500080    -0.8791980     2.1713010
  H       -0.6441500    -1.8566960    -0.3590190
  H        0.6440540     1.8570770    -0.3565980
  H       -2.1304810     1.7254050     1.4919990
  H        2.1305710    -1.7273750     1.4897110
  H       -2.6925720    -1.9901910    -1.7497850
  H        2.6924780     1.9925180    -1.7471720
  H       -4.1706330     1.6097110     0.0875230
  H        4.1707290    -1.6097160     0.0854040
  H       -4.4617180    -0.2525870    -1.5364500
  H        4.4617050     0.2547150    -1.5361360
units angstrom
no_reorient  #important for SAPT in psi4, default
symmetry c1  #important for SAPT in psi4, default
}

set PROPERTIES_ORIGIN ["COM"]
properties('MP2/aug-cc-pvtz', properties = ['dipole'])
--------------------------------------------------------------------------

    Molecular point group: c1
  Charge       = 0
  Multiplicity = 1
  Basis Set: AUG-CC-PVTZ
    Blend: AUG-CC-PVTZ
  Basis Set: (AUG-CC-PVTZ AUX)
    Blend: AUG-CC-PVTZ-JKFIT

    Orbital Energies [Eh]
    ---------------------

    Doubly Occupied:

       1A    -11.244956     2A    -11.242806     3A    -11.238264
       4A    -11.237929     5A    -11.237086     6A    -11.236108
       7A    -11.235523     8A    -11.234750     9A    -11.232875
      10A    -11.232523    11A    -11.232382    12A    -11.230856
      13A    -11.230521    14A     -1.161416    15A     -1.144395
      16A     -1.066944    17A     -1.012183    18A     -1.010499
      19A     -1.006467    20A     -0.925980    21A     -0.828916
      22A     -0.822874    23A     -0.813511    24A     -0.782749
      25A     -0.697576    26A     -0.687397    27A     -0.642742
      28A     -0.636332    29A     -0.633808    30A     -0.614783
      31A     -0.583774    32A     -0.583663    33A     -0.573632
      34A     -0.569148    35A     -0.543603    36A     -0.510155
      37A     -0.495475    38A     -0.494175    39A     -0.482454
      40A     -0.480018    41A     -0.475542    42A     -0.340585
      43A     -0.335680    44A     -0.334080    45A     -0.313514

  @DF-RHF Final Energy:  -499.43716909234774

   => Energetics <=

    Nuclear Repulsion Energy =            693.4449024467444360
    One-Electron Energy =               -2050.4228464562015688
    Two-Electron Energy =                 857.5407749171093883
    Total Energy =                       -499.4371690923477445
  Basis Set: (AUG-CC-PVTZ AUX)
    Blend: AUG-CC-PVTZ-RI
    Molecular point group: c1

    Geometry (in Angstrom), charge = 0, multiplicity = 1:

       Center              X                  Y                   Z               Mass
    ------------   -----------------  -----------------  -----------------  -----------------
         C           -0.004828662882    -0.006909236661     1.523045506502    12.000000000000
         C           -1.256883662882    -0.067540236661     0.677835506502    12.000000000000
         C            1.247215337118     0.054887763339     0.677896506502    12.000000000000
         C           -1.428889662882    -1.109881236661    -0.244438493498    12.000000000000
         C            1.419174337118     1.098459763339    -0.242992493498    12.000000000000
         C           -2.189098062882     0.986743263339     0.682749406502    12.000000000000
         C            2.247196337118    -0.917429236661     0.787300506502    12.000000000000
         C           -2.577447662882    -1.180623236661    -1.031199493498    12.000000000000
         C            2.567721337118     1.170284763339    -1.029673493498    12.000000000000
         C           -3.408193662882     0.839103763339    -0.001169493498    12.000000000000
         C            3.398572337118    -0.850750236661    -0.002297493498    12.000000000000
         C           -3.571858662882    -0.204829236661    -0.912052493498    12.000000000000
         C            3.562191337118     0.194399763339    -0.911794493498    12.000000000000
         H           -0.054818662882     0.870331763339     2.181318506502     1.007825032230
         H            0.045174337118    -0.885056236661     2.180109506502     1.007825032230
         H           -0.648983662882    -1.862554236661    -0.350210493498     1.007825032230
         H            0.639220337118     1.851218763339    -0.347789493498     1.007825032230
         H           -2.135314662882     1.719546763339     1.500807506502     1.007825032230
         H            2.125737337118    -1.733233236661     1.498519506502     1.007825032230
         H           -2.697405662882    -1.996049236661    -1.740976493498     1.007825032230
         H            2.687644337118     1.986659763339    -1.738363493498     1.007825032230
         H           -4.175466662882     1.603852763339     0.096331506502     1.007825032230
         H            4.165895337118    -1.615574236661     0.094212506502     1.007825032230
         H           -4.466551662882    -0.258445236661    -1.527641493498     1.007825032230
         H            4.456871337118     0.248856763339    -1.527327493498     1.007825032230

  Basis Set: AUG-CC-PVTZ
    Blend: AUG-CC-PVTZ
  Basis Set: (AUG-CC-PVTZ AUX)
    Blend: AUG-CC-PVTZ-JKFIT
	 Reference Energy          =    -499.4371690923477445 [Eh]
	 Singles Energy            =      -0.0000000000000000 [Eh]
	 Same-Spin Energy          =      -0.5645903337582667 [Eh]
	 Opposite-Spin Energy      =      -1.7797146476577026 [Eh]
	 Correlation Energy        =      -2.3443049814159691 [Eh]
	 Total Energy              =    -501.7814740737637180 [Eh]

	 ================> DF-SCS-MP2 Energies <==================
	-----------------------------------------------------------
	 SCS Same-Spin Scale       =       0.3333333333333333 [-]
	 SCS Opposite-Spin Scale   =       1.2000000000000000 [-]
	 SCS Same-Spin Energy      =      -0.1881967779194222 [Eh]
	 SCS Opposite-Spin Energy  =      -2.1356575771892432 [Eh]
	 SCS Correlation Energy    =      -2.3238543551086654 [Eh]
	 SCS Total Energy          =    -501.7610234474564095 [Eh]
	-----------------------------------------------------------

  Dipole Moment: [D]
     X:    -0.0525      Y:    -0.0829      Z:     0.1018     Total:     0.1414

*** Psi4 exiting successfully. Buy a developer a beer!
