                               Psi4 1.4a2.dev612

  ==> Input File <==

--------------------------------------------------------------------------
#psi4
#
memory 32 gb

molecule  {
0 1
  C        0.0000050    -0.0010510     1.5142370
  C       -1.2520500    -0.0616820     0.6690270
  C        1.2520490     0.0607460     0.6690880
  C       -1.4240560    -1.1040230    -0.2532470
  C        1.4240080     1.1043180    -0.2518010
  C       -2.1616952     1.0199510     0.6386898
  C        2.2520300    -0.9115710     0.7784920
  C       -2.5726140    -1.1747650    -1.0400080
  C        2.5725550     1.1761430    -1.0384820
  C       -3.4033600     0.8449620    -0.0099780
  C        3.4034060    -0.8448920    -0.0111060
  C       -3.5670250    -0.1989710    -0.9208610
  C        3.5670250     0.2002580    -0.9206030
  H       -0.0499850     0.8761900     2.1725100
  H        0.0500080    -0.8791980     2.1713010
  H       -0.6441500    -1.8566960    -0.3590190
  H        0.6440540     1.8570770    -0.3565980
  H       -2.1304810     1.7254050     1.4919990
  H        2.1305710    -1.7273750     1.4897110
  H       -2.6925720    -1.9901910    -1.7497850
  H        2.6924780     1.9925180    -1.7471720
  H       -4.1706330     1.6097110     0.0875230
  H        4.1707290    -1.6097160     0.0854040
  H       -4.4617180    -0.2525870    -1.5364500
  H        4.4617050     0.2547150    -1.5361360
units angstrom
no_reorient  #important for SAPT in psi4, default
symmetry c1  #important for SAPT in psi4, default
}

set PROPERTIES_ORIGIN ["COM"]
properties('MP2/aug-cc-pvtz', properties = ['dipole'])
--------------------------------------------------------------------------

    Molecular point group: c1
  Charge       = 0
  Multiplicity = 1
  Basis Set: AUG-CC-PVTZ
    Blend: AUG-CC-PVTZ
  Basis Set: (AUG-CC-PVTZ AUX)
    Blend: AUG-CC-PVTZ-JKFIT

    Orbital Energies [Eh]
    ---------------------

    Doubly Occupied:

       1A    -11.246557     2A    -11.242858     3A    -11.239746
       4A    -11.238042     5A    -11.238035     6A    -11.236131
       7A    -11.236068     8A    -11.235441     9A    -11.232880
      10A    -11.232433    11A    -11.232345    12A    -11.230782
      13A    -11.230390    14A     -1.161209    15A     -1.144089
      16A     -1.067012    17A     -1.011971    18A     -1.009957
      19A     -1.006314    20A     -0.925927    21A     -0.828734
      22A     -0.822549    23A     -0.813148    24A     -0.782357
      25A     -0.697202    26A     -0.686935    27A     -0.642497
      28A     -0.635988    29A     -0.633681    30A     -0.613890
      31A     -0.583741    32A     -0.583263    33A     -0.573837
      34A     -0.568034    35A     -0.543308    36A     -0.510355
      37A     -0.495293    38A     -0.493300    39A     -0.482663
      40A     -0.478672    41A     -0.475191    42A     -0.340478
      43A     -0.335859    44A     -0.334130    45A     -0.313070

  @DF-RHF Final Energy:  -499.43160997658043

   => Energetics <=

    Nuclear Repulsion Energy =            693.3928514286828886
    One-Electron Energy =               -2050.3161983979307479
    Two-Electron Energy =                 857.4917369926674837
    Total Energy =                       -499.4316099765803756
  Basis Set: (AUG-CC-PVTZ AUX)
    Blend: AUG-CC-PVTZ-RI
    Molecular point group: c1

    Geometry (in Angstrom), charge = 0, multiplicity = 1:

       Center              X                  Y                   Z               Mass
    ------------   -----------------  -----------------  -----------------  -----------------
         C           -0.006439848055    -0.008861681094     1.525562035651    12.000000000000
         C           -1.258494848055    -0.069492681094     0.680352035651    12.000000000000
         C            1.245604151945     0.052935318906     0.680413035651    12.000000000000
         C           -1.430500848055    -1.111833681094    -0.241921964349    12.000000000000
         C            1.417563151945     1.096507318906    -0.240475964349    12.000000000000
         C           -2.168140048055     1.012140318906     0.650014835651    12.000000000000
         C            2.245585151945    -0.919381681094     0.789817035651    12.000000000000
         C           -2.579058848055    -1.182575681094    -1.028682964349    12.000000000000
         C            2.566110151945     1.168332318906    -1.027156964349    12.000000000000
         C           -3.409804848055     0.837151318906     0.001347035651    12.000000000000
         C            3.396961151945    -0.852702681094     0.000219035651    12.000000000000
         C           -3.573469848055    -0.206781681094    -0.909535964349    12.000000000000
         C            3.560580151945     0.192447318906    -0.909277964349    12.000000000000
         H           -0.056429848055     0.868379318906     2.183835035651     1.007825032230
         H            0.043563151945    -0.887008681094     2.182626035651     1.007825032230
         H           -0.650594848055    -1.864506681094    -0.347693964349     1.007825032230
         H            0.637609151945     1.849266318906    -0.345272964349     1.007825032230
         H           -2.136925848055     1.717594318906     1.503324035651     1.007825032230
         H            2.124126151945    -1.735185681094     1.501036035651     1.007825032230
         H           -2.699016848055    -1.998001681094    -1.738459964349     1.007825032230
         H            2.686033151945     1.984707318906    -1.735846964349     1.007825032230
         H           -4.177077848055     1.601900318906     0.098848035651     1.007825032230
         H            4.164284151945    -1.617526681094     0.096729035651     1.007825032230
         H           -4.468162848055    -0.260397681094    -1.525124964349     1.007825032230
         H            4.455260151945     0.246904318906    -1.524810964349     1.007825032230

  Basis Set: AUG-CC-PVTZ
    Blend: AUG-CC-PVTZ
  Basis Set: (AUG-CC-PVTZ AUX)
    Blend: AUG-CC-PVTZ-JKFIT
	 Reference Energy          =    -499.4316099765804324 [Eh]
	 Singles Energy            =      -0.0000000000000000 [Eh]
	 Same-Spin Energy          =      -0.5648885071306600 [Eh]
	 Opposite-Spin Energy      =      -1.7805525409770062 [Eh]
	 Correlation Energy        =      -2.3454410481076664 [Eh]
	 Total Energy              =    -501.7770510246880917 [Eh]

	 ================> DF-SCS-MP2 Energies <==================
	-----------------------------------------------------------
	 SCS Same-Spin Scale       =       0.3333333333333333 [-]
	 SCS Opposite-Spin Scale   =       1.2000000000000000 [-]
	 SCS Same-Spin Energy      =      -0.1882961690435533 [Eh]
	 SCS Opposite-Spin Energy  =      -2.1366630491724075 [Eh]
	 SCS Correlation Energy    =      -2.3249592182159606 [Eh]
	 SCS Total Energy          =    -501.7565691947963842 [Eh]
	-----------------------------------------------------------

  Dipole Moment: [D]
     X:    -0.0704      Y:    -0.1272      Z:     0.0998     Total:     0.1763

*** Psi4 exiting successfully. Buy a developer a beer!
