                               Psi4 1.4a2.dev612

  ==> Input File <==

--------------------------------------------------------------------------
#psi4
#
memory 32 gb

molecule  {
0 1
  C        0.0000050    -0.0010510     1.5142370
  C       -1.2520500    -0.0616820     0.6690270
  C        1.2520490     0.0607460     0.6690880
  C       -1.4240560    -1.1040230    -0.2532470
  C        1.4240080     1.1043180    -0.2518010
  C       -2.2294028     0.9379025     0.7444430
  C        2.2520300    -0.9115710     0.7784920
  C       -2.5726140    -1.1747650    -1.0400080
  C        2.5725550     1.1761430    -1.0384820
  C       -3.4033600     0.8449620    -0.0099780
  C        3.4034060    -0.8448920    -0.0111060
  C       -3.5670250    -0.1989710    -0.9208610
  C        3.5670250     0.2002580    -0.9206030
  H       -0.0499850     0.8761900     2.1725100
  H        0.0500080    -0.8791980     2.1713010
  H       -0.6441500    -1.8566960    -0.3590190
  H        0.6440540     1.8570770    -0.3565980
  H       -2.1304810     1.7254050     1.4919990
  H        2.1305710    -1.7273750     1.4897110
  H       -2.6925720    -1.9901910    -1.7497850
  H        2.6924780     1.9925180    -1.7471720
  H       -4.1706330     1.6097110     0.0875230
  H        4.1707290    -1.6097160     0.0854040
  H       -4.4617180    -0.2525870    -1.5364500
  H        4.4617050     0.2547150    -1.5361360
units angstrom
no_reorient  #important for SAPT in psi4, default
symmetry c1  #important for SAPT in psi4, default
}

set PROPERTIES_ORIGIN ["COM"]
properties('MP2/aug-cc-pvtz', properties = ['dipole'])
--------------------------------------------------------------------------

    Molecular point group: c1
  Charge       = 0
  Multiplicity = 1
  Basis Set: AUG-CC-PVTZ
    Blend: AUG-CC-PVTZ
  Basis Set: (AUG-CC-PVTZ AUX)
    Blend: AUG-CC-PVTZ-JKFIT

    Orbital Energies [Eh]
    ---------------------

    Doubly Occupied:

       1A    -11.243067     2A    -11.242775     3A    -11.237802
       4A    -11.236530     5A    -11.236215     6A    -11.235969
       7A    -11.235694     8A    -11.233152     9A    -11.232917
      10A    -11.232587    11A    -11.232491    12A    -11.230937
      13A    -11.230787    14A     -1.161667    15A     -1.144790
      16A     -1.066871    17A     -1.012585    18A     -1.011036
      19A     -1.006693    20A     -0.926025    21A     -0.829121
      22A     -0.823361    23A     -0.813995    24A     -0.783158
      25A     -0.698132    26A     -0.687944    27A     -0.642946
      28A     -0.636893    29A     -0.633981    30A     -0.615893
      31A     -0.584297    32A     -0.583764    33A     -0.573150
      34A     -0.570551    35A     -0.544157    36A     -0.509623
      37A     -0.495869    38A     -0.495515    39A     -0.482086
      40A     -0.481689    41A     -0.475748    42A     -0.340594
      43A     -0.335465    44A     -0.333995    45A     -0.314259

  @DF-RHF Final Energy:  -499.44353017621671

   => Energetics <=

    Nuclear Repulsion Energy =            693.3885107714145306
    One-Electron Energy =               -2050.3105233866240269
    Two-Electron Energy =                 857.4784824389927280
    Total Energy =                       -499.4435301762167683
  Basis Set: (AUG-CC-PVTZ AUX)
    Blend: AUG-CC-PVTZ-RI
    Molecular point group: c1

    Geometry (in Angstrom), charge = 0, multiplicity = 1:

       Center              X                  Y                   Z               Mass
    ------------   -----------------  -----------------  -----------------  -----------------
         C           -0.001606292535    -0.003004347795     1.518012455344    12.000000000000
         C           -1.253661292535    -0.063635347795     0.672802455344    12.000000000000
         C            1.250437707465     0.058792652205     0.672863455344    12.000000000000
         C           -1.425667292535    -1.105976347795    -0.249471544656    12.000000000000
         C            1.422396707465     1.102364652205    -0.248025544656    12.000000000000
         C           -2.231014092535     0.935949152205     0.748218455344    12.000000000000
         C            2.250418707465    -0.913524347795     0.782267455344    12.000000000000
         C           -2.574225292535    -1.176718347795    -1.036232544656    12.000000000000
         C            2.570943707465     1.174189652205    -1.034706544656    12.000000000000
         C           -3.404971292535     0.843008652205    -0.006202544656    12.000000000000
         C            3.401794707465    -0.846845347795    -0.007330544656    12.000000000000
         C           -3.568636292535    -0.200924347795    -0.917085544656    12.000000000000
         C            3.565413707465     0.198304652205    -0.916827544656    12.000000000000
         H           -0.051596292535     0.874236652205     2.176285455344     1.007825032230
         H            0.048396707465    -0.881151347795     2.175076455344     1.007825032230
         H           -0.645761292535    -1.858649347795    -0.355243544656     1.007825032230
         H            0.642442707465     1.855123652205    -0.352822544656     1.007825032230
         H           -2.132092292535     1.723451652205     1.495774455344     1.007825032230
         H            2.128959707465    -1.729328347795     1.493486455344     1.007825032230
         H           -2.694183292535    -1.992144347795    -1.746009544656     1.007825032230
         H            2.690866707465     1.990564652205    -1.743396544656     1.007825032230
         H           -4.172244292535     1.607757652205     0.091298455344     1.007825032230
         H            4.169117707465    -1.611669347795     0.089179455344     1.007825032230
         H           -4.463329292535    -0.254540347795    -1.532674544656     1.007825032230
         H            4.460093707465     0.252761652205    -1.532360544656     1.007825032230

  Basis Set: AUG-CC-PVTZ
    Blend: AUG-CC-PVTZ
  Basis Set: (AUG-CC-PVTZ AUX)
    Blend: AUG-CC-PVTZ-JKFIT
	 Reference Energy          =    -499.4435301762167114 [Eh]
	 Singles Energy            =      -0.0000000000000000 [Eh]
	 Same-Spin Energy          =      -0.5642079503436090 [Eh]
	 Opposite-Spin Energy      =      -1.7787267785553449 [Eh]
	 Correlation Energy        =      -2.3429347288989542 [Eh]
	 Total Energy              =    -501.7864649051156789 [Eh]

	 ================> DF-SCS-MP2 Energies <==================
	-----------------------------------------------------------
	 SCS Same-Spin Scale       =       0.3333333333333333 [-]
	 SCS Opposite-Spin Scale   =       1.2000000000000000 [-]
	 SCS Same-Spin Energy      =      -0.1880693167812030 [Eh]
	 SCS Opposite-Spin Energy  =      -2.1344721342664137 [Eh]
	 SCS Correlation Energy    =      -2.3225414510476168 [Eh]
	 SCS Total Energy          =    -501.7660716272643526 [Eh]
	-----------------------------------------------------------

  Dipole Moment: [D]
     X:    -0.0175      Y:    -0.0193      Z:     0.0881     Total:     0.0919

*** Psi4 exiting successfully. Buy a developer a beer!
