                               Psi4 1.4a2.dev612

  ==> Input File <==

--------------------------------------------------------------------------
#psi4
#
memory 32 gb

molecule  {
0 1
  C        0.0000050    -0.0010510     1.5142370
  C       -1.2520500    -0.0616820     0.6690270
  C        1.2520490     0.0607460     0.6690880
  C       -1.4240560    -1.1040230    -0.2532470
  C        1.4240080     1.1043180    -0.2518010
  C       -2.1391260     1.0473005     0.6034388
  C        2.2520300    -0.9115710     0.7784920
  C       -2.5726140    -1.1747650    -1.0400080
  C        2.5725550     1.1761430    -1.0384820
  C       -3.4033600     0.8449620    -0.0099780
  C        3.4034060    -0.8448920    -0.0111060
  C       -3.5670250    -0.1989710    -0.9208610
  C        3.5670250     0.2002580    -0.9206030
  H       -0.0499850     0.8761900     2.1725100
  H        0.0500080    -0.8791980     2.1713010
  H       -0.6441500    -1.8566960    -0.3590190
  H        0.6440540     1.8570770    -0.3565980
  H       -2.1304810     1.7254050     1.4919990
  H        2.1305710    -1.7273750     1.4897110
  H       -2.6925720    -1.9901910    -1.7497850
  H        2.6924780     1.9925180    -1.7471720
  H       -4.1706330     1.6097110     0.0875230
  H        4.1707290    -1.6097160     0.0854040
  H       -4.4617180    -0.2525870    -1.5364500
  H        4.4617050     0.2547150    -1.5361360
units angstrom
no_reorient  #important for SAPT in psi4, default
symmetry c1  #important for SAPT in psi4, default
}

set PROPERTIES_ORIGIN ["COM"]
properties('MP2/aug-cc-pvtz', properties = ['dipole'])
--------------------------------------------------------------------------

    Molecular point group: c1
  Charge       = 0
  Multiplicity = 1
  Basis Set: AUG-CC-PVTZ
    Blend: AUG-CC-PVTZ
  Basis Set: (AUG-CC-PVTZ AUX)
    Blend: AUG-CC-PVTZ-JKFIT

    Orbital Energies [Eh]
    ---------------------

    Doubly Occupied:

       1A    -11.248568     2A    -11.242931     3A    -11.241608
       4A    -11.239276     5A    -11.238170     6A    -11.237855
       7A    -11.236033     8A    -11.235358     9A    -11.232901
      10A    -11.232317    11A    -11.232316    12A    -11.230697
      13A    -11.230252    14A     -1.160961    15A     -1.143714
      16A     -1.067104    17A     -1.011806    18A     -1.009207
      19A     -1.006105    20A     -0.925846    21A     -0.828526
      22A     -0.822167    23A     -0.812722    24A     -0.781853
      25A     -0.696829    26A     -0.686380    27A     -0.642182
      28A     -0.635621    29A     -0.633535    30A     -0.612768
      31A     -0.583695    32A     -0.582874    33A     -0.574022
      34A     -0.566592    35A     -0.543007    36A     -0.510497
      37A     -0.495015    38A     -0.492455    39A     -0.482839
      40A     -0.476944    41A     -0.474639    42A     -0.340313
      43A     -0.336108    44A     -0.334183    45A     -0.312584

  @DF-RHF Final Energy:  -499.42443050098211

   => Energetics <=

    Nuclear Repulsion Energy =            693.2895142164272784
    One-Electron Energy =               -2050.1051439931102323
    Two-Electron Energy =                 857.3911992757008420
    Total Energy =                       -499.4244305009821119
  Basis Set: (AUG-CC-PVTZ AUX)
    Blend: AUG-CC-PVTZ-RI
    Molecular point group: c1

    Geometry (in Angstrom), charge = 0, multiplicity = 1:

       Center              X                  Y                   Z               Mass
    ------------   -----------------  -----------------  -----------------  -----------------
         C           -0.008051033228    -0.010814125527     1.528078557660    12.000000000000
         C           -1.260106033228    -0.071445125527     0.682868557660    12.000000000000
         C            1.243992966772     0.050982874473     0.682929557660    12.000000000000
         C           -1.432112033228    -1.113786125527    -0.239405442340    12.000000000000
         C            1.415951966772     1.094554874473    -0.237959442340    12.000000000000
         C           -2.147182033228     1.037537374473     0.617280357660    12.000000000000
         C            2.243973966772    -0.921334125527     0.792333557660    12.000000000000
         C           -2.580670033228    -1.184528125527    -1.026166442340    12.000000000000
         C            2.564498966772     1.166379874473    -1.024640442340    12.000000000000
         C           -3.411416033228     0.835198874473     0.003863557660    12.000000000000
         C            3.395349966772    -0.854655125527     0.002735557660    12.000000000000
         C           -3.575081033228    -0.208734125527    -0.907019442340    12.000000000000
         C            3.558968966772     0.190494874473    -0.906761442340    12.000000000000
         H           -0.058041033228     0.866426874473     2.186351557660     1.007825032230
         H            0.041951966772    -0.888961125527     2.185142557660     1.007825032230
         H           -0.652206033228    -1.866459125527    -0.345177442340     1.007825032230
         H            0.635997966772     1.847313874473    -0.342756442340     1.007825032230
         H           -2.138537033228     1.715641874473     1.505840557660     1.007825032230
         H            2.122514966772    -1.737138125527     1.503552557660     1.007825032230
         H           -2.700628033228    -1.999954125527    -1.735943442340     1.007825032230
         H            2.684421966772     1.982754874473    -1.733330442340     1.007825032230
         H           -4.178689033228     1.599947874473     0.101364557660     1.007825032230
         H            4.162672966772    -1.619479125527     0.099245557660     1.007825032230
         H           -4.469774033228    -0.262350125527    -1.522608442340     1.007825032230
         H            4.453648966772     0.244951874473    -1.522294442340     1.007825032230

  Basis Set: AUG-CC-PVTZ
    Blend: AUG-CC-PVTZ
  Basis Set: (AUG-CC-PVTZ AUX)
    Blend: AUG-CC-PVTZ-JKFIT
	 Reference Energy          =    -499.4244305009821119 [Eh]
	 Singles Energy            =      -0.0000000000000000 [Eh]
	 Same-Spin Energy          =      -0.5652512813947261 [Eh]
	 Opposite-Spin Energy      =      -1.7816111424228094 [Eh]
	 Correlation Energy        =      -2.3468624238175355 [Eh]
	 Total Energy              =    -501.7712929247996385 [Eh]

	 ================> DF-SCS-MP2 Energies <==================
	-----------------------------------------------------------
	 SCS Same-Spin Scale       =       0.3333333333333333 [-]
	 SCS Opposite-Spin Scale   =       1.2000000000000000 [-]
	 SCS Same-Spin Energy      =      -0.1884170937982420 [Eh]
	 SCS Opposite-Spin Energy  =      -2.1379333709073713 [Eh]
	 SCS Correlation Energy    =      -2.3263504647056132 [Eh]
	 SCS Total Energy          =    -501.7507809656877384 [Eh]
	-----------------------------------------------------------

  Dipole Moment: [D]
     X:    -0.0886      Y:    -0.1795      Z:     0.0922     Total:     0.2204

*** Psi4 exiting successfully. Buy a developer a beer!
