                               Psi4 1.4a2.dev612

  ==> Input File <==

--------------------------------------------------------------------------
#psi4
#
memory 32 gb

molecule  {
0 1
  C        0.0000050    -0.0010510     1.5142370
  C       -1.2520500    -0.0616820     0.6690270
  C        1.2520490     0.0607460     0.6690880
  C       -1.4240560    -1.1040230    -0.2532470
  C        1.4240080     1.1043180    -0.2518010
  C       -2.2068336     0.9652520     0.7091919
  C        2.2520300    -0.9115710     0.7784920
  C       -2.5726140    -1.1747650    -1.0400080
  C        2.5725550     1.1761430    -1.0384820
  C       -3.4033600     0.8449620    -0.0099780
  C        3.4034060    -0.8448920    -0.0111060
  C       -3.5670250    -0.1989710    -0.9208610
  C        3.5670250     0.2002580    -0.9206030
  H       -0.0499850     0.8761900     2.1725100
  H        0.0500080    -0.8791980     2.1713010
  H       -0.6441500    -1.8566960    -0.3590190
  H        0.6440540     1.8570770    -0.3565980
  H       -2.1304810     1.7254050     1.4919990
  H        2.1305710    -1.7273750     1.4897110
  H       -2.6925720    -1.9901910    -1.7497850
  H        2.6924780     1.9925180    -1.7471720
  H       -4.1706330     1.6097110     0.0875230
  H        4.1707290    -1.6097160     0.0854040
  H       -4.4617180    -0.2525870    -1.5364500
  H        4.4617050     0.2547150    -1.5361360
units angstrom
no_reorient  #important for SAPT in psi4, default
symmetry c1  #important for SAPT in psi4, default
}

set PROPERTIES_ORIGIN ["COM"]
properties('MP2/aug-cc-pvtz', properties = ['dipole'])
--------------------------------------------------------------------------

    Molecular point group: c1
  Charge       = 0
  Multiplicity = 1
  Basis Set: AUG-CC-PVTZ
    Blend: AUG-CC-PVTZ
  Basis Set: (AUG-CC-PVTZ AUX)
    Blend: AUG-CC-PVTZ-JKFIT

    Orbital Energies [Eh]
    ---------------------

    Doubly Occupied:

       1A    -11.243787     2A    -11.242778     3A    -11.237851
       4A    -11.237188     5A    -11.236398     6A    -11.236157
       7A    -11.235606     8A    -11.233747     9A    -11.232887
      10A    -11.232576    11A    -11.232430    12A    -11.230910
      13A    -11.230652    14A     -1.161571    15A     -1.144629
      16A     -1.066897    17A     -1.012410    18A     -1.010840
      19A     -1.006590    20A     -0.926011    21A     -0.829051
      22A     -0.823144    23A     -0.813797    24A     -0.783018
      25A     -0.697901    26A     -0.687738    27A     -0.642896
      28A     -0.636636    29A     -0.633909    30A     -0.615450
      31A     -0.584020    32A     -0.583786    33A     -0.573404
      34A     -0.569971    35A     -0.543888    36A     -0.509908
      37A     -0.495554    38A     -0.495040    39A     -0.482212
      40A     -0.481052    41A     -0.475721    42A     -0.340625
      43A     -0.335554    44A     -0.334034    45A     -0.313912

  @DF-RHF Final Energy:  -499.44113442945337

   => Energetics <=

    Nuclear Repulsion Energy =            693.4438896589759906
    One-Electron Energy =               -2050.4217710498242013
    Two-Electron Energy =                 857.5367469613950107
    Total Energy =                       -499.4411344294533137
  Basis Set: (AUG-CC-PVTZ AUX)
    Blend: AUG-CC-PVTZ-RI
    Molecular point group: c1

    Geometry (in Angstrom), charge = 0, multiplicity = 1:

       Center              X                  Y                   Z               Mass
    ------------   -----------------  -----------------  -----------------  -----------------
         C           -0.003217477709    -0.004956792228     1.520528984493    12.000000000000
         C           -1.255272477709    -0.065587792228     0.675318984493    12.000000000000
         C            1.248826522291     0.056840207772     0.675379984493    12.000000000000
         C           -1.427278477709    -1.107928792228    -0.246955015507    12.000000000000
         C            1.420785522291     1.100412207772    -0.245509015507    12.000000000000
         C           -2.210056077709     0.961346207772     0.715483884493    12.000000000000
         C            2.248807522291    -0.915476792228     0.784783984493    12.000000000000
         C           -2.575836477709    -1.178670792228    -1.033716015507    12.000000000000
         C            2.569332522291     1.172237207772    -1.032190015507    12.000000000000
         C           -3.406582477709     0.841056207772    -0.003686015507    12.000000000000
         C            3.400183522291    -0.848797792228    -0.004814015507    12.000000000000
         C           -3.570247477709    -0.202876792228    -0.914569015507    12.000000000000
         C            3.563802522291     0.196352207772    -0.914311015507    12.000000000000
         H           -0.053207477709     0.872284207772     2.178801984493     1.007825032230
         H            0.046785522291    -0.883103792228     2.177592984493     1.007825032230
         H           -0.647372477709    -1.860601792228    -0.352727015507     1.007825032230
         H            0.640831522291     1.853171207772    -0.350306015507     1.007825032230
         H           -2.133703477709     1.721499207772     1.498290984493     1.007825032230
         H            2.127348522291    -1.731280792228     1.496002984493     1.007825032230
         H           -2.695794477709    -1.994096792228    -1.743493015507     1.007825032230
         H            2.689255522291     1.988612207772    -1.740880015507     1.007825032230
         H           -4.173855477709     1.605805207772     0.093814984493     1.007825032230
         H            4.167506522291    -1.613621792228     0.091695984493     1.007825032230
         H           -4.464940477709    -0.256492792228    -1.530158015507     1.007825032230
         H            4.458482522291     0.250809207772    -1.529844015507     1.007825032230

  Basis Set: AUG-CC-PVTZ
    Blend: AUG-CC-PVTZ
  Basis Set: (AUG-CC-PVTZ AUX)
    Blend: AUG-CC-PVTZ-JKFIT
	 Reference Energy          =    -499.4411344294533706 [Eh]
	 Singles Energy            =      -0.0000000000000000 [Eh]
	 Same-Spin Energy          =      -0.5643623301822936 [Eh]
	 Opposite-Spin Energy      =      -1.7791060784657426 [Eh]
	 Correlation Energy        =      -2.3434684086480364 [Eh]
	 Total Energy              =    -501.7846028381014207 [Eh]

	 ================> DF-SCS-MP2 Energies <==================
	-----------------------------------------------------------
	 SCS Same-Spin Scale       =       0.3333333333333333 [-]
	 SCS Opposite-Spin Scale   =       1.2000000000000000 [-]
	 SCS Same-Spin Energy      =      -0.1881207767274312 [Eh]
	 SCS Opposite-Spin Energy  =      -2.1349272941588913 [Eh]
	 SCS Correlation Energy    =      -2.3230480708863226 [Eh]
	 SCS Total Energy          =    -501.7641825003397003 [Eh]
	-----------------------------------------------------------

  Dipole Moment: [D]
     X:    -0.0349      Y:    -0.0469      Z:     0.0980     Total:     0.1141

*** Psi4 exiting successfully. Buy a developer a beer!
