                               Psi4 1.3.2 release

  ==> Input File <==

--------------------------------------------------------------------------
#psi4
#
memory 32 gb

molecule  {
0 1
  O        2.3317040    -0.8186130    -0.0014310
  O       -2.3317020    -0.8186160     0.0009270
  O        1.4266620     1.2613620     0.0018990
  O       -1.4266720     1.2613600    -0.0019020
  C        0.0001581    -0.7384506     0.2004558
  C        1.2840530     0.0565150     0.0003880
  C       -1.2840430     0.0565240    -0.0003020
  H        0.0001910    -1.4067280    -0.8673040
  H       -0.0001890    -1.4057310     0.8689960
  H        3.1367490    -0.2602560    -0.0011430
  H       -3.1367720    -0.2602910     0.0002510
units angstrom
no_reorient  #important for SAPT in psi4, default
symmetry c1  #important for SAPT in psi4, default
}

set PROPERTIES_ORIGIN ["COM"]
properties('MP2/aug-cc-pvtz', properties = ['dipole'])
--------------------------------------------------------------------------

    Molecular point group: c1
  Charge       = 0
  Multiplicity = 1
  Basis Set: AUG-CC-PVTZ
    Blend: AUG-CC-PVTZ
  Basis Set: (AUG-CC-PVTZ AUX)
    Blend: AUG-CC-PVTZ-JKFIT

    Orbital Energies [Eh]
    ---------------------

    Doubly Occupied:

       1A    -20.627473     2A    -20.627462     3A    -20.565334
       4A    -20.565332     5A    -11.410929     6A    -11.410909
       7A    -11.291406     8A     -1.475033     9A     -1.469321
      10A     -1.373711    11A     -1.367076    12A     -1.082172
      13A     -0.890154    14A     -0.805108    15A     -0.741562
      16A     -0.712750    17A     -0.709592    18A     -0.678628
      19A     -0.666456    20A     -0.635053    21A     -0.612673
      22A     -0.590780    23A     -0.549529    24A     -0.497447
      25A     -0.491163    26A     -0.473386    27A     -0.456250

  @DF-RHF Final Energy:  -415.53866285690737

   => Energetics <=

    Nuclear Repulsion Energy =            296.6591440514221745
    One-Electron Energy =               -1158.8422337951510599
    Two-Electron Energy =                 446.6444268868215772
    Total Energy =                       -415.5386628569073650
  Basis Set: (AUG-CC-PVTZ AUX)
    Blend: AUG-CC-PVTZ-RI
    Molecular point group: c1

    Geometry (in Angstrom), charge = 0, multiplicity = 1:

       Center              X                  Y                   Z               Mass
    ------------   -----------------  -----------------  -----------------  -----------------
         O            2.331686039620    -0.850334261837    -0.024497785178    15.994914619570
         O           -2.331719960380    -0.850337261837    -0.022139785178    15.994914619570
         O            1.426644039620     1.229640738163    -0.021167785178    15.994914619570
         O           -1.426689960380     1.229638738163    -0.024968785178    15.994914619570
         C            0.000140139620    -0.770171861837     0.177389014822    12.000000000000
         C            1.284035039620     0.024793738163    -0.022678785178    12.000000000000
         C           -1.284060960380     0.024802738163    -0.023368785178    12.000000000000
         H            0.000173039620    -1.438449261837    -0.890370785178     1.007825032230
         H           -0.000206960380    -1.437452261837     0.845929214822     1.007825032230
         H            3.136731039620    -0.291977261837    -0.024209785178     1.007825032230
         H           -3.136789960380    -0.292012261837    -0.022815785178     1.007825032230

  Basis Set: AUG-CC-PVTZ
    Blend: AUG-CC-PVTZ
  Basis Set: (AUG-CC-PVTZ AUX)
    Blend: AUG-CC-PVTZ-JKFIT
	 Reference Energy          =    -415.5386628569073650 [Eh]
	 Singles Energy            =      -0.0000000000000000 [Eh]
	 Same-Spin Energy          =      -0.3939992475974357 [Eh]
	 Opposite-Spin Energy      =      -1.1674577954642276 [Eh]
	 Correlation Energy        =      -1.5614570430616632 [Eh]
	 Total Energy              =    -417.1001198999690018 [Eh]

	 ================> DF-SCS-MP2 Energies <==================
	-----------------------------------------------------------
	 SCS Same-Spin Scale       =       0.3333333333333333 [-]
	 SCS Opposite-Spin Scale   =       1.2000000000000000 [-]
	 SCS Same-Spin Energy      =      -0.1313330825324786 [Eh]
	 SCS Opposite-Spin Energy  =      -1.4009493545570730 [Eh]
	 SCS Correlation Energy    =      -1.5322824370895516 [Eh]
	 SCS Total Energy          =    -417.0709452939969424 [Eh]
	-----------------------------------------------------------

  Dipole Moment: [D]
     X:     0.0002      Y:    -2.7483      Z:     0.0996     Total:     2.7501

*** Psi4 exiting successfully. Buy a developer a beer!
