                               Psi4 1.3.2 release

  ==> Input File <==

--------------------------------------------------------------------------
#psi4
#
memory 32 gb

molecule  {
0 1
  O        2.3317040    -0.8186130    -0.0014310
  O       -2.3317020    -0.8186160     0.0009270
  O        1.4266620     1.2613620     0.0018990
  O       -1.4266720     1.2613600    -0.0019020
  C        0.0001964    -0.7385140     0.2504557
  C        1.2840530     0.0565150     0.0003880
  C       -1.2840430     0.0565240    -0.0003020
  H        0.0001910    -1.4067280    -0.8673040
  H       -0.0001890    -1.4057310     0.8689960
  H        3.1367490    -0.2602560    -0.0011430
  H       -3.1367720    -0.2602910     0.0002510
units angstrom
no_reorient  #important for SAPT in psi4, default
symmetry c1  #important for SAPT in psi4, default
}

set PROPERTIES_ORIGIN ["COM"]
properties('MP2/aug-cc-pvtz', properties = ['dipole'])
--------------------------------------------------------------------------

    Molecular point group: c1
  Charge       = 0
  Multiplicity = 1
  Basis Set: AUG-CC-PVTZ
    Blend: AUG-CC-PVTZ
  Basis Set: (AUG-CC-PVTZ AUX)
    Blend: AUG-CC-PVTZ-JKFIT

    Orbital Energies [Eh]
    ---------------------

    Doubly Occupied:

       1A    -20.627533     2A    -20.627521     3A    -20.565764
       4A    -20.565762     5A    -11.412441     6A    -11.412418
       7A    -11.293525     8A     -1.475119     9A     -1.469448
      10A     -1.373972    11A     -1.367375    12A     -1.082201
      13A     -0.888767    14A     -0.810371    15A     -0.747223
      16A     -0.712827    17A     -0.711657    18A     -0.678483
      19A     -0.662878    20A     -0.635693    21A     -0.615437
      22A     -0.588700    23A     -0.542298    24A     -0.497967
      25A     -0.491516    26A     -0.470370    27A     -0.455926

  @DF-RHF Final Energy:  -415.51580122358882

   => Energetics <=

    Nuclear Repulsion Energy =            296.4986335744209214
    One-Electron Energy =               -1158.4624887262023094
    Two-Electron Energy =                 446.4480539281926212
    Total Energy =                       -415.5158012235888236
  Basis Set: (AUG-CC-PVTZ AUX)
    Blend: AUG-CC-PVTZ-RI
    Molecular point group: c1

    Geometry (in Angstrom), charge = 0, multiplicity = 1:

       Center              X                  Y                   Z               Mass
    ------------   -----------------  -----------------  -----------------  -----------------
         O            2.331681620855    -0.850326947223    -0.030266396563    15.994914619570
         O           -2.331724379145    -0.850329947223    -0.027908396563    15.994914619570
         O            1.426639620855     1.229648052777    -0.026936396563    15.994914619570
         O           -1.426694379145     1.229646052777    -0.030737396563    15.994914619570
         C            0.000174020855    -0.770227947223     0.221620303437    12.000000000000
         C            1.284030620855     0.024801052777    -0.028447396563    12.000000000000
         C           -1.284065379145     0.024810052777    -0.029137396563    12.000000000000
         H            0.000168620855    -1.438441947223    -0.896139396563     1.007825032230
         H           -0.000211379145    -1.437444947223     0.840160603437     1.007825032230
         H            3.136726620855    -0.291969947223    -0.029978396563     1.007825032230
         H           -3.136794379145    -0.292004947223    -0.028584396563     1.007825032230

  Basis Set: AUG-CC-PVTZ
    Blend: AUG-CC-PVTZ
  Basis Set: (AUG-CC-PVTZ AUX)
    Blend: AUG-CC-PVTZ-JKFIT
	 Reference Energy          =    -415.5158012235888236 [Eh]
	 Singles Energy            =      -0.0000000000000000 [Eh]
	 Same-Spin Energy          =      -0.3943252122292935 [Eh]
	 Opposite-Spin Energy      =      -1.1685737022147102 [Eh]
	 Correlation Energy        =      -1.5628989144440038 [Eh]
	 Total Energy              =    -417.0787001380328434 [Eh]

	 ================> DF-SCS-MP2 Energies <==================
	-----------------------------------------------------------
	 SCS Same-Spin Scale       =       0.3333333333333333 [-]
	 SCS Opposite-Spin Scale   =       1.2000000000000000 [-]
	 SCS Same-Spin Energy      =      -0.1314417374097645 [Eh]
	 SCS Opposite-Spin Energy  =      -1.4022884426576523 [Eh]
	 SCS Correlation Energy    =      -1.5337301800674168 [Eh]
	 SCS Total Energy          =    -417.0495314036562604 [Eh]
	-----------------------------------------------------------

  Dipole Moment: [D]
     X:     0.0002      Y:    -2.7275      Z:     0.1221     Total:     2.7303

*** Psi4 exiting successfully. Buy a developer a beer!
