                               Psi4 1.3.2 release

  ==> Input File <==

--------------------------------------------------------------------------
#psi4
#
memory 32 gb

molecule  {
0 1
  O        2.3317040    -0.8186130    -0.0014310
  O       -2.3317020    -0.8186160     0.0009270
  O        1.4266620     1.2613620     0.0018990
  O       -1.4266720     1.2613600    -0.0019020
  C        0.0000816    -0.7383238     0.1004559
  C        1.2840530     0.0565150     0.0003880
  C       -1.2840430     0.0565240    -0.0003020
  H        0.0001910    -1.4067280    -0.8673040
  H       -0.0001890    -1.4057310     0.8689960
  H        3.1367490    -0.2602560    -0.0011430
  H       -3.1367720    -0.2602910     0.0002510
units angstrom
no_reorient  #important for SAPT in psi4, default
symmetry c1  #important for SAPT in psi4, default
}

set PROPERTIES_ORIGIN ["COM"]
properties('MP2/aug-cc-pvtz', properties = ['dipole'])
--------------------------------------------------------------------------

    Molecular point group: c1
  Charge       = 0
  Multiplicity = 1
  Basis Set: AUG-CC-PVTZ
    Blend: AUG-CC-PVTZ
  Basis Set: (AUG-CC-PVTZ AUX)
    Blend: AUG-CC-PVTZ-JKFIT

    Orbital Energies [Eh]
    ---------------------

    Doubly Occupied:

       1A    -20.627396     2A    -20.627388     3A    -20.564747
       4A    -20.564744     5A    -11.408866     6A    -11.408855
       7A    -11.288622     8A     -1.474915     9A     -1.469150
      10A     -1.373355    11A     -1.366667    12A     -1.082296
      13A     -0.892084    14A     -0.798914    15A     -0.731887
      16A     -0.712654    17A     -0.701575    18A     -0.678802
      19A     -0.675949    20A     -0.634091    21A     -0.606158
      22A     -0.593709    23A     -0.563472    24A     -0.496650
      25A     -0.490681    26A     -0.477204    27A     -0.456644

  @DF-RHF Final Energy:  -415.56879933237872

   => Energetics <=

    Nuclear Repulsion Energy =            296.8756919037188027
    One-Electron Energy =               -1159.3540340931872379
    Two-Electron Energy =                 446.9095428570897184
    Total Energy =                       -415.5687993323787168
  Basis Set: (AUG-CC-PVTZ AUX)
    Blend: AUG-CC-PVTZ-RI
    Molecular point group: c1

    Geometry (in Angstrom), charge = 0, multiplicity = 1:

       Center              X                  Y                   Z               Mass
    ------------   -----------------  -----------------  -----------------  -----------------
         O            2.331694865613    -0.850348891064    -0.012960550870    15.994914619570
         O           -2.331711134387    -0.850351891064    -0.010602550870    15.994914619570
         O            1.426652865613     1.229626108936    -0.009630550870    15.994914619570
         O           -1.426681134387     1.229624108936    -0.013431550870    15.994914619570
         C            0.000072465613    -0.770059691064     0.088926349130    12.000000000000
         C            1.284043865613     0.024779108936    -0.011141550870    12.000000000000
         C           -1.284052134387     0.024788108936    -0.011831550870    12.000000000000
         H            0.000181865613    -1.438463891064    -0.878833550870     1.007825032230
         H           -0.000198134387    -1.437466891064     0.857466449130     1.007825032230
         H            3.136739865613    -0.291991891064    -0.012672550870     1.007825032230
         H           -3.136781134387    -0.292026891064    -0.011278550870     1.007825032230

  Basis Set: AUG-CC-PVTZ
    Blend: AUG-CC-PVTZ
  Basis Set: (AUG-CC-PVTZ AUX)
    Blend: AUG-CC-PVTZ-JKFIT
	 Reference Energy          =    -415.5687993323787168 [Eh]
	 Singles Energy            =      -0.0000000000000000 [Eh]
	 Same-Spin Energy          =      -0.3935714103787269 [Eh]
	 Opposite-Spin Energy      =      -1.1659897372287744 [Eh]
	 Correlation Energy        =      -1.5595611476075013 [Eh]
	 Total Energy              =    -417.1283604799862132 [Eh]

	 ================> DF-SCS-MP2 Energies <==================
	-----------------------------------------------------------
	 SCS Same-Spin Scale       =       0.3333333333333333 [-]
	 SCS Opposite-Spin Scale   =       1.2000000000000000 [-]
	 SCS Same-Spin Energy      =      -0.1311904701262423 [Eh]
	 SCS Opposite-Spin Energy  =      -1.3991876846745293 [Eh]
	 SCS Correlation Energy    =      -1.5303781548007716 [Eh]
	 SCS Total Energy          =    -417.0991774871794746 [Eh]
	-----------------------------------------------------------

  Dipole Moment: [D]
     X:     0.0001      Y:    -2.7781      Z:     0.0509     Total:     2.7785

*** Psi4 exiting successfully. Buy a developer a beer!
