                               Psi4 1.3.2 release

  ==> Input File <==

--------------------------------------------------------------------------
#psi4
#
memory 32 gb

molecule  {
0 1
  O        2.3317040    -0.8186130    -0.0014310
  O       -2.3317020    -0.8186160     0.0009270
  O        1.4266620     1.2613620     0.0018990
  O       -1.4266720     1.2613600    -0.0019020
  C        0.0001198    -0.7383872     0.1504558
  C        1.2840530     0.0565150     0.0003880
  C       -1.2840430     0.0565240    -0.0003020
  H        0.0001910    -1.4067280    -0.8673040
  H       -0.0001890    -1.4057310     0.8689960
  H        3.1367490    -0.2602560    -0.0011430
  H       -3.1367720    -0.2602910     0.0002510
units angstrom
no_reorient  #important for SAPT in psi4, default
symmetry c1  #important for SAPT in psi4, default
}

set PROPERTIES_ORIGIN ["COM"]
properties('MP2/aug-cc-pvtz', properties = ['dipole'])
--------------------------------------------------------------------------

    Molecular point group: c1
  Charge       = 0
  Multiplicity = 1
  Basis Set: AUG-CC-PVTZ
    Blend: AUG-CC-PVTZ
  Basis Set: (AUG-CC-PVTZ AUX)
    Blend: AUG-CC-PVTZ-JKFIT

    Orbital Energies [Eh]
    ---------------------

    Doubly Occupied:

       1A    -20.627428     2A    -20.627418     3A    -20.564994
       4A    -20.564991     5A    -11.409732     6A    -11.409716
       7A    -11.289774     8A     -1.474964     9A     -1.469221
      10A     -1.373504    11A     -1.366839    12A     -1.082220
      13A     -0.891268    14A     -0.801353    15A     -0.736099
      16A     -0.712693    17A     -0.706350    18A     -0.678732
      19A     -0.670803    20A     -0.634509    21A     -0.609492
      22A     -0.592464    23A     -0.556813    24A     -0.496998
      25A     -0.490883    26A     -0.475643    27A     -0.456484

  @DF-RHF Final Energy:  -415.55630024083320

   => Energetics <=

    Nuclear Repulsion Energy =            296.7850072137954385
    One-Electron Energy =               -1159.1398416476681632
    Two-Electron Energy =                 446.7985341930395293
    Total Energy =                       -415.5563002408331954
  Basis Set: (AUG-CC-PVTZ AUX)
    Blend: AUG-CC-PVTZ-RI
    Molecular point group: c1

    Geometry (in Angstrom), charge = 0, multiplicity = 1:

       Center              X                  Y                   Z               Mass
    ------------   -----------------  -----------------  -----------------  -----------------
         O            2.331690458385    -0.850341576450    -0.018729162255    15.994914619570
         O           -2.331715541615    -0.850344576450    -0.016371162255    15.994914619570
         O            1.426648458385     1.229633423550    -0.015399162255    15.994914619570
         O           -1.426685541615     1.229631423550    -0.019200162255    15.994914619570
         C            0.000106258385    -0.770115776450     0.133157637745    12.000000000000
         C            1.284039458385     0.024786423550    -0.016910162255    12.000000000000
         C           -1.284056541615     0.024795423550    -0.017600162255    12.000000000000
         H            0.000177458385    -1.438456576450    -0.884602162255     1.007825032230
         H           -0.000202541615    -1.437459576450     0.851697837745     1.007825032230
         H            3.136735458385    -0.291984576450    -0.018441162255     1.007825032230
         H           -3.136785541615    -0.292019576450    -0.017047162255     1.007825032230

  Basis Set: AUG-CC-PVTZ
    Blend: AUG-CC-PVTZ
  Basis Set: (AUG-CC-PVTZ AUX)
    Blend: AUG-CC-PVTZ-JKFIT
	 Reference Energy          =    -415.5563002408331954 [Eh]
	 Singles Energy            =      -0.0000000000000000 [Eh]
	 Same-Spin Energy          =      -0.3937486129979517 [Eh]
	 Opposite-Spin Energy      =      -1.1665974568090922 [Eh]
	 Correlation Energy        =      -1.5603460698070439 [Eh]
	 Total Energy              =    -417.1166463106402489 [Eh]

	 ================> DF-SCS-MP2 Energies <==================
	-----------------------------------------------------------
	 SCS Same-Spin Scale       =       0.3333333333333333 [-]
	 SCS Opposite-Spin Scale   =       1.2000000000000000 [-]
	 SCS Same-Spin Energy      =      -0.1312495376659839 [Eh]
	 SCS Opposite-Spin Energy  =      -1.3999169481709106 [Eh]
	 SCS Correlation Energy    =      -1.5311664858368945 [Eh]
	 SCS Total Energy          =    -417.0874667266700726 [Eh]
	-----------------------------------------------------------

  Dipole Moment: [D]
     X:     0.0001      Y:    -2.7654      Z:     0.0756     Total:     2.7664

*** Psi4 exiting successfully. Buy a developer a beer!
