                               Psi4 1.3.2 release

  ==> Input File <==

--------------------------------------------------------------------------
#psi4
#
memory 32 gb

molecule  {
0 1
  O        2.3317040    -0.8186130    -0.0014310
  O       -2.3317020    -0.8186160     0.0009270
  O        1.4266620     1.2613620     0.0018990
  O       -1.4266720     1.2613600    -0.0019020
  C        0.0000433    -0.7382604     0.0504559
  C        1.2840530     0.0565150     0.0003880
  C       -1.2840430     0.0565240    -0.0003020
  H        0.0001910    -1.4067280    -0.8673040
  H       -0.0001890    -1.4057310     0.8689960
  H        3.1367490    -0.2602560    -0.0011430
  H       -3.1367720    -0.2602910     0.0002510
units angstrom
no_reorient  #important for SAPT in psi4, default
symmetry c1  #important for SAPT in psi4, default
}

set PROPERTIES_ORIGIN ["COM"]
properties('MP2/aug-cc-pvtz', properties = ['dipole'])
--------------------------------------------------------------------------

    Molecular point group: c1
  Charge       = 0
  Multiplicity = 1
  Basis Set: AUG-CC-PVTZ
    Blend: AUG-CC-PVTZ
  Basis Set: (AUG-CC-PVTZ AUX)
    Blend: AUG-CC-PVTZ-JKFIT

    Orbital Energies [Eh]
    ---------------------

    Doubly Occupied:

       1A    -20.627378     2A    -20.627371     3A    -20.564596
       4A    -20.564594     5A    -11.408342     6A    -11.408334
       7A    -11.287937     8A     -1.474886     9A     -1.469107
      10A     -1.373264    11A     -1.366563    12A     -1.082360
      13A     -0.892586    14A     -0.797558    15A     -0.729436
      16A     -0.712632    17A     -0.695535    18A     -0.681815
      19A     -0.678843    20A     -0.633828    21A     -0.603323
      22A     -0.594477    23A     -0.568476    24A     -0.496426
      25A     -0.490559    26A     -0.478120    27A     -0.456737

  @DF-RHF Final Energy:  -415.57625215840744

   => Energetics <=

    Nuclear Repulsion Energy =            296.9307578485610861
    One-Electron Energy =               -1159.4838553625452278
    Two-Electron Energy =                 446.9768453555766428
    Total Energy =                       -415.5762521584074420
  Basis Set: (AUG-CC-PVTZ AUX)
    Blend: AUG-CC-PVTZ-RI
    Molecular point group: c1

    Geometry (in Angstrom), charge = 0, multiplicity = 1:

       Center              X                  Y                   Z               Mass
    ------------   -----------------  -----------------  -----------------  -----------------
         O            2.331699284378    -0.850356205678    -0.007191927948    15.994914619570
         O           -2.331706715622    -0.850359205678    -0.004833927948    15.994914619570
         O            1.426657284378     1.229618794322    -0.003861927948    15.994914619570
         O           -1.426676715622     1.229616794322    -0.007662927948    15.994914619570
         C            0.000038584378    -0.770003605678     0.044694972052    12.000000000000
         C            1.284048284378     0.024771794322    -0.005372927948    12.000000000000
         C           -1.284047715622     0.024780794322    -0.006062927948    12.000000000000
         H            0.000186284378    -1.438471205678    -0.873064927948     1.007825032230
         H           -0.000193715622    -1.437474205678     0.863235072052     1.007825032230
         H            3.136744284378    -0.291999205678    -0.006903927948     1.007825032230
         H           -3.136776715622    -0.292034205678    -0.005509927948     1.007825032230

  Basis Set: AUG-CC-PVTZ
    Blend: AUG-CC-PVTZ
  Basis Set: (AUG-CC-PVTZ AUX)
    Blend: AUG-CC-PVTZ-JKFIT
	 Reference Energy          =    -415.5762521584074420 [Eh]
	 Singles Energy            =      -0.0000000000000000 [Eh]
	 Same-Spin Energy          =      -0.3934660754061197 [Eh]
	 Opposite-Spin Energy      =      -1.1656292090073943 [Eh]
	 Correlation Energy        =      -1.5590952844135140 [Eh]
	 Total Energy              =    -417.1353474428209438 [Eh]

	 ================> DF-SCS-MP2 Energies <==================
	-----------------------------------------------------------
	 SCS Same-Spin Scale       =       0.3333333333333333 [-]
	 SCS Opposite-Spin Scale   =       1.2000000000000000 [-]
	 SCS Same-Spin Energy      =      -0.1311553584687065 [Eh]
	 SCS Opposite-Spin Energy  =      -1.3987550508088731 [Eh]
	 SCS Correlation Energy    =      -1.5299104092775797 [Eh]
	 SCS Total Energy          =    -417.1061625676850326 [Eh]
	-----------------------------------------------------------

  Dipole Moment: [D]
     X:     0.0001      Y:    -2.7859      Z:     0.0257     Total:     2.7861

*** Psi4 exiting successfully. Buy a developer a beer!
