                               Psi4 1.3.2 release

  ==> Input File <==

--------------------------------------------------------------------------
#psi4
#
memory 32 gb

molecule  {
0 1
  O        2.3317040    -0.8186130    -0.0014310
  O       -2.3317020    -0.8186160     0.0009270
  O        1.4266620     1.2613620     0.0018990
  O       -1.4266720     1.2613600    -0.0019020
  C        0.0002347    -0.7385774     0.3004557
  C        1.2840530     0.0565150     0.0003880
  C       -1.2840430     0.0565240    -0.0003020
  H        0.0001910    -1.4067280    -0.8673040
  H       -0.0001890    -1.4057310     0.8689960
  H        3.1367490    -0.2602560    -0.0011430
  H       -3.1367720    -0.2602910     0.0002510
units angstrom
no_reorient  #important for SAPT in psi4, default
symmetry c1  #important for SAPT in psi4, default
}

set PROPERTIES_ORIGIN ["COM"]
properties('MP2/aug-cc-pvtz', properties = ['dipole'])
--------------------------------------------------------------------------

    Molecular point group: c1
  Charge       = 0
  Multiplicity = 1
  Basis Set: AUG-CC-PVTZ
    Blend: AUG-CC-PVTZ
  Basis Set: (AUG-CC-PVTZ AUX)
    Blend: AUG-CC-PVTZ-JKFIT

    Orbital Energies [Eh]
    ---------------------

    Doubly Occupied:

       1A    -20.627609     2A    -20.627596     3A    -20.566277
       4A    -20.566274     5A    -11.414247     6A    -11.414221
       7A    -11.296138     8A     -1.475223     9A     -1.469600
      10A     -1.374281    11A     -1.367729    12A     -1.082369
      13A     -0.887133    14A     -0.817112    15A     -0.752146
      16A     -0.713005    17A     -0.712921    18A     -0.678284
      19A     -0.660007    20A     -0.636399    21A     -0.617690
      22A     -0.586268    23A     -0.535578    24A     -0.498528
      25A     -0.491937    26A     -0.466547    27A     -0.455496

  @DF-RHF Final Energy:  -415.48767599906512

   => Energetics <=

    Nuclear Repulsion Energy =            296.3040215573805085
    One-Electron Energy =               -1158.0021582408746781
    Two-Electron Energy =                 446.2104606844289947
    Total Energy =                       -415.4876759990651180
  Basis Set: (AUG-CC-PVTZ AUX)
    Blend: AUG-CC-PVTZ-RI
    Molecular point group: c1

    Geometry (in Angstrom), charge = 0, multiplicity = 1:

       Center              X                  Y                   Z               Mass
    ------------   -----------------  -----------------  -----------------  -----------------
         O            2.331677202090    -0.850319632609    -0.036035019485    15.994914619570
         O           -2.331728797910    -0.850322632609    -0.033677019485    15.994914619570
         O            1.426635202090     1.229655367391    -0.032705019485    15.994914619570
         O           -1.426698797910     1.229653367391    -0.036506019485    15.994914619570
         C            0.000207902090    -0.770284032609     0.265851680515    12.000000000000
         C            1.284026202090     0.024808367391    -0.034216019485    12.000000000000
         C           -1.284069797910     0.024817367391    -0.034906019485    12.000000000000
         H            0.000164202090    -1.438434632609    -0.901908019485     1.007825032230
         H           -0.000215797910    -1.437437632609     0.834391980515     1.007825032230
         H            3.136722202090    -0.291962632609    -0.035747019485     1.007825032230
         H           -3.136798797910    -0.291997632609    -0.034353019485     1.007825032230

  Basis Set: AUG-CC-PVTZ
    Blend: AUG-CC-PVTZ
  Basis Set: (AUG-CC-PVTZ AUX)
    Blend: AUG-CC-PVTZ-JKFIT
	 Reference Energy          =    -415.4876759990651180 [Eh]
	 Singles Energy            =      -0.0000000000000000 [Eh]
	 Same-Spin Energy          =      -0.3947289273752462 [Eh]
	 Opposite-Spin Energy      =      -1.1699464593834543 [Eh]
	 Correlation Energy        =      -1.5646753867587004 [Eh]
	 Total Energy              =    -417.0523513858238402 [Eh]

	 ================> DF-SCS-MP2 Energies <==================
	-----------------------------------------------------------
	 SCS Same-Spin Scale       =       0.3333333333333333 [-]
	 SCS Opposite-Spin Scale   =       1.2000000000000000 [-]
	 SCS Same-Spin Energy      =      -0.1315763091250821 [Eh]
	 SCS Opposite-Spin Energy  =      -1.4039357512601451 [Eh]
	 SCS Correlation Energy    =      -1.5355120603852273 [Eh]
	 SCS Total Energy          =    -417.0231880594503195 [Eh]
	-----------------------------------------------------------

  Dipole Moment: [D]
     X:     0.0002      Y:    -2.7041      Z:     0.1425     Total:     2.7079

*** Psi4 exiting successfully. Buy a developer a beer!
