                               Psi4 1.3.2 release

  ==> Input File <==

--------------------------------------------------------------------------
#psi4
#
memory 32 gb

molecule  {
0 1
  O       -0.9795470    -0.0831330    -0.7231310
  O       -0.4899730     2.0087470     0.0897980
  O       -2.0025500    -0.0680990     1.3309880
  C        1.8485240    -0.5426110    -0.0314710
  C        1.2608343     0.6925594    -0.9826826
  C        1.7532090    -0.2607150     1.4674660
  C        3.2880220    -0.8256370    -0.4545800
  C       -0.1082690     0.9825120    -0.4201650
  C       -2.0345350    -0.3435730     0.1532740
  C       -3.1365800    -1.0497620    -0.5798680
  H        1.2371820    -1.4239180    -0.2609290
  H        1.9026850     1.5280430    -0.7082120
  H        1.2768590     0.3787260    -1.9135380
  H        2.3119230     0.6465730     1.7229020
  H        2.1770720    -1.0909040     2.0408530
  H        0.7169210    -0.1225920     1.7908070
  H        3.9287710     0.0354160    -0.2359390
  H        3.6876870    -1.6881060     0.0874480
  H        3.3559530    -1.0370340    -1.5265420
  H       -3.5589910    -0.3771620    -1.3307760
  H       -3.9066010    -1.3512680     0.1291360
  H       -2.7361560    -1.9219890    -1.1015230
units angstrom
no_reorient  #important for SAPT in psi4, default
symmetry c1  #important for SAPT in psi4, default
}

set PROPERTIES_ORIGIN ["COM"]
properties('MP2/aug-cc-pvtz', properties = ['dipole'])
--------------------------------------------------------------------------

    Molecular point group: c1
  Charge       = 0
  Multiplicity = 1
  Basis Set: AUG-CC-PVTZ
    Blend: AUG-CC-PVTZ
  Basis Set: (AUG-CC-PVTZ AUX)
    Blend: AUG-CC-PVTZ-JKFIT

    Orbital Energies [Eh]
    ---------------------

    Doubly Occupied:

       1A    -20.626765     2A    -20.564133     3A    -20.561855
       4A    -11.403255     5A    -11.398574     6A    -11.254582
       7A    -11.253922     8A    -11.246011     9A    -11.224753
      10A    -11.217793    11A     -1.484665    12A     -1.403768
      13A     -1.362489    14A     -1.100522    15A     -1.042444
      16A     -0.995449    17A     -0.938812    18A     -0.867304
      19A     -0.788266    20A     -0.741189    21A     -0.705373
      22A     -0.700810    23A     -0.681463    24A     -0.654241
      25A     -0.628870    26A     -0.617255    27A     -0.593489
      28A     -0.589086    29A     -0.578123    30A     -0.559534
      31A     -0.555287    32A     -0.541748    33A     -0.526539
      34A     -0.492762    35A     -0.485051    36A     -0.482254
      37A     -0.475824    38A     -0.458782    39A     -0.429704

  @DF-RHF Final Energy:  -496.84444738963759

   => Energetics <=

    Nuclear Repulsion Energy =            553.8519454445997781
    One-Electron Energy =               -1776.9272937276537050
    Two-Electron Energy =                 726.2309008934163330
    Total Energy =                       -496.8444473896375939
  Basis Set: (AUG-CC-PVTZ AUX)
    Blend: AUG-CC-PVTZ-RI
    Molecular point group: c1

    Geometry (in Angstrom), charge = 0, multiplicity = 1:

       Center              X                  Y                   Z               Mass
    ------------   -----------------  -----------------  -----------------  -----------------
         O           -0.905931880201    -0.132200576789    -0.720813363100    15.994914619570
         O           -0.416357880201     1.959679423211     0.092115636900    15.994914619570
         O           -1.928934880201    -0.117166576789     1.333305636900    15.994914619570
         C            1.922139119799    -0.591678576789    -0.029153363100    12.000000000000
         C            1.334449419799     0.643491823211    -0.980364963100    12.000000000000
         C            1.826824119799    -0.309782576789     1.469783636900    12.000000000000
         C            3.361637119799    -0.874704576789    -0.452262363100    12.000000000000
         C           -0.034653880201     0.933444423211    -0.417847363100    12.000000000000
         C           -1.960919880201    -0.392640576789     0.155591636900    12.000000000000
         C           -3.062964880201    -1.098829576789    -0.577550363100    12.000000000000
         H            1.310797119799    -1.472985576789    -0.258611363100     1.007825032230
         H            1.976300119799     1.478975423211    -0.705894363100     1.007825032230
         H            1.350474119799     0.329658423211    -1.911220363100     1.007825032230
         H            2.385538119799     0.597505423211     1.725219636900     1.007825032230
         H            2.250687119799    -1.139971576789     2.043170636900     1.007825032230
         H            0.790536119799    -0.171659576789     1.793124636900     1.007825032230
         H            4.002386119799    -0.013651576789    -0.233621363100     1.007825032230
         H            3.761302119799    -1.737173576789     0.089765636900     1.007825032230
         H            3.429568119799    -1.086101576789    -1.524224363100     1.007825032230
         H           -3.485375880201    -0.426229576789    -1.328458363100     1.007825032230
         H           -3.832985880201    -1.400335576789     0.131453636900     1.007825032230
         H           -2.662540880201    -1.971056576789    -1.099205363100     1.007825032230

  Basis Set: AUG-CC-PVTZ
    Blend: AUG-CC-PVTZ
  Basis Set: (AUG-CC-PVTZ AUX)
    Blend: AUG-CC-PVTZ-JKFIT
	 Reference Energy          =    -496.8444473896375939 [Eh]
	 Singles Energy            =      -0.0000000000000000 [Eh]
	 Same-Spin Energy          =      -0.4944595978147917 [Eh]
	 Opposite-Spin Energy      =      -1.5983503882479455 [Eh]
	 Correlation Energy        =      -2.0928099860627372 [Eh]
	 Total Energy              =    -498.9372573757003124 [Eh]

	 ================> DF-SCS-MP2 Energies <==================
	-----------------------------------------------------------
	 SCS Same-Spin Scale       =       0.3333333333333333 [-]
	 SCS Opposite-Spin Scale   =       1.2000000000000000 [-]
	 SCS Same-Spin Energy      =      -0.1648198659382639 [Eh]
	 SCS Opposite-Spin Energy  =      -1.9180204658975346 [Eh]
	 SCS Correlation Energy    =      -2.0828403318357984 [Eh]
	 SCS Total Energy          =    -498.9272877214734194 [Eh]
	-----------------------------------------------------------

  Dipole Moment: [D]
     X:     0.8515      Y:    -2.5675      Z:    -2.5286     Total:     3.7028

*** Psi4 exiting successfully. Buy a developer a beer!
