                               Psi4 1.3.2 release

  ==> Input File <==

--------------------------------------------------------------------------
#psi4
#
memory 32 gb

molecule  {
0 1
  O       -0.9795470    -0.0831330    -0.7231310
  O       -0.4899730     2.0087470     0.0897980
  O       -2.0025500    -0.0680990     1.3309880
  C        1.8485240    -0.5426110    -0.0314710
  C        1.2868380     0.6338010    -0.8471420
  C        1.7532090    -0.2607150     1.4674660
  C        3.2880220    -0.8256370    -0.4545800
  C       -0.1082690     0.9825120    -0.4201650
  C       -2.0345350    -0.3435730     0.1532740
  C       -3.0337396    -1.2714191    -0.5270286
  H        1.2371820    -1.4239180    -0.2609290
  H        1.9026850     1.5280430    -0.7082120
  H        1.2768590     0.3787260    -1.9135380
  H        2.3119230     0.6465730     1.7229020
  H        2.1770720    -1.0909040     2.0408530
  H        0.7169210    -0.1225920     1.7908070
  H        3.9287710     0.0354160    -0.2359390
  H        3.6876870    -1.6881060     0.0874480
  H        3.3559530    -1.0370340    -1.5265420
  H       -3.5589910    -0.3771620    -1.3307760
  H       -3.9066010    -1.3512680     0.1291360
  H       -2.7361560    -1.9219890    -1.1015230
units angstrom
no_reorient  #important for SAPT in psi4, default
symmetry c1  #important for SAPT in psi4, default
}

set PROPERTIES_ORIGIN ["COM"]
properties('MP2/aug-cc-pvtz', properties = ['dipole'])
--------------------------------------------------------------------------

    Molecular point group: c1
  Charge       = 0
  Multiplicity = 1
  Basis Set: AUG-CC-PVTZ
    Blend: AUG-CC-PVTZ
  Basis Set: (AUG-CC-PVTZ AUX)
    Blend: AUG-CC-PVTZ-JKFIT

    Orbital Energies [Eh]
    ---------------------

    Doubly Occupied:

       1A    -20.628377     2A    -20.564541     3A    -20.564504
       4A    -11.409079     5A    -11.398343     6A    -11.264337
       7A    -11.250949     8A    -11.246125     9A    -11.224923
      10A    -11.216017    11A     -1.486046    12A     -1.405273
      13A     -1.363954    14A     -1.113945    15A     -1.044199
      16A     -0.992333    17A     -0.939036    18A     -0.871280
      19A     -0.795425    20A     -0.744878    21A     -0.718554
      22A     -0.699402    23A     -0.682726    24A     -0.651943
      25A     -0.638915    26A     -0.618787    27A     -0.609228
      28A     -0.590653    29A     -0.562847    30A     -0.552179
      31A     -0.540686    32A     -0.539809    33A     -0.504994
      34A     -0.495761    35A     -0.488000    36A     -0.478775
      37A     -0.472099    38A     -0.469334    39A     -0.437053

  @DF-RHF Final Energy:  -496.80370183234965

   => Energetics <=

    Nuclear Repulsion Energy =            555.4069452681153507
    One-Electron Energy =               -1779.8706746860905241
    Two-Electron Energy =                 727.6600275856255848
    Total Energy =                       -496.8037018323495886
  Basis Set: (AUG-CC-PVTZ AUX)
    Blend: AUG-CC-PVTZ-RI
    Molecular point group: c1

    Geometry (in Angstrom), charge = 0, multiplicity = 1:

       Center              X                  Y                   Z               Mass
    ------------   -----------------  -----------------  -----------------  -----------------
         O           -0.916663027819    -0.108845373680    -0.736503127616    15.994914619570
         O           -0.427089027819     1.983034626320     0.076425872384    15.994914619570
         O           -1.939666027819    -0.093811373680     1.317615872384    15.994914619570
         C            1.911407972181    -0.568323373680    -0.044843127616    12.000000000000
         C            1.349721972181     0.608088626320    -0.860514127616    12.000000000000
         C            1.816092972181    -0.286427373680     1.454093872384    12.000000000000
         C            3.350905972181    -0.851349373680    -0.467952127616    12.000000000000
         C           -0.045385027819     0.956799626320    -0.433537127616    12.000000000000
         C           -1.971651027819    -0.369285373680     0.139901872384    12.000000000000
         C           -2.970855627819    -1.297131473680    -0.540400727616    12.000000000000
         H            1.300065972181    -1.449630373680    -0.274301127616     1.007825032230
         H            1.965568972181     1.502330626320    -0.721584127616     1.007825032230
         H            1.339742972181     0.353013626320    -1.926910127616     1.007825032230
         H            2.374806972181     0.620860626320     1.709529872384     1.007825032230
         H            2.239955972181    -1.116616373680     2.027480872384     1.007825032230
         H            0.779804972181    -0.148304373680     1.777434872384     1.007825032230
         H            3.991654972181     0.009703626320    -0.249311127616     1.007825032230
         H            3.750570972181    -1.713818373680     0.074075872384     1.007825032230
         H            3.418836972181    -1.062746373680    -1.539914127616     1.007825032230
         H           -3.496107027819    -0.402874373680    -1.344148127616     1.007825032230
         H           -3.843717027819    -1.376980373680     0.115763872384     1.007825032230
         H           -2.673272027819    -1.947701373680    -1.114895127616     1.007825032230

  Basis Set: AUG-CC-PVTZ
    Blend: AUG-CC-PVTZ
  Basis Set: (AUG-CC-PVTZ AUX)
    Blend: AUG-CC-PVTZ-JKFIT
	 Reference Energy          =    -496.8037018323496454 [Eh]
	 Singles Energy            =      -0.0000000000000000 [Eh]
	 Same-Spin Energy          =      -0.4954401002549644 [Eh]
	 Opposite-Spin Energy      =      -1.6005599088671880 [Eh]
	 Correlation Energy        =      -2.0960000091221525 [Eh]
	 Total Energy              =    -498.8997018414718241 [Eh]

	 ================> DF-SCS-MP2 Energies <==================
	-----------------------------------------------------------
	 SCS Same-Spin Scale       =       0.3333333333333333 [-]
	 SCS Opposite-Spin Scale   =       1.2000000000000000 [-]
	 SCS Same-Spin Energy      =      -0.1651467000849881 [Eh]
	 SCS Opposite-Spin Energy  =      -1.9206718906406255 [Eh]
	 SCS Correlation Energy    =      -2.0858185907256135 [Eh]
	 SCS Total Energy          =    -498.8895204230752825 [Eh]
	-----------------------------------------------------------

  Dipole Moment: [D]
     X:     0.8265      Y:    -2.5260      Z:    -2.5099     Total:     3.6556

*** Psi4 exiting successfully. Buy a developer a beer!
