                               Psi4 1.3.2 release

  ==> Input File <==

--------------------------------------------------------------------------
#psi4
#
memory 32 gb

molecule  {
0 1
  O       -0.9795470    -0.0831330    -0.7231310
  O       -0.4899730     2.0087470     0.0897980
  O       -2.0025500    -0.0680990     1.3309880
  C        1.8485240    -0.5426110    -0.0314710
  C        1.2695022     0.6729733    -0.9375024
  C        1.7532090    -0.2607150     1.4674660
  C        3.2880220    -0.8256370    -0.4545800
  C       -0.1082690     0.9825120    -0.4201650
  C       -2.0345350    -0.3435730     0.1532740
  C       -3.1365800    -1.0497620    -0.5798680
  H        1.2371820    -1.4239180    -0.2609290
  H        1.9026850     1.5280430    -0.7082120
  H        1.2768590     0.3787260    -1.9135380
  H        2.3119230     0.6465730     1.7229020
  H        2.1770720    -1.0909040     2.0408530
  H        0.7169210    -0.1225920     1.7908070
  H        3.9287710     0.0354160    -0.2359390
  H        3.6876870    -1.6881060     0.0874480
  H        3.3559530    -1.0370340    -1.5265420
  H       -3.5589910    -0.3771620    -1.3307760
  H       -3.9066010    -1.3512680     0.1291360
  H       -2.7361560    -1.9219890    -1.1015230
units angstrom
no_reorient  #important for SAPT in psi4, default
symmetry c1  #important for SAPT in psi4, default
}

set PROPERTIES_ORIGIN ["COM"]
properties('MP2/aug-cc-pvtz', properties = ['dipole'])
--------------------------------------------------------------------------

    Molecular point group: c1
  Charge       = 0
  Multiplicity = 1
  Basis Set: AUG-CC-PVTZ
    Blend: AUG-CC-PVTZ
  Basis Set: (AUG-CC-PVTZ AUX)
    Blend: AUG-CC-PVTZ-JKFIT

    Orbital Energies [Eh]
    ---------------------

    Doubly Occupied:

       1A    -20.626764     2A    -20.564355     3A    -20.562768
       4A    -11.403539     5A    -11.398296     6A    -11.254694
       7A    -11.251189     8A    -11.246994     9A    -11.224567
      10A    -11.216916    11A     -1.484973    12A     -1.404230
      13A     -1.362834    14A     -1.104307    15A     -1.042591
      16A     -0.994088    17A     -0.938628    18A     -0.867353
      19A     -0.790041    20A     -0.740331    21A     -0.702053
      22A     -0.701115    23A     -0.681980    24A     -0.652176
      25A     -0.629261    26A     -0.618284    27A     -0.593659
      28A     -0.589481    29A     -0.575244    30A     -0.558701
      31A     -0.554196    32A     -0.541175    33A     -0.526839
      34A     -0.493270    35A     -0.484293    36A     -0.482272
      37A     -0.475982    38A     -0.463317    39A     -0.434455

  @DF-RHF Final Energy:  -496.85570987818727

   => Energetics <=

    Nuclear Repulsion Energy =            554.4557208479535575
    One-Electron Energy =               -1778.1484451455114595
    Two-Electron Energy =                 726.8370144193706892
    Total Energy =                       -496.8557098781873265
  Basis Set: (AUG-CC-PVTZ AUX)
    Blend: AUG-CC-PVTZ-RI
    Molecular point group: c1

    Geometry (in Angstrom), charge = 0, multiplicity = 1:

       Center              X                  Y                   Z               Mass
    ------------   -----------------  -----------------  -----------------  -----------------
         O           -0.906653810926    -0.130569292699    -0.724576324661    15.994914619570
         O           -0.417079810926     1.961310707301     0.088352675339    15.994914619570
         O           -1.929656810926    -0.115535292699     1.329542675339    15.994914619570
         C            1.921417189074    -0.590047292699    -0.032916324661    12.000000000000
         C            1.342395389074     0.625537007301    -0.938947724661    12.000000000000
         C            1.826102189074    -0.308151292699     1.466020675339    12.000000000000
         C            3.360915189074    -0.873073292699    -0.456025324661    12.000000000000
         C           -0.035375810926     0.935075707301    -0.421610324661    12.000000000000
         C           -1.961641810926    -0.391009292699     0.151828675339    12.000000000000
         C           -3.063686810926    -1.097198292699    -0.581313324661    12.000000000000
         H            1.310075189074    -1.471354292699    -0.262374324661     1.007825032230
         H            1.975578189074     1.480606707301    -0.709657324661     1.007825032230
         H            1.349752189074     0.331289707301    -1.914983324661     1.007825032230
         H            2.384816189074     0.599136707301     1.721456675339     1.007825032230
         H            2.249965189074    -1.138340292699     2.039407675339     1.007825032230
         H            0.789814189074    -0.170028292699     1.789361675339     1.007825032230
         H            4.001664189074    -0.012020292699    -0.237384324661     1.007825032230
         H            3.760580189074    -1.735542292699     0.086002675339     1.007825032230
         H            3.428846189074    -1.084470292699    -1.527987324661     1.007825032230
         H           -3.486097810926    -0.424598292699    -1.332221324661     1.007825032230
         H           -3.833707810926    -1.398704292699     0.127690675339     1.007825032230
         H           -2.663262810926    -1.969425292699    -1.102968324661     1.007825032230

  Basis Set: AUG-CC-PVTZ
    Blend: AUG-CC-PVTZ
  Basis Set: (AUG-CC-PVTZ AUX)
    Blend: AUG-CC-PVTZ-JKFIT
	 Reference Energy          =    -496.8557098781872696 [Eh]
	 Singles Energy            =      -0.0000000000000000 [Eh]
	 Same-Spin Energy          =      -0.4943585323470489 [Eh]
	 Opposite-Spin Energy      =      -1.5978528150121198 [Eh]
	 Correlation Energy        =      -2.0922113473591688 [Eh]
	 Total Energy              =    -498.9479212255464518 [Eh]

	 ================> DF-SCS-MP2 Energies <==================
	-----------------------------------------------------------
	 SCS Same-Spin Scale       =       0.3333333333333333 [-]
	 SCS Opposite-Spin Scale   =       1.2000000000000000 [-]
	 SCS Same-Spin Energy      =      -0.1647861774490163 [Eh]
	 SCS Opposite-Spin Energy  =      -1.9174233780145438 [Eh]
	 SCS Correlation Energy    =      -2.0822095554635602 [Eh]
	 SCS Total Energy          =    -498.9379194336508476 [Eh]
	-----------------------------------------------------------

  Dipole Moment: [D]
     X:     0.8258      Y:    -2.5383      Z:    -2.5419     Total:     3.6860

*** Psi4 exiting successfully. Buy a developer a beer!
