                               Psi4 1.3.2 release

  ==> Input File <==

--------------------------------------------------------------------------
#psi4
#
memory 32 gb

molecule  {
0 1
  O       -0.9795470    -0.0831330    -0.7231310
  O       -0.4899730     2.0087470     0.0897980
  O       -2.0025500    -0.0680990     1.3309880
  C        1.8485240    -0.5426110    -0.0314710
  C        1.2868380     0.6338010    -0.8471420
  C        1.7532090    -0.2607150     1.4674660
  C        3.2880220    -0.8256370    -0.4545800
  C       -0.1082690     0.9825120    -0.4201650
  C       -2.0345350    -0.3435730     0.1532740
  C       -3.0954439    -1.1384248    -0.5587322
  H        1.2371820    -1.4239180    -0.2609290
  H        1.9026850     1.5280430    -0.7082120
  H        1.2768590     0.3787260    -1.9135380
  H        2.3119230     0.6465730     1.7229020
  H        2.1770720    -1.0909040     2.0408530
  H        0.7169210    -0.1225920     1.7908070
  H        3.9287710     0.0354160    -0.2359390
  H        3.6876870    -1.6881060     0.0874480
  H        3.3559530    -1.0370340    -1.5265420
  H       -3.5589910    -0.3771620    -1.3307760
  H       -3.9066010    -1.3512680     0.1291360
  H       -2.7361560    -1.9219890    -1.1015230
units angstrom
no_reorient  #important for SAPT in psi4, default
symmetry c1  #important for SAPT in psi4, default
}

set PROPERTIES_ORIGIN ["COM"]
properties('MP2/aug-cc-pvtz', properties = ['dipole'])
--------------------------------------------------------------------------

    Molecular point group: c1
  Charge       = 0
  Multiplicity = 1
  Basis Set: AUG-CC-PVTZ
    Blend: AUG-CC-PVTZ
  Basis Set: (AUG-CC-PVTZ AUX)
    Blend: AUG-CC-PVTZ-JKFIT

    Orbital Energies [Eh]
    ---------------------

    Doubly Occupied:

       1A    -20.627280     2A    -20.564506     3A    -20.564319
       4A    -11.404948     5A    -11.398395     6A    -11.256553
       7A    -11.250716     8A    -11.245860     9A    -11.224722
      10A    -11.215698    11A     -1.485622    12A     -1.405013
      13A     -1.363515    14A     -1.113728    15A     -1.043050
      16A     -0.991395    17A     -0.938774    18A     -0.868663
      19A     -0.794810    20A     -0.740177    21A     -0.704536
      22A     -0.699259    23A     -0.682846    24A     -0.648801
      25A     -0.628969    26A     -0.619868    27A     -0.605541
      28A     -0.590816    29A     -0.565230    30A     -0.552253
      31A     -0.548667    32A     -0.539905    33A     -0.524205
      34A     -0.495821    35A     -0.487504    36A     -0.479509
      37A     -0.473393    38A     -0.471624    39A     -0.438762

  @DF-RHF Final Energy:  -496.85410626299750

   => Energetics <=

    Nuclear Repulsion Energy =            555.6151183624134546
    One-Electron Energy =               -1780.4279369322637194
    Two-Electron Energy =                 727.9587123068525898
    Total Energy =                       -496.8541062629975613
  Basis Set: (AUG-CC-PVTZ AUX)
    Blend: AUG-CC-PVTZ-RI
    Molecular point group: c1

    Geometry (in Angstrom), charge = 0, multiplicity = 1:

       Center              X                  Y                   Z               Mass
    ------------   -----------------  -----------------  -----------------  -----------------
         O           -0.911523809555    -0.119922182518    -0.733862603047    15.994914619570
         O           -0.421949809555     1.971957817482     0.079066396953    15.994914619570
         O           -1.934526809555    -0.104888182518     1.320256396953    15.994914619570
         C            1.916547190445    -0.579400182518    -0.042202603047    12.000000000000
         C            1.354861190445     0.597011817482    -0.857873603047    12.000000000000
         C            1.821232190445    -0.297504182518     1.456734396953    12.000000000000
         C            3.356045190445    -0.862426182518    -0.465311603047    12.000000000000
         C           -0.040245809555     0.945722817482    -0.430896603047    12.000000000000
         C           -1.966511809555    -0.380362182518     0.142542396953    12.000000000000
         C           -3.027420709555    -1.175213982518    -0.569463803047    12.000000000000
         H            1.305205190445    -1.460707182518    -0.271660603047     1.007825032230
         H            1.970708190445     1.491253817482    -0.718943603047     1.007825032230
         H            1.344882190445     0.341936817482    -1.924269603047     1.007825032230
         H            2.379946190445     0.609783817482     1.712170396953     1.007825032230
         H            2.245095190445    -1.127693182518     2.030121396953     1.007825032230
         H            0.784944190445    -0.159381182518     1.780075396953     1.007825032230
         H            3.996794190445    -0.001373182518    -0.246670603047     1.007825032230
         H            3.755710190445    -1.724895182518     0.076716396953     1.007825032230
         H            3.423976190445    -1.073823182518    -1.537273603047     1.007825032230
         H           -3.490967809555    -0.413951182518    -1.341507603047     1.007825032230
         H           -3.838577809555    -1.388057182518     0.118404396953     1.007825032230
         H           -2.668132809555    -1.958778182518    -1.112254603047     1.007825032230

  Basis Set: AUG-CC-PVTZ
    Blend: AUG-CC-PVTZ
  Basis Set: (AUG-CC-PVTZ AUX)
    Blend: AUG-CC-PVTZ-JKFIT
	 Reference Energy          =    -496.8541062629975045 [Eh]
	 Singles Energy            =      -0.0000000000000000 [Eh]
	 Same-Spin Energy          =      -0.4947455109172099 [Eh]
	 Opposite-Spin Energy      =      -1.5982170789098937 [Eh]
	 Correlation Energy        =      -2.0929625898271036 [Eh]
	 Total Energy              =    -498.9470688528246001 [Eh]

	 ================> DF-SCS-MP2 Energies <==================
	-----------------------------------------------------------
	 SCS Same-Spin Scale       =       0.3333333333333333 [-]
	 SCS Opposite-Spin Scale   =       1.2000000000000000 [-]
	 SCS Same-Spin Energy      =      -0.1649151703057366 [Eh]
	 SCS Opposite-Spin Energy  =      -1.9178604946918725 [Eh]
	 SCS Correlation Energy    =      -2.0827756649976092 [Eh]
	 SCS Total Energy          =    -498.9368819279951026 [Eh]
	-----------------------------------------------------------

  Dipole Moment: [D]
     X:     0.7982      Y:    -2.5150      Z:    -2.5382     Total:     3.6613

*** Psi4 exiting successfully. Buy a developer a beer!
