                               Psi4 1.3.2 release

  ==> Input File <==

--------------------------------------------------------------------------
#psi4
#
memory 32 gb

molecule  {
0 1
  O       -0.9795470    -0.0831330    -0.7231310
  O       -0.4899730     2.0087470     0.0897980
  O       -2.0025500    -0.0680990     1.3309880
  C        1.8485240    -0.5426110    -0.0314710
  C        1.2868380     0.6338010    -0.8471420
  C        1.7532090    -0.2607150     1.4674660
  C        3.2880220    -0.8256370    -0.4545800
  C       -0.1082690     0.9825120    -0.4201650
  C       -2.0345350    -0.3435730     0.1532740
  C       -3.0748758    -1.1827562    -0.5481644
  H        1.2371820    -1.4239180    -0.2609290
  H        1.9026850     1.5280430    -0.7082120
  H        1.2768590     0.3787260    -1.9135380
  H        2.3119230     0.6465730     1.7229020
  H        2.1770720    -1.0909040     2.0408530
  H        0.7169210    -0.1225920     1.7908070
  H        3.9287710     0.0354160    -0.2359390
  H        3.6876870    -1.6881060     0.0874480
  H        3.3559530    -1.0370340    -1.5265420
  H       -3.5589910    -0.3771620    -1.3307760
  H       -3.9066010    -1.3512680     0.1291360
  H       -2.7361560    -1.9219890    -1.1015230
units angstrom
no_reorient  #important for SAPT in psi4, default
symmetry c1  #important for SAPT in psi4, default
}

set PROPERTIES_ORIGIN ["COM"]
properties('MP2/aug-cc-pvtz', properties = ['dipole'])
--------------------------------------------------------------------------

    Molecular point group: c1
  Charge       = 0
  Multiplicity = 1
  Basis Set: AUG-CC-PVTZ
    Blend: AUG-CC-PVTZ
  Basis Set: (AUG-CC-PVTZ AUX)
    Blend: AUG-CC-PVTZ-JKFIT

    Orbital Energies [Eh]
    ---------------------

    Doubly Occupied:

       1A    -20.627622     2A    -20.564487     3A    -20.564277
       4A    -11.405971     5A    -11.398359     6A    -11.258451
       7A    -11.250780     8A    -11.245938     9A    -11.224781
      10A    -11.215790    11A     -1.485731    12A     -1.405043
      13A     -1.363611    14A     -1.113790    15A     -1.043288
      16A     -0.991623    17A     -0.938850    18A     -0.869277
      19A     -0.794961    20A     -0.741090    21A     -0.708379
      22A     -0.699303    23A     -0.682800    24A     -0.649461
      25A     -0.632258    26A     -0.619326    27A     -0.608811
      28A     -0.590610    29A     -0.563830    30A     -0.552149
      31A     -0.544653    32A     -0.539958    33A     -0.519488
      34A     -0.495819    35A     -0.487660    36A     -0.479323
      37A     -0.472774    38A     -0.471756    39A     -0.438280

  @DF-RHF Final Energy:  -496.84194150323231

   => Energetics <=

    Nuclear Repulsion Energy =            555.5677223499608317
    One-Electron Energy =               -1780.2986101277681428
    Two-Electron Energy =                 727.8889462745750052
    Total Energy =                       -496.8419415032323059
  Basis Set: (AUG-CC-PVTZ AUX)
    Blend: AUG-CC-PVTZ-RI
    Molecular point group: c1

    Geometry (in Angstrom), charge = 0, multiplicity = 1:

       Center              X                  Y                   Z               Mass
    ------------   -----------------  -----------------  -----------------  -----------------
         O           -0.913236882310    -0.116229915682    -0.734742772351    15.994914619570
         O           -0.423662882310     1.975650084318     0.078186227649    15.994914619570
         O           -1.936239882310    -0.101195915682     1.319376227649    15.994914619570
         C            1.914834117690    -0.575707915682    -0.043082772351    12.000000000000
         C            1.353148117690     0.600704084318    -0.858753772351    12.000000000000
         C            1.819519117690    -0.293811915682     1.455854227649    12.000000000000
         C            3.354332117690    -0.858733915682    -0.466191772351    12.000000000000
         C           -0.041958882310     0.949415084318    -0.431776772351    12.000000000000
         C           -1.968224882310    -0.376669915682     0.141662227649    12.000000000000
         C           -3.008565682310    -1.215853115682    -0.559776172351    12.000000000000
         H            1.303492117690    -1.457014915682    -0.272540772351     1.007825032230
         H            1.968995117690     1.494946084318    -0.719823772351     1.007825032230
         H            1.343169117690     0.345629084318    -1.925149772351     1.007825032230
         H            2.378233117690     0.613476084318     1.711290227649     1.007825032230
         H            2.243382117690    -1.124000915682     2.029241227649     1.007825032230
         H            0.783231117690    -0.155688915682     1.779195227649     1.007825032230
         H            3.995081117690     0.002319084318    -0.247550772351     1.007825032230
         H            3.753997117690    -1.721202915682     0.075836227649     1.007825032230
         H            3.422263117690    -1.070130915682    -1.538153772351     1.007825032230
         H           -3.492680882310    -0.410258915682    -1.342387772351     1.007825032230
         H           -3.840290882310    -1.384364915682     0.117524227649     1.007825032230
         H           -2.669845882310    -1.955085915682    -1.113134772351     1.007825032230

  Basis Set: AUG-CC-PVTZ
    Blend: AUG-CC-PVTZ
  Basis Set: (AUG-CC-PVTZ AUX)
    Blend: AUG-CC-PVTZ-JKFIT
	 Reference Energy          =    -496.8419415032323059 [Eh]
	 Singles Energy            =      -0.0000000000000000 [Eh]
	 Same-Spin Energy          =      -0.4949098787205438 [Eh]
	 Opposite-Spin Energy      =      -1.5987569442751557 [Eh]
	 Correlation Energy        =      -2.0936668229956994 [Eh]
	 Total Energy              =    -498.9356083262280208 [Eh]

	 ================> DF-SCS-MP2 Energies <==================
	-----------------------------------------------------------
	 SCS Same-Spin Scale       =       0.3333333333333333 [-]
	 SCS Opposite-Spin Scale   =       1.2000000000000000 [-]
	 SCS Same-Spin Energy      =      -0.1649699595735146 [Eh]
	 SCS Opposite-Spin Energy  =      -1.9185083331301866 [Eh]
	 SCS Correlation Energy    =      -2.0834782927037012 [Eh]
	 SCS Total Energy          =    -498.9254197959360226 [Eh]
	-----------------------------------------------------------

  Dipole Moment: [D]
     X:     0.8066      Y:    -2.5214      Z:    -2.5312     Total:     3.6626

*** Psi4 exiting successfully. Buy a developer a beer!
