                               Psi4 1.3.2 release

  ==> Input File <==

--------------------------------------------------------------------------
#psi4
#
memory 32 gb

molecule  {
0 1
  O       -0.9795470    -0.0831330    -0.7231310
  O       -0.4899730     2.0087470     0.0897980
  O       -2.0025500    -0.0680990     1.3309880
  C        1.8485240    -0.5426110    -0.0314710
  C        1.2521664     0.7121456    -1.0278628
  C        1.7532090    -0.2607150     1.4674660
  C        3.2880220    -0.8256370    -0.4545800
  C       -0.1082690     0.9825120    -0.4201650
  C       -2.0345350    -0.3435730     0.1532740
  C       -3.1365800    -1.0497620    -0.5798680
  H        1.2371820    -1.4239180    -0.2609290
  H        1.9026850     1.5280430    -0.7082120
  H        1.2768590     0.3787260    -1.9135380
  H        2.3119230     0.6465730     1.7229020
  H        2.1770720    -1.0909040     2.0408530
  H        0.7169210    -0.1225920     1.7908070
  H        3.9287710     0.0354160    -0.2359390
  H        3.6876870    -1.6881060     0.0874480
  H        3.3559530    -1.0370340    -1.5265420
  H       -3.5589910    -0.3771620    -1.3307760
  H       -3.9066010    -1.3512680     0.1291360
  H       -2.7361560    -1.9219890    -1.1015230
units angstrom
no_reorient  #important for SAPT in psi4, default
symmetry c1  #important for SAPT in psi4, default
}

set PROPERTIES_ORIGIN ["COM"]
properties('MP2/aug-cc-pvtz', properties = ['dipole'])
--------------------------------------------------------------------------

    Molecular point group: c1
  Charge       = 0
  Multiplicity = 1
  Basis Set: AUG-CC-PVTZ
    Blend: AUG-CC-PVTZ
  Basis Set: (AUG-CC-PVTZ AUX)
    Blend: AUG-CC-PVTZ-JKFIT

    Orbital Energies [Eh]
    ---------------------

    Doubly Occupied:

       1A    -20.626742     2A    -20.563907     3A    -20.560957
       4A    -11.402964     5A    -11.399103     6A    -11.256692
       7A    -11.254464     8A    -11.245593     9A    -11.225083
      10A    -11.218778    11A     -1.484336    12A     -1.403307
      13A     -1.362137    14A     -1.097251    15A     -1.042306
      16A     -0.996794    17A     -0.939122    18A     -0.867497
      19A     -0.786886    20A     -0.742530    21A     -0.709647
      22A     -0.700418    23A     -0.680898    24A     -0.655914
      25A     -0.628266    26A     -0.616422    27A     -0.593340
      28A     -0.588688    29A     -0.580670    30A     -0.560014
      31A     -0.556201    32A     -0.542318    33A     -0.526223
      34A     -0.492541    35A     -0.486413    36A     -0.481659
      37A     -0.475587    38A     -0.454822    39A     -0.423282

  @DF-RHF Final Energy:  -496.82833395531617

   => Energetics <=

    Nuclear Repulsion Energy =            553.2415976346720754
    One-Electron Energy =               -1775.6803194127610368
    Two-Electron Energy =                 725.6103878227728501
    Total Energy =                       -496.8283339553162250
  Basis Set: (AUG-CC-PVTZ AUX)
    Blend: AUG-CC-PVTZ-RI
    Molecular point group: c1

    Geometry (in Angstrom), charge = 0, multiplicity = 1:

       Center              X                  Y                   Z               Mass
    ------------   -----------------  -----------------  -----------------  -----------------
         O           -0.905209949477    -0.133831869207    -0.717050401539    15.994914619570
         O           -0.415635949477     1.958048130793     0.095878598461    15.994914619570
         O           -1.928212949477    -0.118797869207     1.337068598461    15.994914619570
         C            1.922861050523    -0.593309869207    -0.025390401539    12.000000000000
         C            1.326503450523     0.661446730793    -1.021782201539    12.000000000000
         C            1.827546050523    -0.311413869207     1.473546598461    12.000000000000
         C            3.362359050523    -0.876335869207    -0.448499401539    12.000000000000
         C           -0.033931949477     0.931813130793    -0.414084401539    12.000000000000
         C           -1.960197949477    -0.394271869207     0.159354598461    12.000000000000
         C           -3.062242949477    -1.100460869207    -0.573787401539    12.000000000000
         H            1.311519050523    -1.474616869207    -0.254848401539     1.007825032230
         H            1.977022050523     1.477344130793    -0.702131401539     1.007825032230
         H            1.351196050523     0.328027130793    -1.907457401539     1.007825032230
         H            2.386260050523     0.595874130793     1.728982598461     1.007825032230
         H            2.251409050523    -1.141602869207     2.046933598461     1.007825032230
         H            0.791258050523    -0.173290869207     1.796887598461     1.007825032230
         H            4.003108050523    -0.015282869207    -0.229858401539     1.007825032230
         H            3.762024050523    -1.738804869207     0.093528598461     1.007825032230
         H            3.430290050523    -1.087732869207    -1.520461401539     1.007825032230
         H           -3.484653949477    -0.427860869207    -1.324695401539     1.007825032230
         H           -3.832263949477    -1.401966869207     0.135216598461     1.007825032230
         H           -2.661818949477    -1.972687869207    -1.095442401539     1.007825032230

  Basis Set: AUG-CC-PVTZ
    Blend: AUG-CC-PVTZ
  Basis Set: (AUG-CC-PVTZ AUX)
    Blend: AUG-CC-PVTZ-JKFIT
	 Reference Energy          =    -496.8283339553161682 [Eh]
	 Singles Energy            =      -0.0000000000000000 [Eh]
	 Same-Spin Energy          =      -0.4947050129480027 [Eh]
	 Opposite-Spin Energy      =      -1.5991681652421192 [Eh]
	 Correlation Energy        =      -2.0938731781901221 [Eh]
	 Total Energy              =    -498.9222071335062765 [Eh]

	 ================> DF-SCS-MP2 Energies <==================
	-----------------------------------------------------------
	 SCS Same-Spin Scale       =       0.3333333333333333 [-]
	 SCS Opposite-Spin Scale   =       1.2000000000000000 [-]
	 SCS Same-Spin Energy      =      -0.1649016709826676 [Eh]
	 SCS Opposite-Spin Energy  =      -1.9190017982905430 [Eh]
	 SCS Correlation Energy    =      -2.0839034692732104 [Eh]
	 SCS Total Energy          =    -498.9122374245893639 [Eh]
	-----------------------------------------------------------

  Dipole Moment: [D]
     X:     0.8810      Y:    -2.6019      Z:    -2.5068     Total:     3.7188

*** Psi4 exiting successfully. Buy a developer a beer!
