                               Psi4 1.3.2 release

  ==> Input File <==

--------------------------------------------------------------------------
#psi4
#
memory 32 gb

molecule  {
0 1
  O       -0.9795470    -0.0831330    -0.7231310
  O       -0.4899730     2.0087470     0.0897980
  O       -2.0025500    -0.0680990     1.3309880
  C        1.8485240    -0.5426110    -0.0314710
  C        1.2434985     0.7317317    -1.0730430
  C        1.7532090    -0.2607150     1.4674660
  C        3.2880220    -0.8256370    -0.4545800
  C       -0.1082690     0.9825120    -0.4201650
  C       -2.0345350    -0.3435730     0.1532740
  C       -3.1365800    -1.0497620    -0.5798680
  H        1.2371820    -1.4239180    -0.2609290
  H        1.9026850     1.5280430    -0.7082120
  H        1.2768590     0.3787260    -1.9135380
  H        2.3119230     0.6465730     1.7229020
  H        2.1770720    -1.0909040     2.0408530
  H        0.7169210    -0.1225920     1.7908070
  H        3.9287710     0.0354160    -0.2359390
  H        3.6876870    -1.6881060     0.0874480
  H        3.3559530    -1.0370340    -1.5265420
  H       -3.5589910    -0.3771620    -1.3307760
  H       -3.9066010    -1.3512680     0.1291360
  H       -2.7361560    -1.9219890    -1.1015230
units angstrom
no_reorient  #important for SAPT in psi4, default
symmetry c1  #important for SAPT in psi4, default
}

set PROPERTIES_ORIGIN ["COM"]
properties('MP2/aug-cc-pvtz', properties = ['dipole'])
--------------------------------------------------------------------------

    Molecular point group: c1
  Charge       = 0
  Multiplicity = 1
  Basis Set: AUG-CC-PVTZ
    Blend: AUG-CC-PVTZ
  Basis Set: (AUG-CC-PVTZ AUX)
    Blend: AUG-CC-PVTZ-JKFIT

    Orbital Energies [Eh]
    ---------------------

    Doubly Occupied:

       1A    -20.626695     2A    -20.563678     3A    -20.560078
       4A    -11.402666     5A    -11.399865     6A    -11.259519
       7A    -11.254341     8A    -11.245752     9A    -11.225560
      10A    -11.219857    11A     -1.483988    12A     -1.402848
      13A     -1.361778    14A     -1.094459    15A     -1.042180
      16A     -0.998170    17A     -0.939553    18A     -0.867950
      19A     -0.785925    20A     -0.744559    21A     -0.714192
      22A     -0.700003    23A     -0.680318    24A     -0.656969
      25A     -0.627535    26A     -0.615787    27A     -0.593126
      28A     -0.588330    29A     -0.582708    30A     -0.560245
      31A     -0.556944    32A     -0.542920    33A     -0.525891
      34A     -0.492546    35A     -0.487697    36A     -0.481098
      37A     -0.475373    38A     -0.451584    39A     -0.415485

  @DF-RHF Final Energy:  -496.80728899204865

   => Energetics <=

    Nuclear Repulsion Energy =            552.6242915890820768
    One-Electron Energy =               -1774.4068147828452311
    Two-Electron Energy =                 724.9752342017145565
    Total Energy =                       -496.8072889920485977
  Basis Set: (AUG-CC-PVTZ AUX)
    Blend: AUG-CC-PVTZ-RI
    Molecular point group: c1

    Geometry (in Angstrom), charge = 0, multiplicity = 1:

       Center              X                  Y                   Z               Mass
    ------------   -----------------  -----------------  -----------------  -----------------
         O           -0.904488018753    -0.135463153297    -0.713287439979    15.994914619570
         O           -0.414914018753     1.956416846703     0.099641560021    15.994914619570
         O           -1.927491018753    -0.120429153297     1.340831560021    15.994914619570
         C            1.923582981247    -0.594941153297    -0.021627439979    12.000000000000
         C            1.318557481247     0.679401546703    -1.063199439979    12.000000000000
         C            1.828267981247    -0.313045153297     1.477309560021    12.000000000000
         C            3.363080981247    -0.877967153297    -0.444736439979    12.000000000000
         C           -0.033210018753     0.930181846703    -0.410321439979    12.000000000000
         C           -1.959476018753    -0.395903153297     0.163117560021    12.000000000000
         C           -3.061521018753    -1.102092153297    -0.570024439979    12.000000000000
         H            1.312240981247    -1.476248153297    -0.251085439979     1.007825032230
         H            1.977743981247     1.475712846703    -0.698368439979     1.007825032230
         H            1.351917981247     0.326395846703    -1.903694439979     1.007825032230
         H            2.386981981247     0.594242846703     1.732745560021     1.007825032230
         H            2.252130981247    -1.143234153297     2.050696560021     1.007825032230
         H            0.791979981247    -0.174922153297     1.800650560021     1.007825032230
         H            4.003829981247    -0.016914153297    -0.226095439979     1.007825032230
         H            3.762745981247    -1.740436153297     0.097291560021     1.007825032230
         H            3.431011981247    -1.089364153297    -1.516698439979     1.007825032230
         H           -3.483932018753    -0.429492153297    -1.320932439979     1.007825032230
         H           -3.831542018753    -1.403598153297     0.138979560021     1.007825032230
         H           -2.661097018753    -1.974319153297    -1.091679439979     1.007825032230

  Basis Set: AUG-CC-PVTZ
    Blend: AUG-CC-PVTZ
  Basis Set: (AUG-CC-PVTZ AUX)
    Blend: AUG-CC-PVTZ-JKFIT
	 Reference Energy          =    -496.8072889920486546 [Eh]
	 Singles Energy            =      -0.0000000000000000 [Eh]
	 Same-Spin Energy          =      -0.4950894272960104 [Eh]
	 Opposite-Spin Energy      =      -1.6003053059613528 [Eh]
	 Correlation Energy        =      -2.0953947332573630 [Eh]
	 Total Energy              =    -498.9026837253060194 [Eh]

	 ================> DF-SCS-MP2 Energies <==================
	-----------------------------------------------------------
	 SCS Same-Spin Scale       =       0.3333333333333333 [-]
	 SCS Opposite-Spin Scale   =       1.2000000000000000 [-]
	 SCS Same-Spin Energy      =      -0.1650298090986701 [Eh]
	 SCS Opposite-Spin Energy  =      -1.9203663671536233 [Eh]
	 SCS Correlation Energy    =      -2.0853961762522935 [Eh]
	 SCS Total Energy          =    -498.8926851683009431 [Eh]
	-----------------------------------------------------------

  Dipole Moment: [D]
     X:     0.9139      Y:    -2.6417      Z:    -2.4763     Total:     3.7344

*** Psi4 exiting successfully. Buy a developer a beer!
