                               Psi4 1.3.2 release

  ==> Input File <==

--------------------------------------------------------------------------
#psi4
#
memory 32 gb

molecule  {
0 1
  O       -0.9795470    -0.0831330    -0.7231310
  O       -0.4899730     2.0087470     0.0897980
  O       -2.0025500    -0.0680990     1.3309880
  C        1.8485240    -0.5426110    -0.0314710
  C        1.2868380     0.6338010    -0.8471420
  C        1.7532090    -0.2607150     1.4674660
  C        3.2880220    -0.8256370    -0.4545800
  C       -0.1082690     0.9825120    -0.4201650
  C       -2.0345350    -0.3435730     0.1532740
  C       -3.0543077    -1.2270877    -0.5375965
  H        1.2371820    -1.4239180    -0.2609290
  H        1.9026850     1.5280430    -0.7082120
  H        1.2768590     0.3787260    -1.9135380
  H        2.3119230     0.6465730     1.7229020
  H        2.1770720    -1.0909040     2.0408530
  H        0.7169210    -0.1225920     1.7908070
  H        3.9287710     0.0354160    -0.2359390
  H        3.6876870    -1.6881060     0.0874480
  H        3.3559530    -1.0370340    -1.5265420
  H       -3.5589910    -0.3771620    -1.3307760
  H       -3.9066010    -1.3512680     0.1291360
  H       -2.7361560    -1.9219890    -1.1015230
units angstrom
no_reorient  #important for SAPT in psi4, default
symmetry c1  #important for SAPT in psi4, default
}

set PROPERTIES_ORIGIN ["COM"]
properties('MP2/aug-cc-pvtz', properties = ['dipole'])
--------------------------------------------------------------------------

    Molecular point group: c1
  Charge       = 0
  Multiplicity = 1
  Basis Set: AUG-CC-PVTZ
    Blend: AUG-CC-PVTZ
  Basis Set: (AUG-CC-PVTZ AUX)
    Blend: AUG-CC-PVTZ-JKFIT

    Orbital Energies [Eh]
    ---------------------

    Doubly Occupied:

       1A    -20.627988     2A    -20.564487     3A    -20.564354
       4A    -11.407358     5A    -11.398342     6A    -11.261053
       7A    -11.250858     8A    -11.246027     9A    -11.224848
      10A    -11.215897    11A     -1.485873    12A     -1.405131
      13A     -1.363759    14A     -1.113862    15A     -1.043660
      16A     -0.991934    17A     -0.938938    18A     -0.870145
      19A     -0.795164    20A     -0.742567    21A     -0.713294
      22A     -0.699346    23A     -0.682752    24A     -0.650538
      25A     -0.636023    26A     -0.618971    27A     -0.609659
      28A     -0.590639    29A     -0.563158    30A     -0.552156
      31A     -0.541914    32A     -0.539981    33A     -0.512573
      34A     -0.495811    35A     -0.487827    36A     -0.479067
      37A     -0.471998    38A     -0.471477    39A     -0.437724

  @DF-RHF Final Energy:  -496.82510462626516

   => Energetics <=

    Nuclear Repulsion Energy =            555.4984151050130095
    One-Electron Energy =               -1780.1127295003054769
    Two-Electron Energy =                 727.7892097690273658
    Total Energy =                       -496.8251046262651016
  Basis Set: (AUG-CC-PVTZ AUX)
    Blend: AUG-CC-PVTZ-RI
    Molecular point group: c1

    Geometry (in Angstrom), charge = 0, multiplicity = 1:

       Center              X                  Y                   Z               Mass
    ------------   -----------------  -----------------  -----------------  -----------------
         O           -0.914949955065    -0.112537640517    -0.735622949983    15.994914619570
         O           -0.425375955065     1.979342359483     0.077306050017    15.994914619570
         O           -1.937952955065    -0.097503640517     1.318496050017    15.994914619570
         C            1.913121044935    -0.572015640517    -0.043962949983    12.000000000000
         C            1.351435044935     0.604396359483    -0.859633949983    12.000000000000
         C            1.817806044935    -0.290119640517     1.454974050017    12.000000000000
         C            3.352619044935    -0.855041640517    -0.467071949983    12.000000000000
         C           -0.043671955065     0.953107359483    -0.432656949983    12.000000000000
         C           -1.969937955065    -0.372977640517     0.140782050017    12.000000000000
         C           -2.989710655065    -1.256492340517    -0.550088449983    12.000000000000
         H            1.301779044935    -1.453322640517    -0.273420949983     1.007825032230
         H            1.967282044935     1.498638359483    -0.720703949983     1.007825032230
         H            1.341456044935     0.349321359483    -1.926029949983     1.007825032230
         H            2.376520044935     0.617168359483     1.710410050017     1.007825032230
         H            2.241669044935    -1.120308640517     2.028361050017     1.007825032230
         H            0.781518044935    -0.151996640517     1.778315050017     1.007825032230
         H            3.993368044935     0.006011359483    -0.248430949983     1.007825032230
         H            3.752284044935    -1.717510640517     0.074956050017     1.007825032230
         H            3.420550044935    -1.066438640517    -1.539033949983     1.007825032230
         H           -3.494393955065    -0.406566640517    -1.343267949983     1.007825032230
         H           -3.842003955065    -1.380672640517     0.116644050017     1.007825032230
         H           -2.671558955065    -1.951393640517    -1.114014949983     1.007825032230

  Basis Set: AUG-CC-PVTZ
    Blend: AUG-CC-PVTZ
  Basis Set: (AUG-CC-PVTZ AUX)
    Blend: AUG-CC-PVTZ-JKFIT
	 Reference Energy          =    -496.8251046262651585 [Eh]
	 Singles Energy            =      -0.0000000000000000 [Eh]
	 Same-Spin Energy          =      -0.4951407108599752 [Eh]
	 Opposite-Spin Energy      =      -1.5995348571381001 [Eh]
	 Correlation Energy        =      -2.0946755679980753 [Eh]
	 Total Energy              =    -498.9197801942632395 [Eh]

	 ================> DF-SCS-MP2 Energies <==================
	-----------------------------------------------------------
	 SCS Same-Spin Scale       =       0.3333333333333333 [-]
	 SCS Opposite-Spin Scale   =       1.2000000000000000 [-]
	 SCS Same-Spin Energy      =      -0.1650469036199917 [Eh]
	 SCS Opposite-Spin Energy  =      -1.9194418285657200 [Eh]
	 SCS Correlation Energy    =      -2.0844887321857115 [Eh]
	 SCS Total Energy          =    -498.9095933584508771 [Eh]
	-----------------------------------------------------------

  Dipole Moment: [D]
     X:     0.8162      Y:    -2.5252      Z:    -2.5214     Total:     3.6607

*** Psi4 exiting successfully. Buy a developer a beer!
