                               Psi4 1.3.2 release

  ==> Input File <==

--------------------------------------------------------------------------
#psi4
#
memory 32 gb

molecule  {
0 1
  O       -0.9795470    -0.0831330    -0.7231310
  O       -0.4899730     2.0087470     0.0897980
  O       -2.0025500    -0.0680990     1.3309880
  C        1.8485240    -0.5426110    -0.0314710
  C        1.2781701     0.6533871    -0.8923222
  C        1.7532090    -0.2607150     1.4674660
  C        3.2880220    -0.8256370    -0.4545800
  C       -0.1082690     0.9825120    -0.4201650
  C       -2.0345350    -0.3435730     0.1532740
  C       -3.1365800    -1.0497620    -0.5798680
  H        1.2371820    -1.4239180    -0.2609290
  H        1.9026850     1.5280430    -0.7082120
  H        1.2768590     0.3787260    -1.9135380
  H        2.3119230     0.6465730     1.7229020
  H        2.1770720    -1.0909040     2.0408530
  H        0.7169210    -0.1225920     1.7908070
  H        3.9287710     0.0354160    -0.2359390
  H        3.6876870    -1.6881060     0.0874480
  H        3.3559530    -1.0370340    -1.5265420
  H       -3.5589910    -0.3771620    -1.3307760
  H       -3.9066010    -1.3512680     0.1291360
  H       -2.7361560    -1.9219890    -1.1015230
units angstrom
no_reorient  #important for SAPT in psi4, default
symmetry c1  #important for SAPT in psi4, default
}

set PROPERTIES_ORIGIN ["COM"]
properties('MP2/aug-cc-pvtz', properties = ['dipole'])
--------------------------------------------------------------------------

    Molecular point group: c1
  Charge       = 0
  Multiplicity = 1
  Basis Set: AUG-CC-PVTZ
    Blend: AUG-CC-PVTZ
  Basis Set: (AUG-CC-PVTZ AUX)
    Blend: AUG-CC-PVTZ-JKFIT

    Orbital Energies [Eh]
    ---------------------

    Doubly Occupied:

       1A    -20.626737     2A    -20.564571     3A    -20.563688
       4A    -11.403813     5A    -11.398279     6A    -11.254799
       7A    -11.248760     8A    -11.248247     9A    -11.224526
      10A    -11.216166    11A     -1.485258    12A     -1.404690
      13A     -1.363168    14A     -1.108658    15A     -1.042742
      16A     -0.992676    17A     -0.938575    18A     -0.867640
      19A     -0.792183    20A     -0.739782    21A     -0.701675
      22A     -0.699609    23A     -0.682430    24A     -0.650147
      25A     -0.629374    26A     -0.619489    27A     -0.593925
      28A     -0.589818    29A     -0.572448    30A     -0.557386
      31A     -0.552906    32A     -0.540547    33A     -0.527122
      34A     -0.494209    35A     -0.485359    36A     -0.480805
      37A     -0.475672    38A     -0.467757    39A     -0.437641

  @DF-RHF Final Energy:  -496.86220127499155

   => Energetics <=

    Nuclear Repulsion Energy =            555.0533990846454344
    One-Electron Energy =               -1779.3446514128411309
    Two-Electron Energy =                 727.4290510532041480
    Total Energy =                       -496.8622012749915484
  Basis Set: (AUG-CC-PVTZ AUX)
    Blend: AUG-CC-PVTZ-RI
    Molecular point group: c1

    Geometry (in Angstrom), charge = 0, multiplicity = 1:

       Center              X                  Y                   Z               Mass
    ------------   -----------------  -----------------  -----------------  -----------------
         O           -0.907375741650    -0.128938000281    -0.728339286221    15.994914619570
         O           -0.417801741650     1.962941999719     0.084589713779    15.994914619570
         O           -1.930378741650    -0.113904000281     1.325779713779    15.994914619570
         C            1.920695258350    -0.588416000281    -0.036679286221    12.000000000000
         C            1.350341358350     0.607582099719    -0.897530486221    12.000000000000
         C            1.825380258350    -0.306520000281     1.462257713779    12.000000000000
         C            3.360193258350    -0.871442000281    -0.459788286221    12.000000000000
         C           -0.036097741650     0.936706999719    -0.425373286221    12.000000000000
         C           -1.962363741650    -0.389378000281     0.148065713779    12.000000000000
         C           -3.064408741650    -1.095567000281    -0.585076286221    12.000000000000
         H            1.309353258350    -1.469723000281    -0.266137286221     1.007825032230
         H            1.974856258350     1.482237999719    -0.713420286221     1.007825032230
         H            1.349030258350     0.332920999719    -1.918746286221     1.007825032230
         H            2.384094258350     0.600767999719     1.717693713779     1.007825032230
         H            2.249243258350    -1.136709000281     2.035644713779     1.007825032230
         H            0.789092258350    -0.168397000281     1.785598713779     1.007825032230
         H            4.000942258350    -0.010389000281    -0.241147286221     1.007825032230
         H            3.759858258350    -1.733911000281     0.082239713779     1.007825032230
         H            3.428124258350    -1.082839000281    -1.531750286221     1.007825032230
         H           -3.486819741650    -0.422967000281    -1.335984286221     1.007825032230
         H           -3.834429741650    -1.397073000281     0.123927713779     1.007825032230
         H           -2.663984741650    -1.967794000281    -1.106731286221     1.007825032230

  Basis Set: AUG-CC-PVTZ
    Blend: AUG-CC-PVTZ
  Basis Set: (AUG-CC-PVTZ AUX)
    Blend: AUG-CC-PVTZ-JKFIT
	 Reference Energy          =    -496.8622012749915484 [Eh]
	 Singles Energy            =      -0.0000000000000000 [Eh]
	 Same-Spin Energy          =      -0.4944073777497702 [Eh]
	 Opposite-Spin Energy      =      -1.5976746923681366 [Eh]
	 Correlation Energy        =      -2.0920820701179070 [Eh]
	 Total Energy              =    -498.9542833451094452 [Eh]

	 ================> DF-SCS-MP2 Energies <==================
	-----------------------------------------------------------
	 SCS Same-Spin Scale       =       0.3333333333333333 [-]
	 SCS Opposite-Spin Scale   =       1.2000000000000000 [-]
	 SCS Same-Spin Energy      =      -0.1648024592499234 [Eh]
	 SCS Opposite-Spin Energy  =      -1.9172096308417639 [Eh]
	 SCS Correlation Energy    =      -2.0820120900916872 [Eh]
	 SCS Total Energy          =    -498.9442133650832147 [Eh]
	-----------------------------------------------------------

  Dipole Moment: [D]
     X:     0.8039      Y:    -2.5147      Z:    -2.5462     Total:     3.6678

*** Psi4 exiting successfully. Buy a developer a beer!
