                               Psi4 1.3.2 release

  ==> Input File <==

--------------------------------------------------------------------------
#psi4
#
memory 32 gb

molecule  {
0 1
  O       -0.9795470    -0.0831330    -0.7231310
  O       -0.4899730     2.0087470     0.0897980
  O       -2.0025500    -0.0680990     1.3309880
  C        1.8485240    -0.5426110    -0.0314710
  C        1.2868380     0.6338010    -0.8471420
  C        1.7532090    -0.2607150     1.4674660
  C        3.2880220    -0.8256370    -0.4545800
  C       -0.1082690     0.9825120    -0.4201650
  C       -2.0345350    -0.3435730     0.1532740
  C       -3.1160119    -1.0940934    -0.5693001
  H        1.2371820    -1.4239180    -0.2609290
  H        1.9026850     1.5280430    -0.7082120
  H        1.2768590     0.3787260    -1.9135380
  H        2.3119230     0.6465730     1.7229020
  H        2.1770720    -1.0909040     2.0408530
  H        0.7169210    -0.1225920     1.7908070
  H        3.9287710     0.0354160    -0.2359390
  H        3.6876870    -1.6881060     0.0874480
  H        3.3559530    -1.0370340    -1.5265420
  H       -3.5589910    -0.3771620    -1.3307760
  H       -3.9066010    -1.3512680     0.1291360
  H       -2.7361560    -1.9219890    -1.1015230
units angstrom
no_reorient  #important for SAPT in psi4, default
symmetry c1  #important for SAPT in psi4, default
}

set PROPERTIES_ORIGIN ["COM"]
properties('MP2/aug-cc-pvtz', properties = ['dipole'])
--------------------------------------------------------------------------

    Molecular point group: c1
  Charge       = 0
  Multiplicity = 1
  Basis Set: AUG-CC-PVTZ
    Blend: AUG-CC-PVTZ
  Basis Set: (AUG-CC-PVTZ AUX)
    Blend: AUG-CC-PVTZ-JKFIT

    Orbital Energies [Eh]
    ---------------------

    Doubly Occupied:

       1A    -20.626967     2A    -20.564546     3A    -20.564486
       4A    -11.404312     5A    -11.398451     6A    -11.255368
       7A    -11.250667     8A    -11.245795     9A    -11.224673
      10A    -11.215624    11A     -1.485550    12A     -1.405047
      13A     -1.363473    14A     -1.113678    15A     -1.042920
      16A     -0.991249    17A     -0.938712    18A     -0.868295
      19A     -0.794706    20A     -0.739652    21A     -0.702306
      22A     -0.699037    23A     -0.682859    24A     -0.648517
      25A     -0.627842    26A     -0.620426    27A     -0.599232
      28A     -0.591591    29A     -0.567705    30A     -0.553531
      31A     -0.551283    32A     -0.539853    33A     -0.526588
      34A     -0.495829    35A     -0.487355    36A     -0.479613
      37A     -0.473694    38A     -0.471477    39A     -0.439191

  @DF-RHF Final Energy:  -496.86149467697544

   => Energetics <=

    Nuclear Repulsion Energy =            555.6409278772730431
    One-Electron Energy =               -1780.5006424507282645
    Two-Electron Energy =                 727.9982198964797817
    Total Energy =                       -496.8614946769754397
  Basis Set: (AUG-CC-PVTZ AUX)
    Blend: AUG-CC-PVTZ-RI
    Molecular point group: c1

    Geometry (in Angstrom), charge = 0, multiplicity = 1:

       Center              X                  Y                   Z               Mass
    ------------   -----------------  -----------------  -----------------  -----------------
         O           -0.909810745129    -0.123614449355    -0.732982425414    15.994914619570
         O           -0.420236745129     1.968265550645     0.079946574586    15.994914619570
         O           -1.932813745129    -0.108580449355     1.321136574586    15.994914619570
         C            1.918260254871    -0.583092449355    -0.041322425414    12.000000000000
         C            1.356574254871     0.593319550645    -0.856993425414    12.000000000000
         C            1.822945254871    -0.301196449355     1.457614574586    12.000000000000
         C            3.357758254871    -0.866118449355    -0.464431425414    12.000000000000
         C           -0.038532745129     0.942030550645    -0.430016425414    12.000000000000
         C           -1.964798745129    -0.384054449355     0.143422574586    12.000000000000
         C           -3.046275645129    -1.134574849355    -0.579151525414    12.000000000000
         H            1.306918254871    -1.464399449355    -0.270780425414     1.007825032230
         H            1.972421254871     1.487561550645    -0.718063425414     1.007825032230
         H            1.346595254871     0.338244550645    -1.923389425414     1.007825032230
         H            2.381659254871     0.606091550645     1.713050574586     1.007825032230
         H            2.246808254871    -1.131385449355     2.031001574586     1.007825032230
         H            0.786657254871    -0.163073449355     1.780955574586     1.007825032230
         H            3.998507254871    -0.005065449355    -0.245790425414     1.007825032230
         H            3.757423254871    -1.728587449355     0.077596574586     1.007825032230
         H            3.425689254871    -1.077515449355    -1.536393425414     1.007825032230
         H           -3.489254745129    -0.417643449355    -1.340627425414     1.007825032230
         H           -3.836864745129    -1.391749449355     0.119284574586     1.007825032230
         H           -2.666419745129    -1.962470449355    -1.111374425414     1.007825032230

  Basis Set: AUG-CC-PVTZ
    Blend: AUG-CC-PVTZ
  Basis Set: (AUG-CC-PVTZ AUX)
    Blend: AUG-CC-PVTZ-JKFIT
	 Reference Energy          =    -496.8614946769754397 [Eh]
	 Singles Energy            =      -0.0000000000000000 [Eh]
	 Same-Spin Energy          =      -0.4946463605613591 [Eh]
	 Opposite-Spin Energy      =      -1.5979057474410328 [Eh]
	 Correlation Energy        =      -2.0925521080023919 [Eh]
	 Total Energy              =    -498.9540467849778338 [Eh]

	 ================> DF-SCS-MP2 Energies <==================
	-----------------------------------------------------------
	 SCS Same-Spin Scale       =       0.3333333333333333 [-]
	 SCS Opposite-Spin Scale   =       1.2000000000000000 [-]
	 SCS Same-Spin Energy      =      -0.1648821201871197 [Eh]
	 SCS Opposite-Spin Energy  =      -1.9174868969292391 [Eh]
	 SCS Correlation Energy    =      -2.0823690171163589 [Eh]
	 SCS Total Energy          =    -498.9438636940918173 [Eh]
	-----------------------------------------------------------

  Dipole Moment: [D]
     X:     0.7913      Y:    -2.5067      Z:    -2.5416     Total:     3.6565

*** Psi4 exiting successfully. Buy a developer a beer!
