                               Psi4 1.3.2 release

  ==> Input File <==

--------------------------------------------------------------------------
#psi4
#
memory 32 gb

molecule  {
-2 1
  O       -1.3022598    -0.0995720    -0.0000436
  O        0.8107920    -1.0237360    -0.0000120
  O        0.4813280     1.2139460    -0.0000050
  C        0.0000340    -0.0000480     0.0000670
units angstrom
no_reorient  #important for SAPT in psi4, default
symmetry c1  #important for SAPT in psi4, default
}

set PROPERTIES_ORIGIN ["COM"]
properties('MP2/aug-cc-pvtz', properties = ['dipole'])
--------------------------------------------------------------------------

    Molecular point group: c1
  Charge       = -2
  Multiplicity = 1
  Basis Set: AUG-CC-PVTZ
    Blend: AUG-CC-PVTZ
  Basis Set: (AUG-CC-PVTZ AUX)
    Blend: AUG-CC-PVTZ-JKFIT

    Orbital Energies [Eh]
    ---------------------

    Doubly Occupied:

       1A    -20.068441     2A    -20.062521     3A    -20.056710
       4A    -10.931171     5A     -0.947041     6A     -0.816804
       7A     -0.801700     8A     -0.272240     9A     -0.179424
      10A     -0.173514    11A     -0.146604    12A     -0.012537
      13A     -0.005158    14A      0.019598    15A      0.029359
      16A      0.055172

  @DF-RHF Final Energy:  -262.40527088664805

   => Energetics <=

    Nuclear Repulsion Energy =            103.2969817895115483
    One-Electron Energy =                -582.6650349118152690
    Two-Electron Energy =                 216.9627822356556521
    Total Energy =                       -262.4052708866480543
  Basis Set: (AUG-CC-PVTZ AUX)
    Blend: AUG-CC-PVTZ-RI
    Molecular point group: c1

    Geometry (in Angstrom), charge = -2, multiplicity = 1:

       Center              X                  Y                   Z               Mass
    ------------   -----------------  -----------------  -----------------  -----------------
         O           -1.299562826989    -0.123730994072    -0.000040844436    15.994914619570
         O            0.813488973011    -1.047894994072    -0.000009244436    15.994914619570
         O            0.484024973011     1.189787005928    -0.000002244436    15.994914619570
         C            0.002730973011    -0.024206994072     0.000069755564    12.000000000000

  Basis Set: AUG-CC-PVTZ
    Blend: AUG-CC-PVTZ
  Basis Set: (AUG-CC-PVTZ AUX)
    Blend: AUG-CC-PVTZ-JKFIT
	 Reference Energy          =    -262.4052708866480543 [Eh]
	 Singles Energy            =      -0.0000000000000000 [Eh]
	 Same-Spin Energy          =      -0.2574576867852529 [Eh]
	 Opposite-Spin Energy      =      -0.7115205592482381 [Eh]
	 Correlation Energy        =      -0.9689782460334910 [Eh]
	 Total Energy              =    -263.3742491326815411 [Eh]

	 ================> DF-SCS-MP2 Energies <==================
	-----------------------------------------------------------
	 SCS Same-Spin Scale       =       0.3333333333333333 [-]
	 SCS Opposite-Spin Scale   =       1.2000000000000000 [-]
	 SCS Same-Spin Energy      =      -0.0858192289284176 [Eh]
	 SCS Opposite-Spin Energy  =      -0.8538246710978857 [Eh]
	 SCS Correlation Energy    =      -0.9396439000263034 [Eh]
	 SCS Total Energy          =    -263.3449147866743374 [Eh]
	-----------------------------------------------------------

  Dipole Moment: [D]
     X:     0.0133      Y:    -0.0903      Z:     0.0000     Total:     0.0912

*** Psi4 exiting successfully. Buy a developer a beer!
