                               Psi4 1.3.2 release

  ==> Input File <==

--------------------------------------------------------------------------
#psi4
#
memory 32 gb

molecule  {
-2 1
  O       -1.2921450    -0.1901730    -0.0000340
  O        0.8107920    -1.0237360    -0.0000120
  O        0.4813280     1.2139460    -0.0000050
  C        0.1979037     0.0290656     0.0000825
units angstrom
no_reorient  #important for SAPT in psi4, default
symmetry c1  #important for SAPT in psi4, default
}

set PROPERTIES_ORIGIN ["COM"]
properties('MP2/aug-cc-pvtz', properties = ['dipole'])
--------------------------------------------------------------------------

    Molecular point group: c1
  Charge       = -2
  Multiplicity = 1
  Basis Set: AUG-CC-PVTZ
    Blend: AUG-CC-PVTZ
  Basis Set: (AUG-CC-PVTZ AUX)
    Blend: AUG-CC-PVTZ-JKFIT

    Orbital Energies [Eh]
    ---------------------

    Doubly Occupied:

       1A    -20.088301     2A    -20.088255     3A    -20.026040
       4A    -10.934470     5A     -0.986507     6A     -0.889120
       7A     -0.721148     8A     -0.288092     9A     -0.211953
      10A     -0.179797    11A     -0.173748    12A     -0.036664
      13A     -0.011373    14A      0.035273    15A      0.062856
      16A      0.074691

  @DF-RHF Final Energy:  -262.36908966271653

   => Energetics <=

    Nuclear Repulsion Energy =            103.4822222670117924
    One-Electron Energy =                -582.7773287809444582
    Two-Electron Energy =                 216.9260168512161329
    Total Energy =                       -262.3690896627165330
  Basis Set: (AUG-CC-PVTZ AUX)
    Blend: AUG-CC-PVTZ-RI
    Molecular point group: c1

    Geometry (in Angstrom), charge = -2, multiplicity = 1:

       Center              X                  Y                   Z               Mass
    ------------   -----------------  -----------------  -----------------  -----------------
         O           -1.331729140473    -0.195997464512    -0.000036905061    15.994914619570
         O            0.771207859527    -1.029560464512    -0.000014905061    15.994914619570
         O            0.441743859527     1.208121535488    -0.000007905061    15.994914619570
         C            0.158319559527     0.023241135488     0.000079594939    12.000000000000

  Basis Set: AUG-CC-PVTZ
    Blend: AUG-CC-PVTZ
  Basis Set: (AUG-CC-PVTZ AUX)
    Blend: AUG-CC-PVTZ-JKFIT
	 Reference Energy          =    -262.3690896627165330 [Eh]
	 Singles Energy            =      -0.0000000000000000 [Eh]
	 Same-Spin Energy          =      -0.2593892972823792 [Eh]
	 Opposite-Spin Energy      =      -0.7155423233683322 [Eh]
	 Correlation Energy        =      -0.9749316206507115 [Eh]
	 Total Energy              =    -263.3440212833672263 [Eh]

	 ================> DF-SCS-MP2 Energies <==================
	-----------------------------------------------------------
	 SCS Same-Spin Scale       =       0.3333333333333333 [-]
	 SCS Opposite-Spin Scale   =       1.2000000000000000 [-]
	 SCS Same-Spin Energy      =      -0.0864630990941264 [Eh]
	 SCS Opposite-Spin Energy  =      -0.8586507880419987 [Eh]
	 SCS Correlation Energy    =      -0.9451138871361251 [Eh]
	 SCS Total Energy          =    -263.3142035498526639 [Eh]
	-----------------------------------------------------------

  Dipole Moment: [D]
     X:     2.8450      Y:     0.4180      Z:     0.0001     Total:     2.8755

*** Psi4 exiting successfully. Buy a developer a beer!
