                               Psi4 1.3.2 release

  ==> Input File <==

--------------------------------------------------------------------------
#psi4
#
memory 32 gb

molecule  {
-2 1
  O       -1.2921450    -0.1901730    -0.0000340
  O        0.8107920    -1.0237360    -0.0000120
  O        0.4813280     1.2139460    -0.0000050
  C       -0.1978357    -0.0291616     0.0000515
units angstrom
no_reorient  #important for SAPT in psi4, default
symmetry c1  #important for SAPT in psi4, default
}

set PROPERTIES_ORIGIN ["COM"]
properties('MP2/aug-cc-pvtz', properties = ['dipole'])
--------------------------------------------------------------------------

    Molecular point group: c1
  Charge       = -2
  Multiplicity = 1
  Basis Set: AUG-CC-PVTZ
    Blend: AUG-CC-PVTZ
  Basis Set: (AUG-CC-PVTZ AUX)
    Blend: AUG-CC-PVTZ-JKFIT

    Orbital Energies [Eh]
    ---------------------

    Doubly Occupied:

       1A    -20.112510     2A    -20.044610     3A    -20.044573
       4A    -10.928768     5A     -1.047321     6A     -0.813183
       7A     -0.742168     8A     -0.305736     9A     -0.208842
      10A     -0.194955    11A     -0.182112    12A     -0.004495
      13A      0.012198    14A      0.014337    15A      0.052341
      16A      0.075308

  @DF-RHF Final Energy:  -262.34525284599670

   => Energetics <=

    Nuclear Repulsion Energy =            103.7445696689393202
    One-Electron Energy =                -583.2294724838025104
    Two-Electron Energy =                 217.1396499688664505
    Total Energy =                       -262.3452528459966970
  Basis Set: (AUG-CC-PVTZ AUX)
    Blend: AUG-CC-PVTZ-RI
    Molecular point group: c1

    Geometry (in Angstrom), charge = -2, multiplicity = 1:

       Center              X                  Y                   Z               Mass
    ------------   -----------------  -----------------  -----------------  -----------------
         O           -1.252561130500    -0.184349062684    -0.000030703484    15.994914619570
         O            0.850375869500    -1.017912062684    -0.000008703484    15.994914619570
         O            0.520911869500     1.219769937316    -0.000001703484    15.994914619570
         C           -0.158251830500    -0.023337662684     0.000054796516    12.000000000000

  Basis Set: AUG-CC-PVTZ
    Blend: AUG-CC-PVTZ
  Basis Set: (AUG-CC-PVTZ AUX)
    Blend: AUG-CC-PVTZ-JKFIT
	 Reference Energy          =    -262.3452528459966970 [Eh]
	 Singles Energy            =      -0.0000000000000000 [Eh]
	 Same-Spin Energy          =      -0.2587615816673406 [Eh]
	 Opposite-Spin Energy      =      -0.7146445820943568 [Eh]
	 Correlation Energy        =      -0.9734061637616974 [Eh]
	 Total Energy              =    -263.3186590097583917 [Eh]

	 ================> DF-SCS-MP2 Energies <==================
	-----------------------------------------------------------
	 SCS Same-Spin Scale       =       0.3333333333333333 [-]
	 SCS Opposite-Spin Scale   =       1.2000000000000000 [-]
	 SCS Same-Spin Energy      =      -0.0862538605557802 [Eh]
	 SCS Opposite-Spin Energy  =      -0.8575734985132281 [Eh]
	 SCS Correlation Energy    =      -0.9438273590690083 [Eh]
	 SCS Total Energy          =    -263.2890802050657157 [Eh]
	-----------------------------------------------------------

  Dipole Moment: [D]
     X:    -2.7225      Y:    -0.4012      Z:    -0.0000     Total:     2.7519

*** Psi4 exiting successfully. Buy a developer a beer!
