                               Psi4 1.4a3.dev225

  ==> Input File <==

--------------------------------------------------------------------------
#psi4
#
memory 32 gb

molecule  {
-2 1
  O       -1.2921450    -0.1901730    -0.0000340
  O        0.8107920    -1.0237360    -0.0000120
  O        0.4813280     1.2139460    -0.0000050
  C       -0.0183934    -0.0465284     0.0000698
units angstrom
no_reorient  #important for SAPT in psi4, default
symmetry c1  #important for SAPT in psi4, default
}

set PROPERTIES_ORIGIN ["COM"]
properties('MP2/aug-cc-pvtz', properties = ['dipole'])
--------------------------------------------------------------------------

    Molecular point group: c1
  Charge       = -2
  Multiplicity = 1
  Basis Set: AUG-CC-PVTZ
    Blend: AUG-CC-PVTZ
  Basis Set: (AUG-CC-PVTZ AUX)
    Blend: AUG-CC-PVTZ-JKFIT

    Orbital Energies [Eh]
    ---------------------

    Doubly Occupied:

       1A    -20.068216     2A    -20.068176     3A    -20.052393
       4A    -10.931124     5A     -0.951003     6A     -0.828474
       7A     -0.788246     8A     -0.273541     9A     -0.181984
      10A     -0.173695    11A     -0.148698    12A     -0.013416
      13A     -0.002655    14A      0.016202    15A      0.033014
      16A      0.055541

  @DF-RHF Final Energy:  -262.40433562374648

   => Energetics <=

    Nuclear Repulsion Energy =            103.2856434525258891
    One-Electron Energy =                -582.6262278235082022
    Two-Electron Energy =                 216.9362487472358225
    Total Energy =                       -262.4043356237464764
  Basis Set: (AUG-CC-PVTZ AUX)
    Blend: AUG-CC-PVTZ-RI
    Molecular point group: c1

    Geometry (in Angstrom), charge = -2, multiplicity = 1:

       Center              X                  Y                   Z               Mass
    ------------   -----------------  -----------------  -----------------  -----------------
         O           -1.288458718145    -0.180874819291    -0.000034364415    15.994914619570
         O            0.814478281855    -1.014437819291    -0.000012364415    15.994914619570
         O            0.485014281855     1.223244180709    -0.000005364415    15.994914619570
         C           -0.014707118145    -0.037230219291     0.000069435585    12.000000000000

  Basis Set: AUG-CC-PVTZ
    Blend: AUG-CC-PVTZ
  Basis Set: (AUG-CC-PVTZ AUX)
    Blend: AUG-CC-PVTZ-JKFIT
	 Reference Energy          =    -262.4043356237464764 [Eh]
	 Singles Energy            =      -0.0000000000000000 [Eh]
	 Same-Spin Energy          =      -0.2574721463214950 [Eh]
	 Opposite-Spin Energy      =      -0.7115866803243662 [Eh]
	 Correlation Energy        =      -0.9690588266458612 [Eh]
	 Total Energy              =    -263.3733944503923112 [Eh]

	 ================> DF-SCS-MP2 Energies <==================
	-----------------------------------------------------------
	 SCS Same-Spin Scale       =       0.3333333333333333 [-]
	 SCS Opposite-Spin Scale   =       1.2000000000000000 [-]
	 SCS Same-Spin Energy      =      -0.0858240487738317 [Eh]
	 SCS Opposite-Spin Energy  =      -0.8539040163892394 [Eh]
	 SCS Correlation Energy    =      -0.9397280651630711 [Eh]
	 SCS Total Energy          =    -263.3440636889095572 [Eh]
	-----------------------------------------------------------

  Dipole Moment: [D]
     X:    -0.2616      Y:    -0.6644      Z:     0.0000     Total:     0.7141

*** Psi4 exiting successfully. Buy a developer a beer!
