                               Psi4 1.3.2 release

  ==> Input File <==

--------------------------------------------------------------------------
#psi4
#
memory 32 gb

molecule  {
-2 1
  O       -1.2921450    -0.1901730    -0.0000340
  O        0.8107920    -1.0237360    -0.0000120
  O        0.4813280     1.2139460    -0.0000050
  C       -0.0989008    -0.0146048     0.0000593
units angstrom
no_reorient  #important for SAPT in psi4, default
symmetry c1  #important for SAPT in psi4, default
}

set PROPERTIES_ORIGIN ["COM"]
properties('MP2/aug-cc-pvtz', properties = ['dipole'])
--------------------------------------------------------------------------

    Molecular point group: c1
  Charge       = -2
  Multiplicity = 1
  Basis Set: AUG-CC-PVTZ
    Blend: AUG-CC-PVTZ
  Basis Set: (AUG-CC-PVTZ AUX)
    Blend: AUG-CC-PVTZ-JKFIT

    Orbital Energies [Eh]
    ---------------------

    Doubly Occupied:

       1A    -20.085815     2A    -20.052737     3A    -20.052699
       4A    -10.930619     5A     -0.973008     6A     -0.827862
       7A     -0.773678     8A     -0.279950     9A     -0.182985
      10A     -0.179846    11A     -0.157693    12A     -0.010658
      13A     -0.000475    14A      0.013062    15A      0.039309
      16A      0.060307

  @DF-RHF Final Energy:  -262.39391432927579

   => Energetics <=

    Nuclear Repulsion Energy =            103.3680836824199218
    One-Electron Energy =                -582.7333035700210075
    Two-Electron Energy =                 216.9713055583252981
    Total Energy =                       -262.3939143292757876
  Basis Set: (AUG-CC-PVTZ AUX)
    Blend: AUG-CC-PVTZ-RI
    Molecular point group: c1

    Geometry (in Angstrom), charge = -2, multiplicity = 1:

       Center              X                  Y                   Z               Mass
    ------------   -----------------  -----------------  -----------------  -----------------
         O           -1.272353142996    -0.187261163141    -0.000032263881    15.994914619570
         O            0.830583857004    -1.020824163141    -0.000010263881    15.994914619570
         O            0.501119857004     1.216857836859    -0.000003263881    15.994914619570
         C           -0.079108942996    -0.011692963141     0.000061036119    12.000000000000

  Basis Set: AUG-CC-PVTZ
    Blend: AUG-CC-PVTZ
  Basis Set: (AUG-CC-PVTZ AUX)
    Blend: AUG-CC-PVTZ-JKFIT
	 Reference Energy          =    -262.3939143292757876 [Eh]
	 Singles Energy            =      -0.0000000000000000 [Eh]
	 Same-Spin Energy          =      -0.2577247734556301 [Eh]
	 Opposite-Spin Energy      =      -0.7122067196424653 [Eh]
	 Correlation Energy        =      -0.9699314930980953 [Eh]
	 Total Energy              =    -263.3638458223738894 [Eh]

	 ================> DF-SCS-MP2 Energies <==================
	-----------------------------------------------------------
	 SCS Same-Spin Scale       =       0.3333333333333333 [-]
	 SCS Opposite-Spin Scale   =       1.2000000000000000 [-]
	 SCS Same-Spin Energy      =      -0.0859082578185434 [Eh]
	 SCS Opposite-Spin Energy  =      -0.8546480635709583 [Eh]
	 SCS Correlation Energy    =      -0.9405563213895017 [Eh]
	 SCS Total Energy          =    -263.3344706506653097 [Eh]
	-----------------------------------------------------------

  Dipole Moment: [D]
     X:    -1.3892      Y:    -0.2050      Z:     0.0000     Total:     1.4043

*** Psi4 exiting successfully. Buy a developer a beer!
