                               Psi4 1.3.2 release

  ==> Input File <==

--------------------------------------------------------------------------
#psi4
#
memory 32 gb

molecule  {
-2 1
  O       -1.2952663    -0.1675924    -0.0000314
  O        0.8107920    -1.0237360    -0.0000120
  O        0.4813280     1.2139460    -0.0000050
  C        0.0000340    -0.0000480     0.0000670
units angstrom
no_reorient  #important for SAPT in psi4, default
symmetry c1  #important for SAPT in psi4, default
}

set PROPERTIES_ORIGIN ["COM"]
properties('MP2/aug-cc-pvtz', properties = ['dipole'])
--------------------------------------------------------------------------

    Molecular point group: c1
  Charge       = -2
  Multiplicity = 1
  Basis Set: AUG-CC-PVTZ
    Blend: AUG-CC-PVTZ
  Basis Set: (AUG-CC-PVTZ AUX)
    Blend: AUG-CC-PVTZ-JKFIT

    Orbital Energies [Eh]
    ---------------------

    Doubly Occupied:

       1A    -20.064126     2A    -20.062638     3A    -20.061173
       4A    -10.931124     5A     -0.946818     6A     -0.811315
       7A     -0.807512     8A     -0.272166     9A     -0.177300
      10A     -0.175811    11A     -0.146500    12A     -0.009546
      13A     -0.007686    14A      0.023122    15A      0.025577
      16A      0.053892

  @DF-RHF Final Energy:  -262.40697254095841

   => Energetics <=

    Nuclear Repulsion Energy =            103.2683818853965221
    One-Electron Energy =                -582.6084601354569941
    Two-Electron Energy =                 216.9331057091020512
    Total Energy =                       -262.4069725409584066
  Basis Set: (AUG-CC-PVTZ AUX)
    Blend: AUG-CC-PVTZ-RI
    Molecular point group: c1

    Geometry (in Angstrom), charge = -2, multiplicity = 1:

       Center              X                  Y                   Z               Mass
    ------------   -----------------  -----------------  -----------------  -----------------
         O           -1.294434141743    -0.173613774064    -0.000031897562    15.994914619570
         O            0.811624158257    -1.029757374064    -0.000012497562    15.994914619570
         O            0.482160158257     1.207924625936    -0.000005497562    15.994914619570
         C            0.000866158257    -0.006069374064     0.000066502438    12.000000000000

  Basis Set: AUG-CC-PVTZ
    Blend: AUG-CC-PVTZ
  Basis Set: (AUG-CC-PVTZ AUX)
    Blend: AUG-CC-PVTZ-JKFIT
	 Reference Energy          =    -262.4069725409584066 [Eh]
	 Singles Energy            =      -0.0000000000000000 [Eh]
	 Same-Spin Energy          =      -0.2573735104150321 [Eh]
	 Opposite-Spin Energy      =      -0.7113595460682895 [Eh]
	 Correlation Energy        =      -0.9687330564833216 [Eh]
	 Total Energy              =    -263.3757055974417085 [Eh]

	 ================> DF-SCS-MP2 Energies <==================
	-----------------------------------------------------------
	 SCS Same-Spin Scale       =       0.3333333333333333 [-]
	 SCS Opposite-Spin Scale   =       1.2000000000000000 [-]
	 SCS Same-Spin Energy      =      -0.0857911701383440 [Eh]
	 SCS Opposite-Spin Energy  =      -0.8536314552819474 [Eh]
	 SCS Correlation Energy    =      -0.9394226254202914 [Eh]
	 SCS Total Energy          =    -263.3463951663786702 [Eh]
	-----------------------------------------------------------

  Dipole Moment: [D]
     X:     0.0049      Y:    -0.0229      Z:     0.0000     Total:     0.0234

*** Psi4 exiting successfully. Buy a developer a beer!
