                               Psi4 1.3.2 release

  ==> Input File <==

--------------------------------------------------------------------------
#psi4
#
memory 32 gb

molecule  {
-2 1
  O       -1.2847226    -0.2351536    -0.0000392
  O        0.8107920    -1.0237360    -0.0000120
  O        0.4813280     1.2139460    -0.0000050
  C        0.0000340    -0.0000480     0.0000670
units angstrom
no_reorient  #important for SAPT in psi4, default
symmetry c1  #important for SAPT in psi4, default
}

set PROPERTIES_ORIGIN ["COM"]
properties('MP2/aug-cc-pvtz', properties = ['dipole'])
--------------------------------------------------------------------------

    Molecular point group: c1
  Charge       = -2
  Multiplicity = 1
  Basis Set: AUG-CC-PVTZ
    Blend: AUG-CC-PVTZ
  Basis Set: (AUG-CC-PVTZ AUX)
    Blend: AUG-CC-PVTZ-JKFIT

    Orbital Energies [Eh]
    ---------------------

    Doubly Occupied:

       1A    -20.065550     2A    -20.062614     3A    -20.059720
       4A    -10.931133     5A     -0.946862     6A     -0.813123
       7A     -0.805640     8A     -0.272180     9A     -0.178010
      10A     -0.175066    11A     -0.146520    12A     -0.010501
      13A     -0.006822    14A      0.021951    15A      0.026798
      16A      0.054144

  @DF-RHF Final Energy:  -262.40663727186706

   => Energetics <=

    Nuclear Repulsion Energy =            103.2740155453816300
    One-Electron Energy =                -582.6196119255369013
    Two-Electron Energy =                 216.9389591082881736
    Total Energy =                       -262.4066372718671118
  Basis Set: (AUG-CC-PVTZ AUX)
    Blend: AUG-CC-PVTZ-RI
    Molecular point group: c1

    Geometry (in Angstrom), charge = -2, multiplicity = 1:

       Center              X                  Y                   Z               Mass
    ------------   -----------------  -----------------  -----------------  -----------------
         O           -1.286701916302    -0.223159799603    -0.000037617694    15.994914619570
         O            0.808812683698    -1.011742199603    -0.000010417694    15.994914619570
         O            0.479348683698     1.225939800397    -0.000003417694    15.994914619570
         C           -0.001945316302     0.011945800397     0.000068582306    12.000000000000

  Basis Set: AUG-CC-PVTZ
    Blend: AUG-CC-PVTZ
  Basis Set: (AUG-CC-PVTZ AUX)
    Blend: AUG-CC-PVTZ-JKFIT
	 Reference Energy          =    -262.4066372718670550 [Eh]
	 Singles Energy            =      -0.0000000000000000 [Eh]
	 Same-Spin Energy          =      -0.2573900235998277 [Eh]
	 Opposite-Spin Energy      =      -0.7113911646840578 [Eh]
	 Correlation Energy        =      -0.9687811882838855 [Eh]
	 Total Energy              =    -263.3754184601509678 [Eh]

	 ================> DF-SCS-MP2 Energies <==================
	-----------------------------------------------------------
	 SCS Same-Spin Scale       =       0.3333333333333333 [-]
	 SCS Opposite-Spin Scale   =       1.2000000000000000 [-]
	 SCS Same-Spin Energy      =      -0.0857966745332759 [Eh]
	 SCS Opposite-Spin Energy  =      -0.8536693976208694 [Eh]
	 SCS Correlation Energy    =      -0.9394660721541452 [Eh]
	 SCS Total Energy          =    -263.3461033440211736 [Eh]
	-----------------------------------------------------------

  Dipole Moment: [D]
     X:    -0.0053      Y:     0.0446      Z:     0.0000     Total:     0.0449

*** Psi4 exiting successfully. Buy a developer a beer!
