                               Psi4 1.3.2 release

  ==> Input File <==

--------------------------------------------------------------------------
#psi4
#
memory 32 gb

molecule  {
-2 1
  O       -1.2757349    -0.2798477    -0.0000239
  O        0.8107920    -1.0237360    -0.0000120
  O        0.4813280     1.2139460    -0.0000050
  C        0.0000340    -0.0000480     0.0000670
units angstrom
no_reorient  #important for SAPT in psi4, default
symmetry c1  #important for SAPT in psi4, default
}

set PROPERTIES_ORIGIN ["COM"]
properties('MP2/aug-cc-pvtz', properties = ['dipole'])
--------------------------------------------------------------------------

    Molecular point group: c1
  Charge       = -2
  Multiplicity = 1
  Basis Set: AUG-CC-PVTZ
    Blend: AUG-CC-PVTZ
  Basis Set: (AUG-CC-PVTZ AUX)
    Blend: AUG-CC-PVTZ-JKFIT

    Orbital Energies [Eh]
    ---------------------

    Doubly Occupied:

       1A    -20.068416     2A    -20.062521     3A    -20.056735
       4A    -10.931170     5A     -0.947039     6A     -0.816763
       7A     -0.801742     8A     -0.272238     9A     -0.179413
      10A     -0.173525    11A     -0.146602    12A     -0.012522
      13A     -0.005170    14A      0.019618    15A      0.029337
      16A      0.055162

  @DF-RHF Final Energy:  -262.40528097728543

   => Energetics <=

    Nuclear Repulsion Energy =            103.2968027441115169
    One-Electron Energy =                -582.6646850189524685
    Two-Electron Energy =                 216.9626012975555227
    Total Energy =                       -262.4052809772854289
  Basis Set: (AUG-CC-PVTZ AUX)
    Blend: AUG-CC-PVTZ-RI
    Molecular point group: c1

    Geometry (in Angstrom), charge = -2, multiplicity = 1:

       Center              X                  Y                   Z               Mass
    ------------   -----------------  -----------------  -----------------  -----------------
         O           -1.280110783911    -0.255936230751    -0.000026397435    15.994914619570
         O            0.806416116089    -0.999824530751    -0.000014497435    15.994914619570
         O            0.476952116089     1.237857469249    -0.000007497435    15.994914619570
         C           -0.004341883911     0.023863469249     0.000064502565    12.000000000000

  Basis Set: AUG-CC-PVTZ
    Blend: AUG-CC-PVTZ
  Basis Set: (AUG-CC-PVTZ AUX)
    Blend: AUG-CC-PVTZ-JKFIT
	 Reference Energy          =    -262.4052809772854289 [Eh]
	 Singles Energy            =      -0.0000000000000000 [Eh]
	 Same-Spin Energy          =      -0.2574570833003628 [Eh]
	 Opposite-Spin Energy      =      -0.7115194455240272 [Eh]
	 Correlation Energy        =      -0.9689765288243901 [Eh]
	 Total Energy              =    -263.3742575061098137 [Eh]

	 ================> DF-SCS-MP2 Energies <==================
	-----------------------------------------------------------
	 SCS Same-Spin Scale       =       0.3333333333333333 [-]
	 SCS Opposite-Spin Scale   =       1.2000000000000000 [-]
	 SCS Same-Spin Energy      =      -0.0858190277667876 [Eh]
	 SCS Opposite-Spin Energy  =      -0.8538233346288326 [Eh]
	 SCS Correlation Energy    =      -0.9396423623956203 [Eh]
	 SCS Total Energy          =    -263.3449233396810314 [Eh]
	-----------------------------------------------------------

  Dipole Moment: [D]
     X:    -0.0131      Y:     0.0891      Z:     0.0000     Total:     0.0901

*** Psi4 exiting successfully. Buy a developer a beer!
