                               Psi4 1.4a3.dev225

  ==> Input File <==

--------------------------------------------------------------------------
#psi4
#
memory 32 gb

molecule  {
-2 1
  O       -1.2921450    -0.1901730    -0.0000340
  O        0.8107920    -1.0237360    -0.0000120
  O        0.4813280     1.2139460    -0.0000050
  C       -0.0073370    -0.0186402     0.0000681
units angstrom
no_reorient  #important for SAPT in psi4, default
symmetry c1  #important for SAPT in psi4, default
}

set PROPERTIES_ORIGIN ["COM"]
properties('MP2/aug-cc-pvtz', properties = ['dipole'])
--------------------------------------------------------------------------

    Molecular point group: c1
  Charge       = -2
  Multiplicity = 1
  Basis Set: AUG-CC-PVTZ
    Blend: AUG-CC-PVTZ
  Basis Set: (AUG-CC-PVTZ AUX)
    Blend: AUG-CC-PVTZ-JKFIT

    Orbital Energies [Eh]
    ---------------------

    Doubly Occupied:

       1A    -20.064844     2A    -20.064805     3A    -20.058439
       4A    -10.931117     5A     -0.947560     6A     -0.816968
       7A     -0.801459     8A     -0.272400     9A     -0.178307
      10A     -0.175223    11A     -0.146865    12A     -0.010353
      13A     -0.006660    14A      0.021134    15A      0.027647
      16A      0.054091

  @DF-RHF Final Energy:  -262.40663183879133

   => Energetics <=

    Nuclear Repulsion Energy =            103.2696828987357662
    One-Electron Energy =                -582.6083728115611393
    Two-Electron Energy =                 216.9320580740340176
    Total Energy =                       -262.4066318387913270
  Basis Set: (AUG-CC-PVTZ AUX)
    Blend: AUG-CC-PVTZ-RI
    Molecular point group: c1

    Geometry (in Angstrom), charge = -2, multiplicity = 1:

       Center              X                  Y                   Z               Mass
    ------------   -----------------  -----------------  -----------------  -----------------
         O           -1.290670560548    -0.186453877873    -0.000034024329    15.994914619570
         O            0.812266439452    -1.020016877873    -0.000012024329    15.994914619570
         O            0.482802439452     1.217665122127    -0.000005024329    15.994914619570
         C           -0.005862560548    -0.014921077873     0.000068075671    12.000000000000

  Basis Set: AUG-CC-PVTZ
    Blend: AUG-CC-PVTZ
  Basis Set: (AUG-CC-PVTZ AUX)
    Blend: AUG-CC-PVTZ-JKFIT
	 Reference Energy          =    -262.4066318387913270 [Eh]
	 Singles Energy            =      -0.0000000000000000 [Eh]
	 Same-Spin Energy          =      -0.2573840249365358 [Eh]
	 Opposite-Spin Energy      =      -0.7113861773275044 [Eh]
	 Correlation Energy        =      -0.9687702022640403 [Eh]
	 Total Energy              =    -263.3754020410553949 [Eh]

	 ================> DF-SCS-MP2 Energies <==================
	-----------------------------------------------------------
	 SCS Same-Spin Scale       =       0.3333333333333333 [-]
	 SCS Opposite-Spin Scale   =       1.2000000000000000 [-]
	 SCS Same-Spin Energy      =      -0.0857946749788453 [Eh]
	 SCS Opposite-Spin Energy  =      -0.8536634127930053 [Eh]
	 SCS Correlation Energy    =      -0.9394580877718506 [Eh]
	 SCS Total Energy          =    -263.3460899265631951 [Eh]
	-----------------------------------------------------------

  Dipole Moment: [D]
     X:    -0.1034      Y:    -0.2653      Z:     0.0000     Total:     0.2848

*** Psi4 exiting successfully. Buy a developer a beer!
