                               Psi4 1.3.2 release

  ==> Input File <==

--------------------------------------------------------------------------
#psi4
#
memory 32 gb

molecule  {
-2 1
  O       -1.2921450    -0.1901730    -0.0000340
  O        0.8107920    -1.0237360    -0.0000120
  O        0.4813280     1.2139460    -0.0000050
  C       -0.0736756    -0.1859697     0.0000780
units angstrom
no_reorient  #important for SAPT in psi4, default
symmetry c1  #important for SAPT in psi4, default
}

set PROPERTIES_ORIGIN ["COM"]
properties('MP2/aug-cc-pvtz', properties = ['dipole'])
--------------------------------------------------------------------------

    Molecular point group: c1
  Charge       = -2
  Multiplicity = 1
  Basis Set: AUG-CC-PVTZ
    Blend: AUG-CC-PVTZ
  Basis Set: (AUG-CC-PVTZ AUX)
    Blend: AUG-CC-PVTZ-JKFIT

    Orbital Energies [Eh]
    ---------------------

    Doubly Occupied:

       1A    -20.088306     2A    -20.088262     3A    -20.026034
       4A    -10.934493     5A     -0.986436     6A     -0.889075
       7A     -0.721186     8A     -0.288084     9A     -0.211927
      10A     -0.179761    11A     -0.173704    12A     -0.036674
      13A     -0.011365    14A      0.035253    15A      0.062851
      16A      0.074694

  @DF-RHF Final Energy:  -262.36910491648831

   => Energetics <=

    Nuclear Repulsion Energy =            103.4804500884778378
    One-Electron Energy =                -582.7740929878740417
    Two-Electron Energy =                 216.9245379829079070
    Total Energy =                       -262.3691049164883111
  Basis Set: (AUG-CC-PVTZ AUX)
    Blend: AUG-CC-PVTZ-RI
    Molecular point group: c1

    Geometry (in Angstrom), charge = -2, multiplicity = 1:

       Center              X                  Y                   Z               Mass
    ------------   -----------------  -----------------  -----------------  -----------------
         O           -1.277399466120    -0.152979466367    -0.000036004832    15.994914619570
         O            0.825537533880    -0.986542466367    -0.000014004832    15.994914619570
         O            0.496073533880     1.251139533633    -0.000007004832    15.994914619570
         C           -0.058930066120    -0.148776166367     0.000075995168    12.000000000000

  Basis Set: AUG-CC-PVTZ
    Blend: AUG-CC-PVTZ
  Basis Set: (AUG-CC-PVTZ AUX)
    Blend: AUG-CC-PVTZ-JKFIT
	 Reference Energy          =    -262.3691049164883111 [Eh]
	 Singles Energy            =      -0.0000000000000000 [Eh]
	 Same-Spin Energy          =      -0.2593910124555937 [Eh]
	 Opposite-Spin Energy      =      -0.7155458734481659 [Eh]
	 Correlation Energy        =      -0.9749368859037596 [Eh]
	 Total Energy              =    -263.3440418023920984 [Eh]

	 ================> DF-SCS-MP2 Energies <==================
	-----------------------------------------------------------
	 SCS Same-Spin Scale       =       0.3333333333333333 [-]
	 SCS Opposite-Spin Scale   =       1.2000000000000000 [-]
	 SCS Same-Spin Energy      =      -0.0864636708185312 [Eh]
	 SCS Opposite-Spin Energy  =      -0.8586550481377990 [Eh]
	 SCS Correlation Energy    =      -0.9451187189563303 [Eh]
	 SCS Total Energy          =    -263.3142236354446482 [Eh]
	-----------------------------------------------------------

  Dipole Moment: [D]
     X:    -1.0575      Y:    -2.6717      Z:    -0.0000     Total:     2.8734

*** Psi4 exiting successfully. Buy a developer a beer!
