                               Psi4 1.4a3.dev225

  ==> Input File <==

--------------------------------------------------------------------------
#psi4
#
memory 32 gb

molecule  {
-2 1
  O       -1.2921450    -0.1901730    -0.0000340
  O        0.8107920    -1.0237360    -0.0000120
  O        0.4813280     1.2139460    -0.0000050
  C        0.0198210     0.0028634     0.0000685
units angstrom
no_reorient  #important for SAPT in psi4, default
symmetry c1  #important for SAPT in psi4, default
}

set PROPERTIES_ORIGIN ["COM"]
properties('MP2/aug-cc-pvtz', properties = ['dipole'])
--------------------------------------------------------------------------

    Molecular point group: c1
  Charge       = -2
  Multiplicity = 1
  Basis Set: AUG-CC-PVTZ
    Blend: AUG-CC-PVTZ
  Basis Set: (AUG-CC-PVTZ AUX)
    Blend: AUG-CC-PVTZ-JKFIT

    Orbital Energies [Eh]
    ---------------------

    Doubly Occupied:

       1A    -20.064842     2A    -20.064801     3A    -20.058443
       4A    -10.931114     5A     -0.947574     6A     -0.816990
       7A     -0.801431     8A     -0.272401     9A     -0.178306
      10A     -0.175230    11A     -0.146871    12A     -0.010343
      13A     -0.006665    14A      0.021134    15A      0.027646
      16A      0.054090

  @DF-RHF Final Energy:  -262.40662925294737

   => Energetics <=

    Nuclear Repulsion Energy =            103.2698637406417816
    One-Electron Energy =                -582.6087035987986837
    Two-Electron Energy =                 216.9322106052095478
    Total Energy =                       -262.4066292529473685
  Basis Set: (AUG-CC-PVTZ AUX)
    Blend: AUG-CC-PVTZ-RI
    Molecular point group: c1

    Geometry (in Angstrom), charge = -2, multiplicity = 1:

       Center              X                  Y                   Z               Mass
    ------------   -----------------  -----------------  -----------------  -----------------
         O           -1.296103541987    -0.190755691691    -0.000034104349    15.994914619570
         O            0.806833458013    -1.024318691691    -0.000012104349    15.994914619570
         O            0.477369458013     1.213363308309    -0.000005104349    15.994914619570
         C            0.015862458013     0.002280708309     0.000068395651    12.000000000000

  Basis Set: AUG-CC-PVTZ
    Blend: AUG-CC-PVTZ
  Basis Set: (AUG-CC-PVTZ AUX)
    Blend: AUG-CC-PVTZ-JKFIT
	 Reference Energy          =    -262.4066292529473685 [Eh]
	 Singles Energy            =      -0.0000000000000000 [Eh]
	 Same-Spin Energy          =      -0.2573837724788884 [Eh]
	 Opposite-Spin Energy      =      -0.7113857497650393 [Eh]
	 Correlation Energy        =      -0.9687695222439276 [Eh]
	 Total Energy              =    -263.3753987751912859 [Eh]

	 ================> DF-SCS-MP2 Energies <==================
	-----------------------------------------------------------
	 SCS Same-Spin Scale       =       0.3333333333333333 [-]
	 SCS Opposite-Spin Scale   =       1.2000000000000000 [-]
	 SCS Same-Spin Energy      =      -0.0857945908262961 [Eh]
	 SCS Opposite-Spin Energy  =      -0.8536628997180472 [Eh]
	 SCS Correlation Energy    =      -0.9394574905443434 [Eh]
	 SCS Total Energy          =    -263.3460867434916963 [Eh]
	-----------------------------------------------------------

  Dipole Moment: [D]
     X:     0.2837      Y:     0.0411      Z:     0.0000     Total:     0.2867

*** Psi4 exiting successfully. Buy a developer a beer!
