                               Psi4 1.3.2 release

  ==> Input File <==

--------------------------------------------------------------------------
#psi4
#
memory 32 gb

molecule  {
-2 1
  O       -1.2921450    -0.1901730    -0.0000340
  O        0.8107920    -1.0237360    -0.0000120
  O        0.4813280     1.2139460    -0.0000050
  C       -0.0368208    -0.0930089     0.0000725
units angstrom
no_reorient  #important for SAPT in psi4, default
symmetry c1  #important for SAPT in psi4, default
}

set PROPERTIES_ORIGIN ["COM"]
properties('MP2/aug-cc-pvtz', properties = ['dipole'])
--------------------------------------------------------------------------

    Molecular point group: c1
  Charge       = -2
  Multiplicity = 1
  Basis Set: AUG-CC-PVTZ
    Blend: AUG-CC-PVTZ
  Basis Set: (AUG-CC-PVTZ AUX)
    Blend: AUG-CC-PVTZ-JKFIT

    Orbital Energies [Eh]
    ---------------------

    Doubly Occupied:

       1A    -20.074214     2A    -20.074172     3A    -20.042957
       4A    -10.931384     5A     -0.960620     6A     -0.848130
       7A     -0.764997     8A     -0.277037     9A     -0.190281
      10A     -0.172990    11A     -0.154545    12A     -0.019828
      13A      0.006954    14A      0.007603    15A      0.042675
      16A      0.060255

  @DF-RHF Final Energy:  -262.39662881736234

   => Energetics <=

    Nuclear Repulsion Energy =            103.3355207506252640
    One-Electron Energy =                -582.6769645874456955
    Two-Electron Energy =                 216.9448150194580762
    Total Energy =                       -262.3966288173623411
  Basis Set: (AUG-CC-PVTZ AUX)
    Blend: AUG-CC-PVTZ-RI
    Molecular point group: c1

    Geometry (in Angstrom), charge = -2, multiplicity = 1:

       Center              X                  Y                   Z               Mass
    ------------   -----------------  -----------------  -----------------  -----------------
         O           -1.284772300803    -0.171576354980    -0.000034904553    15.994914619570
         O            0.818164699197    -1.005139354980    -0.000012904553    15.994914619570
         O            0.488700699197     1.232542645020    -0.000005904553    15.994914619570
         C           -0.029448100803    -0.074412254980     0.000071595447    12.000000000000

  Basis Set: AUG-CC-PVTZ
    Blend: AUG-CC-PVTZ
  Basis Set: (AUG-CC-PVTZ AUX)
    Blend: AUG-CC-PVTZ-JKFIT
	 Reference Energy          =    -262.3966288173623411 [Eh]
	 Singles Energy            =      -0.0000000000000000 [Eh]
	 Same-Spin Energy          =      -0.2578129076681136 [Eh]
	 Opposite-Spin Energy      =      -0.7123340085811343 [Eh]
	 Correlation Energy        =      -0.9701469162492479 [Eh]
	 Total Energy              =    -263.3667757336115756 [Eh]

	 ================> DF-SCS-MP2 Energies <==================
	-----------------------------------------------------------
	 SCS Same-Spin Scale       =       0.3333333333333333 [-]
	 SCS Opposite-Spin Scale   =       1.2000000000000000 [-]
	 SCS Same-Spin Energy      =      -0.0859376358893712 [Eh]
	 SCS Opposite-Spin Energy  =      -0.8548008102973611 [Eh]
	 SCS Correlation Energy    =      -0.9407384461867323 [Eh]
	 SCS Total Energy          =    -263.3373672635490834 [Eh]
	-----------------------------------------------------------

  Dipole Moment: [D]
     X:    -0.5267      Y:    -1.3329      Z:     0.0000     Total:     1.4332

*** Psi4 exiting successfully. Buy a developer a beer!
