                               Psi4 1.4a3.dev225

  ==> Input File <==

--------------------------------------------------------------------------
#psi4
#
memory 32 gb

molecule  {
-2 1
  O       -1.2921450    -0.1901730    -0.0000340
  O        0.8107920    -1.0237360    -0.0000120
  O        0.4813280     1.2139460    -0.0000050
  C       -0.0494334    -0.0073264     0.0000631
units angstrom
no_reorient  #important for SAPT in psi4, default
symmetry c1  #important for SAPT in psi4, default
}

set PROPERTIES_ORIGIN ["COM"]
properties('MP2/aug-cc-pvtz', properties = ['dipole'])
--------------------------------------------------------------------------

    Molecular point group: c1
  Charge       = -2
  Multiplicity = 1
  Basis Set: AUG-CC-PVTZ
    Blend: AUG-CC-PVTZ
  Basis Set: (AUG-CC-PVTZ AUX)
    Blend: AUG-CC-PVTZ-JKFIT

    Orbital Energies [Eh]
    ---------------------

    Doubly Occupied:

       1A    -20.073779     2A    -20.057517     3A    -20.057477
       4A    -10.931028     5A     -0.952829     6A     -0.823864
       7A     -0.791124     8A     -0.273928     9A     -0.180229
      10A     -0.175373    11A     -0.149105    12A     -0.011058
      13A     -0.004788    14A      0.017454    15A      0.032039
      16A      0.055543

  @DF-RHF Final Energy:  -262.40401199150239

   => Energetics <=

    Nuclear Repulsion Energy =            103.2896099936779422
    One-Electron Energy =                -582.6331163468694285
    Two-Electron Energy =                 216.9394943616890998
    Total Energy =                       -262.4040119915024434
  Basis Set: (AUG-CC-PVTZ AUX)
    Blend: AUG-CC-PVTZ-RI
    Molecular point group: c1

    Geometry (in Angstrom), charge = -2, multiplicity = 1:

       Center              X                  Y                   Z               Mass
    ------------   -----------------  -----------------  -----------------  -----------------
         O           -1.282249139241    -0.188717213369    -0.000033024074    15.994914619570
         O            0.820687860759    -1.022280213369    -0.000011024074    15.994914619570
         O            0.491223860759     1.215401786631    -0.000004024074    15.994914619570
         C           -0.039537539241    -0.005870613369     0.000064075926    12.000000000000

  Basis Set: AUG-CC-PVTZ
    Blend: AUG-CC-PVTZ
  Basis Set: (AUG-CC-PVTZ AUX)
    Blend: AUG-CC-PVTZ-JKFIT
	 Reference Energy          =    -262.4040119915023865 [Eh]
	 Singles Energy            =      -0.0000000000000000 [Eh]
	 Same-Spin Energy          =      -0.2574606719970745 [Eh]
	 Opposite-Spin Energy      =      -0.7115699019436439 [Eh]
	 Correlation Energy        =      -0.9690305739407183 [Eh]
	 Total Energy              =    -263.3730425654430860 [Eh]

	 ================> DF-SCS-MP2 Energies <==================
	-----------------------------------------------------------
	 SCS Same-Spin Scale       =       0.3333333333333333 [-]
	 SCS Opposite-Spin Scale   =       1.2000000000000000 [-]
	 SCS Same-Spin Energy      =      -0.0858202239990248 [Eh]
	 SCS Opposite-Spin Energy  =      -0.8538838823323727 [Eh]
	 SCS Correlation Energy    =      -0.9397041063313974 [Eh]
	 SCS Total Energy          =    -263.3437160978338056 [Eh]
	-----------------------------------------------------------

  Dipole Moment: [D]
     X:    -0.6984      Y:    -0.1034      Z:     0.0000     Total:     0.7061

*** Psi4 exiting successfully. Buy a developer a beer!
