                               Psi4 1.3.2 release

  ==> Input File <==

--------------------------------------------------------------------------
#psi4
#
memory 32 gb

molecule  {
-2 1
  O       -1.2886301    -0.2126957    -0.0000366
  O        0.8107920    -1.0237360    -0.0000120
  O        0.4813280     1.2139460    -0.0000050
  C        0.0000340    -0.0000480     0.0000670
units angstrom
no_reorient  #important for SAPT in psi4, default
symmetry c1  #important for SAPT in psi4, default
}

set PROPERTIES_ORIGIN ["COM"]
properties('MP2/aug-cc-pvtz', properties = ['dipole'])
--------------------------------------------------------------------------

    Molecular point group: c1
  Charge       = -2
  Multiplicity = 1
  Basis Set: AUG-CC-PVTZ
    Blend: AUG-CC-PVTZ
  Basis Set: (AUG-CC-PVTZ AUX)
    Blend: AUG-CC-PVTZ-JKFIT

    Orbital Energies [Eh]
    ---------------------

    Doubly Occupied:

       1A    -20.064101     2A    -20.062638     3A    -20.061198
       4A    -10.931124     5A     -0.946818     6A     -0.811274
       7A     -0.807554     8A     -0.272165     9A     -0.177289
      10A     -0.175822    11A     -0.146500    12A     -0.009533
      13A     -0.007699    14A      0.023142    15A      0.025555
      16A      0.053890

  @DF-RHF Final Energy:  -262.40697504802705

   => Energetics <=

    Nuclear Repulsion Energy =            103.2683350266743929
    One-Electron Energy =                -582.6083682725339941
    Two-Electron Energy =                 216.9330581978325938
    Total Energy =                       -262.4069750480269931
  Basis Set: (AUG-CC-PVTZ AUX)
    Blend: AUG-CC-PVTZ-RI
    Molecular point group: c1

    Geometry (in Angstrom), charge = -2, multiplicity = 1:

       Center              X                  Y                   Z               Mass
    ------------   -----------------  -----------------  -----------------  -----------------
         O           -1.289567482556    -0.206690292150    -0.000035710984    15.994914619570
         O            0.809854617444    -1.017730592150    -0.000011110984    15.994914619570
         O            0.480390617444     1.219951407850    -0.000004110984    15.994914619570
         C           -0.000903382556     0.005957407850     0.000067889016    12.000000000000

  Basis Set: AUG-CC-PVTZ
    Blend: AUG-CC-PVTZ
  Basis Set: (AUG-CC-PVTZ AUX)
    Blend: AUG-CC-PVTZ-JKFIT
	 Reference Energy          =    -262.4069750480270500 [Eh]
	 Singles Energy            =      -0.0000000000000000 [Eh]
	 Same-Spin Energy          =      -0.2573733619715539 [Eh]
	 Opposite-Spin Energy      =      -0.7113592732463204 [Eh]
	 Correlation Energy        =      -0.9687326352178743 [Eh]
	 Total Energy              =    -263.3757076832449115 [Eh]

	 ================> DF-SCS-MP2 Energies <==================
	-----------------------------------------------------------
	 SCS Same-Spin Scale       =       0.3333333333333333 [-]
	 SCS Opposite-Spin Scale   =       1.2000000000000000 [-]
	 SCS Same-Spin Energy      =      -0.0857911206571846 [Eh]
	 SCS Opposite-Spin Energy  =      -0.8536311278955845 [Eh]
	 SCS Correlation Energy    =      -0.9394222485527691 [Eh]
	 SCS Total Energy          =    -263.3463972965798234 [Eh]
	-----------------------------------------------------------

  Dipole Moment: [D]
     X:    -0.0017      Y:     0.0222      Z:     0.0000     Total:     0.0222

*** Psi4 exiting successfully. Buy a developer a beer!
