                               Psi4 1.3.2 release

  ==> Input File <==

--------------------------------------------------------------------------
#psi4
#
memory 32 gb

molecule  {
-2 1
  O       -1.2921450    -0.1901730    -0.0000340
  O        0.8107920    -1.0237360    -0.0000120
  O        0.4813280     1.2139460    -0.0000050
  C        0.0368888     0.0929129     0.0000615
units angstrom
no_reorient  #important for SAPT in psi4, default
symmetry c1  #important for SAPT in psi4, default
}

set PROPERTIES_ORIGIN ["COM"]
properties('MP2/aug-cc-pvtz', properties = ['dipole'])
--------------------------------------------------------------------------

    Molecular point group: c1
  Charge       = -2
  Multiplicity = 1
  Basis Set: AUG-CC-PVTZ
    Blend: AUG-CC-PVTZ
  Basis Set: (AUG-CC-PVTZ AUX)
    Blend: AUG-CC-PVTZ-JKFIT

    Orbital Energies [Eh]
    ---------------------

    Doubly Occupied:

       1A    -20.085815     2A    -20.052734     3A    -20.052698
       4A    -10.930605     5A     -0.973092     6A     -0.827827
       7A     -0.773667     8A     -0.279963     9A     -0.182980
      10A     -0.179880    11A     -0.157726    12A     -0.010639
      13A     -0.000464    14A      0.013073    15A      0.039305
      16A      0.060298

  @DF-RHF Final Energy:  -262.39389152407836

   => Energetics <=

    Nuclear Repulsion Energy =            103.3690087252190892
    One-Electron Energy =                -582.7349743283921271
    Two-Electron Energy =                 216.9720740790947104
    Total Energy =                       -262.3938915240782990
  Basis Set: (AUG-CC-PVTZ AUX)
    Blend: AUG-CC-PVTZ-RI
    Molecular point group: c1

    Geometry (in Angstrom), charge = -2, multiplicity = 1:

       Center              X                  Y                   Z               Mass
    ------------   -----------------  -----------------  -----------------  -----------------
         O           -1.299517970170    -0.208770172215    -0.000032703993    15.994914619570
         O            0.803419029830    -1.042333172215    -0.000010703993    15.994914619570
         O            0.473955029830     1.195348827785    -0.000003703993    15.994914619570
         C            0.029515829830     0.074315727785     0.000062796007    12.000000000000

  Basis Set: AUG-CC-PVTZ
    Blend: AUG-CC-PVTZ
  Basis Set: (AUG-CC-PVTZ AUX)
    Blend: AUG-CC-PVTZ-JKFIT
	 Reference Energy          =    -262.3938915240783558 [Eh]
	 Singles Energy            =      -0.0000000000000000 [Eh]
	 Same-Spin Energy          =      -0.2577234407498155 [Eh]
	 Opposite-Spin Energy      =      -0.7122044363052438 [Eh]
	 Correlation Energy        =      -0.9699278770550592 [Eh]
	 Total Energy              =    -263.3638194011334122 [Eh]

	 ================> DF-SCS-MP2 Energies <==================
	-----------------------------------------------------------
	 SCS Same-Spin Scale       =       0.3333333333333333 [-]
	 SCS Opposite-Spin Scale   =       1.2000000000000000 [-]
	 SCS Same-Spin Energy      =      -0.0859078135832718 [Eh]
	 SCS Opposite-Spin Energy  =      -0.8546453235662925 [Eh]
	 SCS Correlation Energy    =      -0.9405531371495643 [Eh]
	 SCS Total Energy          =    -263.3344446612279057 [Eh]
	-----------------------------------------------------------

  Dipole Moment: [D]
     X:     0.5198      Y:     1.3065      Z:     0.0000     Total:     1.4061

*** Psi4 exiting successfully. Buy a developer a beer!
