                               Psi4 1.4a3.dev225

  ==> Input File <==

--------------------------------------------------------------------------
#psi4
#
memory 32 gb

molecule  {
-2 1
  O       -1.2921450    -0.1901730    -0.0000340
  O        0.8107920    -1.0237360    -0.0000120
  O        0.4813280     1.2139460    -0.0000050
  C        0.0184614     0.0464324     0.0000642
units angstrom
no_reorient  #important for SAPT in psi4, default
symmetry c1  #important for SAPT in psi4, default
}

set PROPERTIES_ORIGIN ["COM"]
properties('MP2/aug-cc-pvtz', properties = ['dipole'])
--------------------------------------------------------------------------

    Molecular point group: c1
  Charge       = -2
  Multiplicity = 1
  Basis Set: AUG-CC-PVTZ
    Blend: AUG-CC-PVTZ
  Basis Set: (AUG-CC-PVTZ AUX)
    Blend: AUG-CC-PVTZ-JKFIT

    Orbital Energies [Eh]
    ---------------------

    Doubly Occupied:

       1A    -20.073777     2A    -20.057515     3A    -20.057478
       4A    -10.931021     5A     -0.952872     6A     -0.823856
       7A     -0.791109     8A     -0.273934     9A     -0.180226
      10A     -0.175391    11A     -0.149120    12A     -0.011043
      13A     -0.004787    14A      0.017460    15A      0.032037
      16A      0.055539

  @DF-RHF Final Energy:  -262.40400309635788

   => Energetics <=

    Nuclear Repulsion Energy =            103.2900673589027321
    One-Electron Energy =                -582.6339478196298387
    Two-Electron Energy =                 216.9398773643692380
    Total Energy =                       -262.4040030963578829
  Basis Set: (AUG-CC-PVTZ AUX)
    Blend: AUG-CC-PVTZ-RI
    Molecular point group: c1

    Geometry (in Angstrom), charge = -2, multiplicity = 1:

       Center              X                  Y                   Z               Mass
    ------------   -----------------  -----------------  -----------------  -----------------
         O           -1.295831552828    -0.199471707904    -0.000033244130    15.994914619570
         O            0.807105447172    -1.033034707904    -0.000011244130    15.994914619570
         O            0.477641447172     1.204647292096    -0.000004244130    15.994914619570
         C            0.014774847172     0.037133692096     0.000064955870    12.000000000000

  Basis Set: AUG-CC-PVTZ
    Blend: AUG-CC-PVTZ
  Basis Set: (AUG-CC-PVTZ AUX)
    Blend: AUG-CC-PVTZ-JKFIT
	 Reference Energy          =    -262.4040030963578829 [Eh]
	 Singles Energy            =      -0.0000000000000000 [Eh]
	 Same-Spin Energy          =      -0.2574600048893356 [Eh]
	 Opposite-Spin Energy      =      -0.7115687781756425 [Eh]
	 Correlation Energy        =      -0.9690287830649780 [Eh]
	 Total Energy              =    -263.3730318794228538 [Eh]

	 ================> DF-SCS-MP2 Energies <==================
	-----------------------------------------------------------
	 SCS Same-Spin Scale       =       0.3333333333333333 [-]
	 SCS Opposite-Spin Scale   =       1.2000000000000000 [-]
	 SCS Same-Spin Energy      =      -0.0858200016297785 [Eh]
	 SCS Opposite-Spin Energy  =      -0.8538825338107709 [Eh]
	 SCS Correlation Energy    =      -0.9397025354405495 [Eh]
	 SCS Total Energy          =    -263.3437056317984570 [Eh]
	-----------------------------------------------------------

  Dipole Moment: [D]
     X:     0.2625      Y:     0.6575      Z:     0.0000     Total:     0.7079

*** Psi4 exiting successfully. Buy a developer a beer!
