                               Psi4 1.4a3.dev225

  ==> Input File <==

--------------------------------------------------------------------------
#psi4
#
memory 32 gb

molecule  {
-2 1
  O       -1.2921450    -0.1901730    -0.0000340
  O        0.8107920    -1.0237360    -0.0000120
  O        0.4813280     1.2139460    -0.0000050
  C        0.0074050     0.0185442     0.0000659
units angstrom
no_reorient  #important for SAPT in psi4, default
symmetry c1  #important for SAPT in psi4, default
}

set PROPERTIES_ORIGIN ["COM"]
properties('MP2/aug-cc-pvtz', properties = ['dipole'])
--------------------------------------------------------------------------

    Molecular point group: c1
  Charge       = -2
  Multiplicity = 1
  Basis Set: AUG-CC-PVTZ
    Blend: AUG-CC-PVTZ
  Basis Set: (AUG-CC-PVTZ AUX)
    Blend: AUG-CC-PVTZ-JKFIT

    Orbital Energies [Eh]
    ---------------------

    Doubly Occupied:

       1A    -20.066988     2A    -20.060568     3A    -20.060529
       4A    -10.931108     5A     -0.947692     6A     -0.816299
       7A     -0.802007     8A     -0.272425     9A     -0.178024
      10A     -0.175504    11A     -0.146894    12A     -0.009964
      13A     -0.007031    14A      0.021333    15A      0.027466
      16A      0.054088

  @DF-RHF Final Energy:  -262.40661156073168

   => Energetics <=

    Nuclear Repulsion Energy =            103.2700760238221278
    One-Electron Energy =                -582.6090814824658537
    Two-Electron Energy =                 216.9323938979120783
    Total Energy =                       -262.4066115607316760
  Basis Set: (AUG-CC-PVTZ AUX)
    Blend: AUG-CC-PVTZ-RI
    Molecular point group: c1

    Geometry (in Angstrom), charge = -2, multiplicity = 1:

       Center              X                  Y                   Z               Mass
    ------------   -----------------  -----------------  -----------------  -----------------
         O           -1.293619710425    -0.193892649322    -0.000033584217    15.994914619570
         O            0.809317289575    -1.027455649322    -0.000011584217    15.994914619570
         O            0.479853289575     1.210226350678    -0.000004584217    15.994914619570
         C            0.005930289575     0.014824550678     0.000066315783    12.000000000000

  Basis Set: AUG-CC-PVTZ
    Blend: AUG-CC-PVTZ
  Basis Set: (AUG-CC-PVTZ AUX)
    Blend: AUG-CC-PVTZ-JKFIT
	 Reference Energy          =    -262.4066115607316760 [Eh]
	 Singles Energy            =      -0.0000000000000000 [Eh]
	 Same-Spin Energy          =      -0.2573829568254340 [Eh]
	 Opposite-Spin Energy      =      -0.7113844777788236 [Eh]
	 Correlation Energy        =      -0.9687674346042576 [Eh]
	 Total Energy              =    -263.3753789953359501 [Eh]

	 ================> DF-SCS-MP2 Energies <==================
	-----------------------------------------------------------
	 SCS Same-Spin Scale       =       0.3333333333333333 [-]
	 SCS Opposite-Spin Scale   =       1.2000000000000000 [-]
	 SCS Same-Spin Energy      =      -0.0857943189418113 [Eh]
	 SCS Opposite-Spin Energy  =      -0.8536613733345884 [Eh]
	 SCS Correlation Energy    =      -0.9394556922763997 [Eh]
	 SCS Total Energy          =    -263.3460672530080728 [Eh]
	-----------------------------------------------------------

  Dipole Moment: [D]
     X:     0.1064      Y:     0.2636      Z:     0.0000     Total:     0.2843

*** Psi4 exiting successfully. Buy a developer a beer!
