                               Psi4 1.4a3.dev225

  ==> Input File <==

--------------------------------------------------------------------------
#psi4
#
memory 32 gb

molecule  {
-2 1
  O       -1.2921450    -0.1901730    -0.0000340
  O        0.8107920    -1.0237360    -0.0000120
  O        0.4813280     1.2139460    -0.0000050
  C       -0.0197530    -0.0029594     0.0000655
units angstrom
no_reorient  #important for SAPT in psi4, default
symmetry c1  #important for SAPT in psi4, default
}

set PROPERTIES_ORIGIN ["COM"]
properties('MP2/aug-cc-pvtz', properties = ['dipole'])
--------------------------------------------------------------------------

    Molecular point group: c1
  Charge       = -2
  Multiplicity = 1
  Basis Set: AUG-CC-PVTZ
    Blend: AUG-CC-PVTZ
  Basis Set: (AUG-CC-PVTZ AUX)
    Blend: AUG-CC-PVTZ-JKFIT

    Orbital Energies [Eh]
    ---------------------

    Doubly Occupied:

       1A    -20.066991     2A    -20.060568     3A    -20.060528
       4A    -10.931111     5A     -0.947676     6A     -0.816289
       7A     -0.802025     8A     -0.272423     9A     -0.178028
      10A     -0.175493    11A     -0.146888    12A     -0.009975
      13A     -0.007026    14A      0.021330    15A      0.027468
      16A      0.054089

  @DF-RHF Final Energy:  -262.40661464854679

   => Energetics <=

    Nuclear Repulsion Energy =            103.2698940638778851
    One-Electron Energy =                -582.6087496748657486
    Two-Electron Energy =                 216.9322409624411137
    Total Energy =                       -262.4066146485467925
  Basis Set: (AUG-CC-PVTZ AUX)
    Blend: AUG-CC-PVTZ-RI
    Molecular point group: c1

    Geometry (in Angstrom), charge = -2, multiplicity = 1:

       Center              X                  Y                   Z               Mass
    ------------   -----------------  -----------------  -----------------  -----------------
         O           -1.288186728987    -0.189590835504    -0.000033504197    15.994914619570
         O            0.814750271013    -1.023153835504    -0.000011504197    15.994914619570
         O            0.485286271013     1.214528164496    -0.000004504197    15.994914619570
         C           -0.015794728987    -0.002377235504     0.000065995803    12.000000000000

  Basis Set: AUG-CC-PVTZ
    Blend: AUG-CC-PVTZ
  Basis Set: (AUG-CC-PVTZ AUX)
    Blend: AUG-CC-PVTZ-JKFIT
	 Reference Energy          =    -262.4066146485467925 [Eh]
	 Singles Energy            =      -0.0000000000000000 [Eh]
	 Same-Spin Energy          =      -0.2573832195053279 [Eh]
	 Opposite-Spin Energy      =      -0.7113849193320017 [Eh]
	 Correlation Energy        =      -0.9687681388373295 [Eh]
	 Total Energy              =    -263.3753827873841260 [Eh]

	 ================> DF-SCS-MP2 Energies <==================
	-----------------------------------------------------------
	 SCS Same-Spin Scale       =       0.3333333333333333 [-]
	 SCS Opposite-Spin Scale   =       1.2000000000000000 [-]
	 SCS Same-Spin Energy      =      -0.0857944065017760 [Eh]
	 SCS Opposite-Spin Energy  =      -0.8536619031984020 [Eh]
	 SCS Correlation Energy    =      -0.9394563097001779 [Eh]
	 SCS Total Energy          =    -263.3460709582469690 [Eh]
	-----------------------------------------------------------

  Dipole Moment: [D]
     X:    -0.2793      Y:    -0.0417      Z:     0.0000     Total:     0.2824

*** Psi4 exiting successfully. Buy a developer a beer!
