                               Psi4 1.3.2 release

  ==> Input File <==

--------------------------------------------------------------------------
#psi4
#
memory 32 gb

molecule  {
-2 1
  O       -1.3049398    -0.0540620    -0.0000482
  O        0.8107920    -1.0237360    -0.0000120
  O        0.4813280     1.2139460    -0.0000050
  C        0.0000340    -0.0000480     0.0000670
units angstrom
no_reorient  #important for SAPT in psi4, default
symmetry c1  #important for SAPT in psi4, default
}

set PROPERTIES_ORIGIN ["COM"]
properties('MP2/aug-cc-pvtz', properties = ['dipole'])
--------------------------------------------------------------------------

    Molecular point group: c1
  Charge       = -2
  Multiplicity = 1
  Basis Set: AUG-CC-PVTZ
    Blend: AUG-CC-PVTZ
  Basis Set: (AUG-CC-PVTZ AUX)
    Blend: AUG-CC-PVTZ-JKFIT

    Orbital Energies [Eh]
    ---------------------

    Doubly Occupied:

       1A    -20.071267     2A    -20.062369     3A    -20.053693
       4A    -10.931237     5A     -0.947342     6A     -0.820375
       7A     -0.797705     8A     -0.272341     9A     -0.180774
      10A     -0.171938    11A     -0.146745    12A     -0.014660
      13A     -0.003643    14A      0.017326    15A      0.031967
      16A      0.056864

  @DF-RHF Final Energy:  -262.40299403163237

   => Energetics <=

    Nuclear Repulsion Energy =            103.3351596257477070
    One-Electron Energy =                -582.7404408462906531
    Two-Electron Energy =                 217.0022871889106284
    Total Energy =                       -262.4029940316323746
  Basis Set: (AUG-CC-PVTZ AUX)
    Blend: AUG-CC-PVTZ-RI
    Molecular point group: c1

    Geometry (in Angstrom), charge = -2, multiplicity = 1:

       Center              X                  Y                   Z               Mass
    ------------   -----------------  -----------------  -----------------  -----------------
         O           -1.301528205763    -0.090356222424    -0.000044217847    15.994914619570
         O            0.814203594237    -1.060030222424    -0.000008017847    15.994914619570
         O            0.484739594237     1.177651777576    -0.000001017847    15.994914619570
         C            0.003445594237    -0.036342222424     0.000070982153    12.000000000000

  Basis Set: AUG-CC-PVTZ
    Blend: AUG-CC-PVTZ
  Basis Set: (AUG-CC-PVTZ AUX)
    Blend: AUG-CC-PVTZ-JKFIT
	 Reference Energy          =    -262.4029940316323746 [Eh]
	 Singles Energy            =      -0.0000000000000000 [Eh]
	 Same-Spin Energy          =      -0.2575708185171350 [Eh]
	 Opposite-Spin Energy      =      -0.7117367008118385 [Eh]
	 Correlation Energy        =      -0.9693075193289735 [Eh]
	 Total Energy              =    -263.3723015509613674 [Eh]

	 ================> DF-SCS-MP2 Energies <==================
	-----------------------------------------------------------
	 SCS Same-Spin Scale       =       0.3333333333333333 [-]
	 SCS Opposite-Spin Scale   =       1.2000000000000000 [-]
	 SCS Same-Spin Energy      =      -0.0858569395057117 [Eh]
	 SCS Opposite-Spin Energy  =      -0.8540840409742062 [Eh]
	 SCS Correlation Energy    =      -0.9399409804799179 [Eh]
	 SCS Total Energy          =    -263.3429350121123207 [Eh]
	-----------------------------------------------------------

  Dipole Moment: [D]
     X:     0.0180      Y:    -0.1346      Z:     0.0000     Total:     0.1358

*** Psi4 exiting successfully. Buy a developer a beer!
