                               Psi4 1.4a3.dev225

  ==> Input File <==

--------------------------------------------------------------------------
#psi4
#
memory 32 gb

molecule  {
-2 1
  O       -1.2921450    -0.1901730    -0.0000340
  O        0.8107920    -1.0237360    -0.0000120
  O        0.4813280     1.2139460    -0.0000050
  C        0.0495014     0.0072304     0.0000709
units angstrom
no_reorient  #important for SAPT in psi4, default
symmetry c1  #important for SAPT in psi4, default
}

set PROPERTIES_ORIGIN ["COM"]
properties('MP2/aug-cc-pvtz', properties = ['dipole'])
--------------------------------------------------------------------------

    Molecular point group: c1
  Charge       = -2
  Multiplicity = 1
  Basis Set: AUG-CC-PVTZ
    Blend: AUG-CC-PVTZ
  Basis Set: (AUG-CC-PVTZ AUX)
    Blend: AUG-CC-PVTZ-JKFIT

    Orbital Energies [Eh]
    ---------------------

    Doubly Occupied:

       1A    -20.068213     2A    -20.068172     3A    -20.052398
       4A    -10.931117     5A     -0.951033     6A     -0.828499
       7A     -0.788210     8A     -0.273545     9A     -0.181989
      10A     -0.173706    11A     -0.148711    12A     -0.013403
      13A     -0.002655    14A      0.016202    15A      0.033015
      16A      0.055538

  @DF-RHF Final Energy:  -262.40432989546088

   => Energetics <=

    Nuclear Repulsion Energy =            103.2860937748970116
    One-Electron Energy =                -582.6270527748633867
    Two-Electron Energy =                 216.9366291045054709
    Total Energy =                       -262.4043298954608758
  Basis Set: (AUG-CC-PVTZ AUX)
    Blend: AUG-CC-PVTZ-RI
    Molecular point group: c1

    Geometry (in Angstrom), charge = -2, multiplicity = 1:

       Center              X                  Y                   Z               Mass
    ------------   -----------------  -----------------  -----------------  -----------------
         O           -1.302041131732    -0.191629313826    -0.000034584471    15.994914619570
         O            0.800895868268    -1.025192313826    -0.000012584471    15.994914619570
         O            0.471431868268     1.212489686174    -0.000005584471    15.994914619570
         C            0.039605268268     0.005774086174     0.000070315529    12.000000000000

  Basis Set: AUG-CC-PVTZ
    Blend: AUG-CC-PVTZ
  Basis Set: (AUG-CC-PVTZ AUX)
    Blend: AUG-CC-PVTZ-JKFIT
	 Reference Energy          =    -262.4043298954608758 [Eh]
	 Singles Energy            =      -0.0000000000000000 [Eh]
	 Same-Spin Energy          =      -0.2574715420354697 [Eh]
	 Opposite-Spin Energy      =      -0.7115856425942948 [Eh]
	 Correlation Energy        =      -0.9690571846297644 [Eh]
	 Total Energy              =    -263.3733870800906516 [Eh]

	 ================> DF-SCS-MP2 Energies <==================
	-----------------------------------------------------------
	 SCS Same-Spin Scale       =       0.3333333333333333 [-]
	 SCS Opposite-Spin Scale   =       1.2000000000000000 [-]
	 SCS Same-Spin Energy      =      -0.0858238473451566 [Eh]
	 SCS Opposite-Spin Energy  =      -0.8539027711131537 [Eh]
	 SCS Correlation Energy    =      -0.9397266184583103 [Eh]
	 SCS Total Energy          =    -263.3440565139192131 [Eh]
	-----------------------------------------------------------

  Dipole Moment: [D]
     X:     0.7085      Y:     0.1036      Z:     0.0000     Total:     0.7161

*** Psi4 exiting successfully. Buy a developer a beer!
