                               Psi4 1.3.2 release

  ==> Input File <==

--------------------------------------------------------------------------
#psi4
#
memory 32 gb

molecule  {
-2 1
  O       -1.2921450    -0.1901730    -0.0000340
  O        0.8107920    -1.0237360    -0.0000120
  O        0.4813280     1.2139460    -0.0000050
  C        0.0989688     0.0145088     0.0000747
units angstrom
no_reorient  #important for SAPT in psi4, default
symmetry c1  #important for SAPT in psi4, default
}

set PROPERTIES_ORIGIN ["COM"]
properties('MP2/aug-cc-pvtz', properties = ['dipole'])
--------------------------------------------------------------------------

    Molecular point group: c1
  Charge       = -2
  Multiplicity = 1
  Basis Set: AUG-CC-PVTZ
    Blend: AUG-CC-PVTZ
  Basis Set: (AUG-CC-PVTZ AUX)
    Blend: AUG-CC-PVTZ-JKFIT

    Orbital Energies [Eh]
    ---------------------

    Doubly Occupied:

       1A    -20.074210     2A    -20.074167     3A    -20.042963
       4A    -10.931371     5A     -0.960670     6A     -0.848161
       7A     -0.764956     8A     -0.277042     9A     -0.190295
      10A     -0.173008    11A     -0.154570    12A     -0.019813
      13A      0.006962    14A      0.007601    15A      0.042678
      16A      0.060252

  @DF-RHF Final Energy:  -262.39661920482632

   => Energetics <=

    Nuclear Repulsion Energy =            103.3364161109350619
    One-Electron Energy =                -582.6786064619878971
    Two-Electron Energy =                 216.9455711462265697
    Total Energy =                       -262.3966192048262656
  Basis Set: (AUG-CC-PVTZ AUX)
    Blend: AUG-CC-PVTZ-RI
    Molecular point group: c1

    Geometry (in Angstrom), charge = -2, multiplicity = 1:

       Center              X                  Y                   Z               Mass
    ------------   -----------------  -----------------  -----------------  -----------------
         O           -1.311937127977    -0.193085364055    -0.000035344664    15.994914619570
         O            0.790999872023    -1.026648364055    -0.000013344664    15.994914619570
         O            0.461535872023     1.211033635945    -0.000006344664    15.994914619570
         C            0.079176672023     0.011596435945     0.000073355336    12.000000000000

  Basis Set: AUG-CC-PVTZ
    Blend: AUG-CC-PVTZ
  Basis Set: (AUG-CC-PVTZ AUX)
    Blend: AUG-CC-PVTZ-JKFIT
	 Reference Energy          =    -262.3966192048263224 [Eh]
	 Singles Energy            =      -0.0000000000000000 [Eh]
	 Same-Spin Energy          =      -0.2578118083129994 [Eh]
	 Opposite-Spin Energy      =      -0.7123320426428286 [Eh]
	 Correlation Energy        =      -0.9701438509558280 [Eh]
	 Total Energy              =    -263.3667630557821440 [Eh]

	 ================> DF-SCS-MP2 Energies <==================
	-----------------------------------------------------------
	 SCS Same-Spin Scale       =       0.3333333333333333 [-]
	 SCS Opposite-Spin Scale   =       1.2000000000000000 [-]
	 SCS Same-Spin Energy      =      -0.0859372694376665 [Eh]
	 SCS Opposite-Spin Energy  =      -0.8547984511713943 [Eh]
	 SCS Correlation Energy    =      -0.9407357206090607 [Eh]
	 SCS Total Energy          =    -263.3373549254353634 [Eh]
	-----------------------------------------------------------

  Dipole Moment: [D]
     X:     1.4200      Y:     0.2083      Z:     0.0001     Total:     1.4352

*** Psi4 exiting successfully. Buy a developer a beer!
