                               Psi4 1.3.2 release

  ==> Input File <==

--------------------------------------------------------------------------
#psi4
#
memory 32 gb

molecule  {
-2 1
  O       -1.2651928    -0.3242010    -0.0000187
  O        0.8107920    -1.0237360    -0.0000120
  O        0.4813280     1.2139460    -0.0000050
  C        0.0000340    -0.0000480     0.0000670
units angstrom
no_reorient  #important for SAPT in psi4, default
symmetry c1  #important for SAPT in psi4, default
}

set PROPERTIES_ORIGIN ["COM"]
properties('MP2/aug-cc-pvtz', properties = ['dipole'])
--------------------------------------------------------------------------

    Molecular point group: c1
  Charge       = -2
  Multiplicity = 1
  Basis Set: AUG-CC-PVTZ
    Blend: AUG-CC-PVTZ
  Basis Set: (AUG-CC-PVTZ AUX)
    Blend: AUG-CC-PVTZ-JKFIT

    Orbital Energies [Eh]
    ---------------------

    Doubly Occupied:

       1A    -20.071242     2A    -20.062369     3A    -20.053718
       4A    -10.931236     5A     -0.947341     6A     -0.820335
       7A     -0.797748     8A     -0.272339     9A     -0.180764
      10A     -0.171949    11A     -0.146743    12A     -0.014644
      13A     -0.003654    14A      0.017345    15A      0.031944
      16A      0.056850

  @DF-RHF Final Energy:  -262.40300924074495

   => Energetics <=

    Nuclear Repulsion Energy =            103.3348913806766092
    One-Electron Energy =                -582.7399176709167250
    Two-Electron Energy =                 217.0020170494952083
    Total Energy =                       -262.4030092407449501
  Basis Set: (AUG-CC-PVTZ AUX)
    Blend: AUG-CC-PVTZ-RI
    Molecular point group: c1

    Geometry (in Angstrom), charge = -2, multiplicity = 1:

       Center              X                  Y                   Z               Mass
    ------------   -----------------  -----------------  -----------------  -----------------
         O           -1.272379731830    -0.288462736120    -0.000022584013    15.994914619570
         O            0.803605068170    -0.987997736120    -0.000015884013    15.994914619570
         O            0.474141068170     1.249684263880    -0.000008884013    15.994914619570
         C           -0.007152931830     0.035690263880     0.000063115987    12.000000000000

  Basis Set: AUG-CC-PVTZ
    Blend: AUG-CC-PVTZ
  Basis Set: (AUG-CC-PVTZ AUX)
    Blend: AUG-CC-PVTZ-JKFIT
	 Reference Energy          =    -262.4030092407449501 [Eh]
	 Singles Energy            =      -0.0000000000000000 [Eh]
	 Same-Spin Energy          =      -0.2575699038638817 [Eh]
	 Opposite-Spin Energy      =      -0.7117350140480895 [Eh]
	 Correlation Energy        =      -0.9693049179119712 [Eh]
	 Total Energy              =    -263.3723141586569341 [Eh]

	 ================> DF-SCS-MP2 Energies <==================
	-----------------------------------------------------------
	 SCS Same-Spin Scale       =       0.3333333333333333 [-]
	 SCS Opposite-Spin Scale   =       1.2000000000000000 [-]
	 SCS Same-Spin Energy      =      -0.0858566346212939 [Eh]
	 SCS Opposite-Spin Energy  =      -0.8540820168577073 [Eh]
	 SCS Correlation Energy    =      -0.9399386514790012 [Eh]
	 SCS Total Energy          =    -263.3429478922239468 [Eh]
	-----------------------------------------------------------

  Dipole Moment: [D]
     X:    -0.0213      Y:     0.1329      Z:     0.0000     Total:     0.1346

*** Psi4 exiting successfully. Buy a developer a beer!
