                               Psi4 1.3.2 release

  ==> Input File <==

--------------------------------------------------------------------------
#psi4
#
memory 32 gb

molecule  {
-2 1
  O       -1.2979931    -0.1449608    -0.0000389
  O        0.8107920    -1.0237360    -0.0000120
  O        0.4813280     1.2139460    -0.0000050
  C        0.0000340    -0.0000480     0.0000670
units angstrom
no_reorient  #important for SAPT in psi4, default
symmetry c1  #important for SAPT in psi4, default
}

set PROPERTIES_ORIGIN ["COM"]
properties('MP2/aug-cc-pvtz', properties = ['dipole'])
--------------------------------------------------------------------------

    Molecular point group: c1
  Charge       = -2
  Multiplicity = 1
  Basis Set: AUG-CC-PVTZ
    Blend: AUG-CC-PVTZ
  Basis Set: (AUG-CC-PVTZ AUX)
    Blend: AUG-CC-PVTZ-JKFIT

    Orbital Energies [Eh]
    ---------------------

    Doubly Occupied:

       1A    -20.065575     2A    -20.062614     3A    -20.059695
       4A    -10.931133     5A     -0.946862     6A     -0.813164
       7A     -0.805598     8A     -0.272180     9A     -0.178021
      10A     -0.175056    11A     -0.146520    12A     -0.010515
      13A     -0.006810    14A      0.021931    15A      0.026820
      16A      0.054149

  @DF-RHF Final Energy:  -262.40663224588315

   => Energetics <=

    Nuclear Repulsion Energy =            103.2741058966281997
    One-Electron Energy =                -582.6197887558573711
    Two-Electron Energy =                 216.9390506133460406
    Total Energy =                       -262.4066322458830882
  Basis Set: (AUG-CC-PVTZ AUX)
    Blend: AUG-CC-PVTZ-RI
    Molecular point group: c1

    Geometry (in Angstrom), charge = -2, multiplicity = 1:

       Center              X                  Y                   Z               Mass
    ------------   -----------------  -----------------  -----------------  -----------------
         O           -1.296433841311    -0.157016883665    -0.000037397689    15.994914619570
         O            0.812351258689    -1.035792083665    -0.000010497689    15.994914619570
         O            0.482887258689     1.201889916335    -0.000003497689    15.994914619570
         C            0.001593258689    -0.012104083665     0.000068502311    12.000000000000

  Basis Set: AUG-CC-PVTZ
    Blend: AUG-CC-PVTZ
  Basis Set: (AUG-CC-PVTZ AUX)
    Blend: AUG-CC-PVTZ-JKFIT
	 Reference Energy          =    -262.4066322458831451 [Eh]
	 Singles Energy            =      -0.0000000000000000 [Eh]
	 Same-Spin Energy          =      -0.2573903228893132 [Eh]
	 Opposite-Spin Energy      =      -0.7113917167453221 [Eh]
	 Correlation Energy        =      -0.9687820396346353 [Eh]
	 Total Energy              =    -263.3754142855177633 [Eh]

	 ================> DF-SCS-MP2 Energies <==================
	-----------------------------------------------------------
	 SCS Same-Spin Scale       =       0.3333333333333333 [-]
	 SCS Opposite-Spin Scale   =       1.2000000000000000 [-]
	 SCS Same-Spin Energy      =      -0.0857967742964377 [Eh]
	 SCS Opposite-Spin Energy  =      -0.8536700600943865 [Eh]
	 SCS Correlation Energy    =      -0.9394668343908242 [Eh]
	 SCS Total Energy          =    -263.3460990802739730 [Eh]
	-----------------------------------------------------------

  Dipole Moment: [D]
     X:     0.0079      Y:    -0.0454      Z:     0.0000     Total:     0.0461

*** Psi4 exiting successfully. Buy a developer a beer!
