                               Psi4 1.3.2 release

  ==> Input File <==

--------------------------------------------------------------------------
#psi4
#
memory 32 gb

molecule  {
-2 1
  O       -1.2921450    -0.1901730    -0.0000340
  O        0.8107920    -1.0237360    -0.0000120
  O        0.4813280     1.2139460    -0.0000050
  C        0.0737436     0.1858737     0.0000560
units angstrom
no_reorient  #important for SAPT in psi4, default
symmetry c1  #important for SAPT in psi4, default
}

set PROPERTIES_ORIGIN ["COM"]
properties('MP2/aug-cc-pvtz', properties = ['dipole'])
--------------------------------------------------------------------------

    Molecular point group: c1
  Charge       = -2
  Multiplicity = 1
  Basis Set: AUG-CC-PVTZ
    Blend: AUG-CC-PVTZ
  Basis Set: (AUG-CC-PVTZ AUX)
    Blend: AUG-CC-PVTZ-JKFIT

    Orbital Energies [Eh]
    ---------------------

    Doubly Occupied:

       1A    -20.112511     2A    -20.044605     3A    -20.044570
       4A    -10.928744     5A     -1.047449     6A     -0.813131
       7A     -0.742164     8A     -0.305763     9A     -0.208904
      10A     -0.195023    11A     -0.182101    12A     -0.004471
      13A      0.012217    14A      0.014363    15A      0.052336
      16A      0.075292

  @DF-RHF Final Energy:  -262.34517702387217

   => Energetics <=

    Nuclear Repulsion Energy =            103.7464785780844494
    One-Electron Energy =                -583.2328597101112564
    Two-Electron Energy =                 217.1412041081546249
    Total Energy =                       -262.3451770238721679
  Basis Set: (AUG-CC-PVTZ AUX)
    Blend: AUG-CC-PVTZ-RI
    Molecular point group: c1

    Geometry (in Angstrom), charge = -2, multiplicity = 1:

       Center              X                  Y                   Z               Mass
    ------------   -----------------  -----------------  -----------------  -----------------
         O           -1.306890804854    -0.227367060828    -0.000031603713    15.994914619570
         O            0.796046195146    -1.060930060828    -0.000009603713    15.994914619570
         O            0.466582195146     1.176751939172    -0.000002603713    15.994914619570
         C            0.058997795146     0.148679639172     0.000058396287    12.000000000000

  Basis Set: AUG-CC-PVTZ
    Blend: AUG-CC-PVTZ
  Basis Set: (AUG-CC-PVTZ AUX)
    Blend: AUG-CC-PVTZ-JKFIT
	 Reference Energy          =    -262.3451770238721679 [Eh]
	 Singles Energy            =      -0.0000000000000000 [Eh]
	 Same-Spin Energy          =      -0.2587591423227725 [Eh]
	 Opposite-Spin Energy      =      -0.7146400501422421 [Eh]
	 Correlation Energy        =      -0.9733991924650146 [Eh]
	 Total Energy              =    -263.3185762163371919 [Eh]

	 ================> DF-SCS-MP2 Energies <==================
	-----------------------------------------------------------
	 SCS Same-Spin Scale       =       0.3333333333333333 [-]
	 SCS Opposite-Spin Scale   =       1.2000000000000000 [-]
	 SCS Same-Spin Energy      =      -0.0862530474409242 [Eh]
	 SCS Opposite-Spin Energy  =      -0.8575680601706904 [Eh]
	 SCS Correlation Energy    =      -0.9438211076116146 [Eh]
	 SCS Total Energy          =    -263.2889981314837655 [Eh]
	-----------------------------------------------------------

  Dipole Moment: [D]
     X:     1.0165      Y:     2.5592      Z:     0.0000     Total:     2.7537

*** Psi4 exiting successfully. Buy a developer a beer!
