                               Psi4 1.4a3.dev225

  ==> Input File <==

--------------------------------------------------------------------------
#psi4
#
memory 32 gb

molecule  {
0 1
  O        3.3862911    -0.5434624    -0.1824497
  O        1.8951010     0.2455770     1.3601080
  C       -0.2772440    -0.3351030    -0.4349210
  C       -0.8873890     0.9145300    -0.2106810
  C        1.1586640    -0.4340120    -0.8715550
  C       -1.0136460    -1.5104990    -0.2499190
  C       -2.2266560     0.9408910     0.1955810
  C       -0.1273370     2.2020410    -0.3962590
  C       -2.3465050    -1.4683140     0.1589870
  C       -2.9558630    -0.2342200     0.3827420
  C        2.1430500    -0.1948310     0.2522150
  H        1.3959000     0.2860400    -1.6653130
  H        1.3705120    -1.4228390    -1.2930960
  H       -0.5342380    -2.4720800    -0.4282290
  H       -2.7060670     1.9027110     0.3699220
  H        0.7120030     2.2634110     0.3019610
  H        0.2711870     2.2951320    -1.4130380
  H       -0.7808240     3.0602230    -0.2184200
  H       -2.9035660    -2.3916010     0.2984300
  H       -3.9950070    -0.1842490     0.6994320
  H        3.9774380    -0.3341110     0.6295290
units angstrom
no_reorient  #important for SAPT in psi4, default
symmetry c1  #important for SAPT in psi4, default
}

set PROPERTIES_ORIGIN ["COM"]
properties('MP2/aug-cc-pvtz', properties = ['dipole'])
--------------------------------------------------------------------------

    Molecular point group: c1
  Charge       = 0
  Multiplicity = 1
  Basis Set: AUG-CC-PVTZ
    Blend: AUG-CC-PVTZ
  Basis Set: (AUG-CC-PVTZ AUX)
    Blend: AUG-CC-PVTZ-JKFIT

    Orbital Energies [Eh]
    ---------------------

    Doubly Occupied:

       1A    -20.624915     2A    -20.557297     3A    -11.394984
       4A    -11.256496     5A    -11.243751     6A    -11.242610
       7A    -11.235948     8A    -11.234222     9A    -11.231932
      10A    -11.230667    11A    -11.222553    12A     -1.459085
      13A     -1.360459    14A     -1.160106    15A     -1.069367
      16A     -1.041030    17A     -0.980271    18A     -0.929625
      19A     -0.835322    20A     -0.810307    21A     -0.774247
      22A     -0.708294    23A     -0.687749    24A     -0.677685
      25A     -0.666543    26A     -0.627952    27A     -0.624730
      28A     -0.597060    29A     -0.576654    30A     -0.568264
      31A     -0.563474    32A     -0.547221    33A     -0.540150
      34A     -0.491909    35A     -0.486081    36A     -0.483375
      37A     -0.482499    38A     -0.458248    39A     -0.332836
      40A     -0.322820

  @DF-RHF Final Energy:  -496.55848799848906

   => Energetics <=

    Nuclear Repulsion Energy =            583.5091949935846287
    One-Electron Energy =               -1833.4578873231653233
    Two-Electron Energy =                 753.3902043310918089
    Total Energy =                       -496.5584879984889994
  Basis Set: (AUG-CC-PVTZ AUX)
    Blend: AUG-CC-PVTZ-RI
    Molecular point group: c1

    Geometry (in Angstrom), charge = 0, multiplicity = 1:

       Center              X                  Y                   Z               Mass
    ------------   -----------------  -----------------  -----------------  -----------------
         O            3.367215364259    -0.522320510150    -0.195848466051    15.994914619570
         O            1.876025264259     0.266718889850     1.346709233949    15.994914619570
         C           -0.296319735741    -0.313961110150    -0.448319766051    12.000000000000
         C           -0.906464735741     0.935671889850    -0.224079766051    12.000000000000
         C            1.139588264259    -0.412870110150    -0.884953766051    12.000000000000
         C           -1.032721735741    -1.489357110150    -0.263317766051    12.000000000000
         C           -2.245731735741     0.962032889850     0.182182233949    12.000000000000
         C           -0.146412735741     2.223182889850    -0.409657766051    12.000000000000
         C           -2.365580735741    -1.447172110150     0.145588233949    12.000000000000
         C           -2.974938735741    -0.213078110150     0.369343233949    12.000000000000
         C            2.123974264259    -0.173689110150     0.238816233949    12.000000000000
         H            1.376824264259     0.307181889850    -1.678711766051     1.007825032230
         H            1.351436264259    -1.401697110150    -1.306494766051     1.007825032230
         H           -0.553313735741    -2.450938110150    -0.441627766051     1.007825032230
         H           -2.725142735741     1.923852889850     0.356523233949     1.007825032230
         H            0.692927264259     2.284552889850     0.288562233949     1.007825032230
         H            0.252111264259     2.316273889850    -1.426436766051     1.007825032230
         H           -0.799899735741     3.081364889850    -0.231818766051     1.007825032230
         H           -2.922641735741    -2.370459110150     0.285031233949     1.007825032230
         H           -4.014082735741    -0.163107110150     0.686033233949     1.007825032230
         H            3.958362264259    -0.312969110150     0.616130233949     1.007825032230

  Basis Set: AUG-CC-PVTZ
    Blend: AUG-CC-PVTZ
  Basis Set: (AUG-CC-PVTZ AUX)
    Blend: AUG-CC-PVTZ-JKFIT
	 Reference Energy          =    -496.5584879984890563 [Eh]
	 Singles Energy            =      -0.0000000000000000 [Eh]
	 Same-Spin Energy          =      -0.5245763411561103 [Eh]
	 Opposite-Spin Energy      =      -1.6306878897632118 [Eh]
	 Correlation Energy        =      -2.1552642309193222 [Eh]
	 Total Energy              =    -498.7137522294083851 [Eh]

	 ================> DF-SCS-MP2 Energies <==================
	-----------------------------------------------------------
	 SCS Same-Spin Scale       =       0.3333333333333333 [-]
	 SCS Opposite-Spin Scale   =       1.2000000000000000 [-]
	 SCS Same-Spin Energy      =      -0.1748587803853701 [Eh]
	 SCS Opposite-Spin Energy  =      -1.9568254677158541 [Eh]
	 SCS Correlation Energy    =      -2.1316842481012244 [Eh]
	 SCS Total Energy          =    -498.6901722465902935 [Eh]
	-----------------------------------------------------------

  Dipole Moment: [D]
     X:     0.6346      Y:    -0.1071      Z:    -1.1550     Total:     1.3222

*** Psi4 exiting successfully. Buy a developer a beer!
