                               Psi4 1.4a3.dev225

  ==> Input File <==

--------------------------------------------------------------------------
#psi4
#
memory 32 gb

molecule  {
0 1
  O        3.4036770    -0.5312700    -0.1399000
  O        1.8951010     0.2455770     1.3601080
  C       -0.2772440    -0.3351030    -0.4349210
  C       -0.8873890     0.9145300    -0.2106810
  C        1.1586640    -0.4340120    -0.8715550
  C       -1.0136460    -1.5104990    -0.2499190
  C       -2.2266560     0.9408910     0.1955810
  C       -0.1273370     2.2020410    -0.3962590
  C       -2.3469707    -1.5656209     0.1559181
  C       -2.9558630    -0.2342200     0.3827420
  C        2.1430500    -0.1948310     0.2522150
  H        1.3959000     0.2860400    -1.6653130
  H        1.3705120    -1.4228390    -1.2930960
  H       -0.5342380    -2.4720800    -0.4282290
  H       -2.7060670     1.9027110     0.3699220
  H        0.7120030     2.2634110     0.3019610
  H        0.2711870     2.2951320    -1.4130380
  H       -0.7808240     3.0602230    -0.2184200
  H       -2.9035660    -2.3916010     0.2984300
  H       -3.9950070    -0.1842490     0.6994320
  H        3.9774380    -0.3341110     0.6295290
units angstrom
no_reorient  #important for SAPT in psi4, default
symmetry c1  #important for SAPT in psi4, default
}

set PROPERTIES_ORIGIN ["COM"]
properties('MP2/aug-cc-pvtz', properties = ['dipole'])
--------------------------------------------------------------------------

    Molecular point group: c1
  Charge       = 0
  Multiplicity = 1
  Basis Set: AUG-CC-PVTZ
    Blend: AUG-CC-PVTZ
  Basis Set: (AUG-CC-PVTZ AUX)
    Blend: AUG-CC-PVTZ-JKFIT

    Orbital Energies [Eh]
    ---------------------

    Doubly Occupied:

       1A    -20.618711     2A    -20.554674     3A    -11.394379
       4A    -11.258770     5A    -11.246366     6A    -11.244345
       7A    -11.243559     8A    -11.238453     9A    -11.235102
      10A    -11.231593    11A    -11.223739    12A     -1.462697
      13A     -1.360119    14A     -1.156196    15A     -1.065051
      16A     -1.042136    17A     -0.979456    18A     -0.932495
      19A     -0.837827    20A     -0.812119    21A     -0.784170
      22A     -0.709117    23A     -0.691319    24A     -0.680219
      25A     -0.663478    26A     -0.632495    27A     -0.625632
      28A     -0.596422    29A     -0.586391    30A     -0.570252
      31A     -0.562468    32A     -0.547177    33A     -0.538015
      34A     -0.495093    35A     -0.487558    36A     -0.479290
      37A     -0.474980    38A     -0.457166    39A     -0.336237
      40A     -0.316489

  @DF-RHF Final Energy:  -496.55102435382645

   => Energetics <=

    Nuclear Repulsion Energy =            582.0467066239323231
    One-Electron Energy =               -1830.4519533913032774
    Two-Electron Energy =                 751.8542224135444485
    Total Energy =                       -496.5510243538265058
  Basis Set: (AUG-CC-PVTZ AUX)
    Blend: AUG-CC-PVTZ-RI
    Molecular point group: c1

    Geometry (in Angstrom), charge = 0, multiplicity = 1:

       Center              X                  Y                   Z               Mass
    ------------   -----------------  -----------------  -----------------  -----------------
         O            3.382785437823    -0.503646609181    -0.157588499220    15.994914619570
         O            1.874209437823     0.273200390819     1.342419500780    15.994914619570
         C           -0.298135562177    -0.307479609181    -0.452609499220    12.000000000000
         C           -0.908280562177     0.942153390819    -0.228369499220    12.000000000000
         C            1.137772437823    -0.406388609181    -0.889243499220    12.000000000000
         C           -1.034537562177    -1.482875609181    -0.267607499220    12.000000000000
         C           -2.247547562177     0.968514390819     0.177892500780    12.000000000000
         C           -0.148228562177     2.229664390819    -0.413947499220    12.000000000000
         C           -2.367862262177    -1.537997509181     0.138229600780    12.000000000000
         C           -2.976754562177    -0.206596609181     0.365053500780    12.000000000000
         C            2.122158437823    -0.167207609181     0.234526500780    12.000000000000
         H            1.375008437823     0.313663390819    -1.683001499220     1.007825032230
         H            1.349620437823    -1.395215609181    -1.310784499220     1.007825032230
         H           -0.555129562177    -2.444456609181    -0.445917499220     1.007825032230
         H           -2.726958562177     1.930334390819     0.352233500780     1.007825032230
         H            0.691111437823     2.291034390819     0.284272500780     1.007825032230
         H            0.250295437823     2.322755390819    -1.430726499220     1.007825032230
         H           -0.801715562177     3.087846390819    -0.236108499220     1.007825032230
         H           -2.924457562177    -2.363977609181     0.280741500780     1.007825032230
         H           -4.015898562177    -0.156625609181     0.681743500780     1.007825032230
         H            3.956546437823    -0.306487609181     0.611840500780     1.007825032230

  Basis Set: AUG-CC-PVTZ
    Blend: AUG-CC-PVTZ
  Basis Set: (AUG-CC-PVTZ AUX)
    Blend: AUG-CC-PVTZ-JKFIT
	 Reference Energy          =    -496.5510243538264490 [Eh]
	 Singles Energy            =      -0.0000000000000000 [Eh]
	 Same-Spin Energy          =      -0.5237466650701106 [Eh]
	 Opposite-Spin Energy      =      -1.6298880596492680 [Eh]
	 Correlation Energy        =      -2.1536347247193786 [Eh]
	 Total Energy              =    -498.7046590785458307 [Eh]

	 ================> DF-SCS-MP2 Energies <==================
	-----------------------------------------------------------
	 SCS Same-Spin Scale       =       0.3333333333333333 [-]
	 SCS Opposite-Spin Scale   =       1.2000000000000000 [-]
	 SCS Same-Spin Energy      =      -0.1745822216900368 [Eh]
	 SCS Opposite-Spin Energy  =      -1.9558656715791214 [Eh]
	 SCS Correlation Energy    =      -2.1304478932691584 [Eh]
	 SCS Total Energy          =    -498.6814722470955985 [Eh]
	-----------------------------------------------------------

  Dipole Moment: [D]
     X:     0.5436      Y:    -0.1152      Z:    -1.2091     Total:     1.3307

*** Psi4 exiting successfully. Buy a developer a beer!
