                               Psi4 1.4a3.dev225

  ==> Input File <==

--------------------------------------------------------------------------
#psi4
#
memory 32 gb

molecule  {
0 1
  O        3.4036770    -0.5312700    -0.1399000
  O        1.8951010     0.2455770     1.3601080
  C       -0.2772440    -0.3351030    -0.4349210
  C       -0.8873890     0.9145300    -0.2106810
  C        1.1586640    -0.4340120    -0.8715550
  C       -1.0126373    -1.4618378    -0.2487530
  C       -2.2266560     0.9408910     0.1955810
  C       -0.1273370     2.2020410    -0.3962590
  C       -2.3465050    -1.4683140     0.1589870
  C       -2.9558630    -0.2342200     0.3827420
  C        2.1430500    -0.1948310     0.2522150
  H        1.3959000     0.2860400    -1.6653130
  H        1.3705120    -1.4228390    -1.2930960
  H       -0.5342380    -2.4720800    -0.4282290
  H       -2.7060670     1.9027110     0.3699220
  H        0.7120030     2.2634110     0.3019610
  H        0.2711870     2.2951320    -1.4130380
  H       -0.7808240     3.0602230    -0.2184200
  H       -2.9035660    -2.3916010     0.2984300
  H       -3.9950070    -0.1842490     0.6994320
  H        3.9774380    -0.3341110     0.6295290
units angstrom
no_reorient  #important for SAPT in psi4, default
symmetry c1  #important for SAPT in psi4, default
}

set PROPERTIES_ORIGIN ["COM"]
properties('MP2/aug-cc-pvtz', properties = ['dipole'])
--------------------------------------------------------------------------

    Molecular point group: c1
  Charge       = 0
  Multiplicity = 1
  Basis Set: AUG-CC-PVTZ
    Blend: AUG-CC-PVTZ
  Basis Set: (AUG-CC-PVTZ AUX)
    Blend: AUG-CC-PVTZ-JKFIT

    Orbital Energies [Eh]
    ---------------------

    Doubly Occupied:

       1A    -20.619068     2A    -20.555138     3A    -11.394965
       4A    -11.259063     5A    -11.244379     6A    -11.239640
       7A    -11.235797     8A    -11.234823     9A    -11.231921
      10A    -11.229946    11A    -11.222805    12A     -1.463101
      13A     -1.360570    14A     -1.165318    15A     -1.071661
      16A     -1.041612    17A     -0.984001    18A     -0.931971
      19A     -0.839620    20A     -0.810115    21A     -0.781230
      22A     -0.709201    23A     -0.689928    24A     -0.678886
      25A     -0.666225    26A     -0.629969    27A     -0.619837
      28A     -0.596868    29A     -0.576943    30A     -0.567934
      31A     -0.567012    32A     -0.547263    33A     -0.540949
      34A     -0.493928    35A     -0.488494    36A     -0.482692
      37A     -0.478717    38A     -0.458137    39A     -0.337658
      40A     -0.322692

  @DF-RHF Final Energy:  -496.56188306127035

   => Energetics <=

    Nuclear Repulsion Energy =            584.4316737830827151
    One-Electron Energy =               -1835.2469576533997042
    Two-Electron Energy =                 754.2534008090466386
    Total Energy =                       -496.5618830612703505
  Basis Set: (AUG-CC-PVTZ AUX)
    Blend: AUG-CC-PVTZ-RI
    Molecular point group: c1

    Geometry (in Angstrom), charge = 0, multiplicity = 1:

       Center              X                  Y                   Z               Mass
    ------------   -----------------  -----------------  -----------------  -----------------
         O            3.382667539332    -0.515318759616    -0.157927137525    15.994914619570
         O            1.874091539332     0.261528240384     1.342080862475    15.994914619570
         C           -0.298253460668    -0.319151759616    -0.452948137525    12.000000000000
         C           -0.908398460668     0.930481240384    -0.228708137525    12.000000000000
         C            1.137654539332    -0.418060759616    -0.889582137525    12.000000000000
         C           -1.033646760668    -1.445886559616    -0.266780137525    12.000000000000
         C           -2.247665460668     0.956842240384     0.177553862475    12.000000000000
         C           -0.148346460668     2.217992240384    -0.414286137525    12.000000000000
         C           -2.367514460668    -1.452362759616     0.140959862475    12.000000000000
         C           -2.976872460668    -0.218268759616     0.364714862475    12.000000000000
         C            2.122040539332    -0.178879759616     0.234187862475    12.000000000000
         H            1.374890539332     0.301991240384    -1.683340137525     1.007825032230
         H            1.349502539332    -1.406887759616    -1.311123137525     1.007825032230
         H           -0.555247460668    -2.456128759616    -0.446256137525     1.007825032230
         H           -2.727076460668     1.918662240384     0.351894862475     1.007825032230
         H            0.690993539332     2.279362240384     0.283933862475     1.007825032230
         H            0.250177539332     2.311083240384    -1.431065137525     1.007825032230
         H           -0.801833460668     3.076174240384    -0.236447137525     1.007825032230
         H           -2.924575460668    -2.375649759616     0.280402862475     1.007825032230
         H           -4.016016460668    -0.168297759616     0.681404862475     1.007825032230
         H            3.956428539332    -0.318159759616     0.611501862475     1.007825032230

  Basis Set: AUG-CC-PVTZ
    Blend: AUG-CC-PVTZ
  Basis Set: (AUG-CC-PVTZ AUX)
    Blend: AUG-CC-PVTZ-JKFIT
	 Reference Energy          =    -496.5618830612703505 [Eh]
	 Singles Energy            =      -0.0000000000000000 [Eh]
	 Same-Spin Energy          =      -0.5236341154576927 [Eh]
	 Opposite-Spin Energy      =      -1.6285824769548869 [Eh]
	 Correlation Energy        =      -2.1522165924125796 [Eh]
	 Total Energy              =    -498.7140996536829221 [Eh]

	 ================> DF-SCS-MP2 Energies <==================
	-----------------------------------------------------------
	 SCS Same-Spin Scale       =       0.3333333333333333 [-]
	 SCS Opposite-Spin Scale   =       1.2000000000000000 [-]
	 SCS Same-Spin Energy      =      -0.1745447051525642 [Eh]
	 SCS Opposite-Spin Energy  =      -1.9542989723458641 [Eh]
	 SCS Correlation Energy    =      -2.1288436774984283 [Eh]
	 SCS Total Energy          =    -498.6907267387687739 [Eh]
	-----------------------------------------------------------

  Dipole Moment: [D]
     X:     0.5328      Y:    -0.1038      Z:    -1.2064     Total:     1.3228

*** Psi4 exiting successfully. Buy a developer a beer!
