                               Psi4 1.4a3.dev225

  ==> Input File <==

--------------------------------------------------------------------------
#psi4
#
memory 32 gb

molecule  {
0 1
  O        3.4036770    -0.5312700    -0.1399000
  O        1.8951010     0.2455770     1.3601080
  C       -0.2772440    -0.3351030    -0.4349210
  C       -0.8873890     0.9145300    -0.2106810
  C        1.1586640    -0.4340120    -0.8715550
  C       -1.0136460    -1.5104990    -0.2499190
  C       -2.2266560     0.9408910     0.1955810
  C       -0.1273370     2.2020410    -0.3962590
  C       -2.3465050    -1.4683140     0.1589870
  C       -2.9558630    -0.2342200     0.3827420
  C        2.1430500    -0.1948310     0.2522150
  H        1.3959000     0.2860400    -1.6653130
  H        1.3705120    -1.4228390    -1.2930960
  H       -0.5342380    -2.4720800    -0.4282290
  H       -2.7060670     1.9027110     0.3699220
  H        0.7120030     2.2634110     0.3019610
  H        0.2711870     2.2951320    -1.4130380
  H       -0.7808240     3.0602230    -0.2184200
  H       -2.8523326    -2.3066854     0.2856053
  H       -3.9950070    -0.1842490     0.6994320
  H        3.9774380    -0.3341110     0.6295290
units angstrom
no_reorient  #important for SAPT in psi4, default
symmetry c1  #important for SAPT in psi4, default
}

set PROPERTIES_ORIGIN ["COM"]
properties('MP2/aug-cc-pvtz', properties = ['dipole'])
--------------------------------------------------------------------------

    Molecular point group: c1
  Charge       = 0
  Multiplicity = 1
  Basis Set: AUG-CC-PVTZ
    Blend: AUG-CC-PVTZ
  Basis Set: (AUG-CC-PVTZ AUX)
    Blend: AUG-CC-PVTZ-JKFIT

    Orbital Energies [Eh]
    ---------------------

    Doubly Occupied:

       1A    -20.618705     2A    -20.554688     3A    -11.394450
       4A    -11.258293     5A    -11.244136     6A    -11.242994
       7A    -11.235822     8A    -11.233901     9A    -11.230513
      10A    -11.222625    11A    -11.220540    12A     -1.462706
      13A     -1.360139    14A     -1.160767    15A     -1.071362
      16A     -1.042966    17A     -0.981390    18A     -0.933831
      19A     -0.840447    20A     -0.814156    21A     -0.783129
      22A     -0.709404    23A     -0.692275    24A     -0.682350
      25A     -0.666536    26A     -0.629655    27A     -0.627541
      28A     -0.596187    29A     -0.580958    30A     -0.569781
      31A     -0.567280    32A     -0.548513    33A     -0.540278
      34A     -0.491341    35A     -0.487266    36A     -0.485946
      37A     -0.481165    38A     -0.457617    39A     -0.332971
      40A     -0.323096

  @DF-RHF Final Energy:  -496.55857609979034

   => Energetics <=

    Nuclear Repulsion Energy =            584.0878440821868480
    One-Electron Energy =               -1834.5374016430878328
    Two-Electron Energy =                 753.8909814611106412
    Total Energy =                       -496.5585760997903435
  Basis Set: (AUG-CC-PVTZ AUX)
    Blend: AUG-CC-PVTZ-RI
    Molecular point group: c1

    Geometry (in Angstrom), charge = 0, multiplicity = 1:

       Center              X                  Y                   Z               Mass
    ------------   -----------------  -----------------  -----------------  -----------------
         O            3.382404126199    -0.511997904613    -0.157747771908    15.994914619570
         O            1.873828126199     0.264849095387     1.342260228092    15.994914619570
         C           -0.298516873801    -0.315830904613    -0.452768771908    12.000000000000
         C           -0.908661873801     0.933802095387    -0.228528771908    12.000000000000
         C            1.137391126199    -0.414739904613    -0.889402771908    12.000000000000
         C           -1.034918873801    -1.491226904613    -0.267766771908    12.000000000000
         C           -2.247928873801     0.960163095387     0.177733228092    12.000000000000
         C           -0.148609873801     2.221313095387    -0.414106771908    12.000000000000
         C           -2.367777873801    -1.449041904613     0.141139228092    12.000000000000
         C           -2.977135873801    -0.214947904613     0.364894228092    12.000000000000
         C            2.121777126199    -0.175558904613     0.234367228092    12.000000000000
         H            1.374627126199     0.305312095387    -1.683160771908     1.007825032230
         H            1.349239126199    -1.403566904613    -1.310943771908     1.007825032230
         H           -0.555510873801    -2.452807904613    -0.446076771908     1.007825032230
         H           -2.727339873801     1.921983095387     0.352074228092     1.007825032230
         H            0.690730126199     2.282683095387     0.284113228092     1.007825032230
         H            0.249914126199     2.314404095387    -1.430885771908     1.007825032230
         H           -0.802096873801     3.079495095387    -0.236267771908     1.007825032230
         H           -2.873605473801    -2.287413304613     0.267757528092     1.007825032230
         H           -4.016279873801    -0.164976904613     0.681584228092     1.007825032230
         H            3.956165126199    -0.314838904613     0.611681228092     1.007825032230

  Basis Set: AUG-CC-PVTZ
    Blend: AUG-CC-PVTZ
  Basis Set: (AUG-CC-PVTZ AUX)
    Blend: AUG-CC-PVTZ-JKFIT
	 Reference Energy          =    -496.5585760997903435 [Eh]
	 Singles Energy            =      -0.0000000000000000 [Eh]
	 Same-Spin Energy          =      -0.5235138825609987 [Eh]
	 Opposite-Spin Energy      =      -1.6281458418451575 [Eh]
	 Correlation Energy        =      -2.1516597244061564 [Eh]
	 Total Energy              =    -498.7102358241965021 [Eh]

	 ================> DF-SCS-MP2 Energies <==================
	-----------------------------------------------------------
	 SCS Same-Spin Scale       =       0.3333333333333333 [-]
	 SCS Opposite-Spin Scale   =       1.2000000000000000 [-]
	 SCS Same-Spin Energy      =      -0.1745046275203329 [Eh]
	 SCS Opposite-Spin Energy  =      -1.9537750102141889 [Eh]
	 SCS Correlation Energy    =      -2.1282796377345217 [Eh]
	 SCS Total Energy          =    -498.6868557375248656 [Eh]
	-----------------------------------------------------------

  Dipole Moment: [D]
     X:     0.5231      Y:    -0.1422      Z:    -1.2078     Total:     1.3238

*** Psi4 exiting successfully. Buy a developer a beer!
