                               Psi4 1.4a3.dev225

  ==> Input File <==

--------------------------------------------------------------------------
#psi4
#
memory 32 gb

molecule  {
0 1
  O        3.4036770    -0.5312700    -0.1399000
  O        1.8951010     0.2455770     1.3601080
  C       -0.2772440    -0.3351030    -0.4349210
  C       -0.8873890     0.9145300    -0.2106810
  C        1.1586640    -0.4340120    -0.8715550
  C       -1.0136460    -1.5104990    -0.2499190
  C       -2.2266560     0.9408910     0.1955810
  C       -0.1273370     2.2020410    -0.3962590
  C       -2.3465050    -1.4683140     0.1589870
  C       -2.9558630    -0.2342200     0.3827420
  C        2.1430500    -0.1948310     0.2522150
  H        1.3959000     0.2860400    -1.6653130
  H        1.3705120    -1.4228390    -1.2930960
  H       -0.5342380    -2.4720800    -0.4282290
  H       -2.7060670     1.9027110     0.3699220
  H        0.7120030     2.2634110     0.3019610
  H        0.2711870     2.2951320    -1.4130380
  H       -0.7808240     3.0602230    -0.2184200
  H       -2.8779493    -2.3491432     0.2920176
  H       -3.9950070    -0.1842490     0.6994320
  H        3.9774380    -0.3341110     0.6295290
units angstrom
no_reorient  #important for SAPT in psi4, default
symmetry c1  #important for SAPT in psi4, default
}

set PROPERTIES_ORIGIN ["COM"]
properties('MP2/aug-cc-pvtz', properties = ['dipole'])
--------------------------------------------------------------------------

    Molecular point group: c1
  Charge       = 0
  Multiplicity = 1
  Basis Set: AUG-CC-PVTZ
    Blend: AUG-CC-PVTZ
  Basis Set: (AUG-CC-PVTZ AUX)
    Blend: AUG-CC-PVTZ-JKFIT

    Orbital Energies [Eh]
    ---------------------

    Doubly Occupied:

       1A    -20.618783     2A    -20.554774     3A    -11.394549
       4A    -11.258454     5A    -11.244336     6A    -11.243189
       7A    -11.236190     8A    -11.234273     9A    -11.230805
      10A    -11.226598    11A    -11.222723    12A     -1.462787
      13A     -1.360221    14A     -1.160735    15A     -1.070925
      16A     -1.042212    17A     -0.981606    18A     -0.931901
      19A     -0.840607    20A     -0.812944    21A     -0.780452
      22A     -0.709054    23A     -0.690345    24A     -0.680677
      25A     -0.666673    26A     -0.627982    27A     -0.627407
      28A     -0.596272    29A     -0.579186    30A     -0.568780
      31A     -0.566815    32A     -0.548660    33A     -0.540413
      34A     -0.491334    35A     -0.486705    36A     -0.485461
      37A     -0.481295    38A     -0.457712    39A     -0.333219
      40A     -0.323235

  @DF-RHF Final Energy:  -496.56364396499168

   => Energetics <=

    Nuclear Repulsion Energy =            583.8010485433301255
    One-Electron Energy =               -1833.9888107053670865
    Two-Electron Energy =                 753.6241181970452772
    Total Energy =                       -496.5636439649916838
  Basis Set: (AUG-CC-PVTZ AUX)
    Blend: AUG-CC-PVTZ-RI
    Molecular point group: c1

    Geometry (in Angstrom), charge = 0, multiplicity = 1:

       Center              X                  Y                   Z               Mass
    ------------   -----------------  -----------------  -----------------  -----------------
         O            3.382576162462    -0.511712767136    -0.157790835539    15.994914619570
         O            1.874000162462     0.265134232864     1.342217164461    15.994914619570
         C           -0.298344837538    -0.315545767136    -0.452811835539    12.000000000000
         C           -0.908489837538     0.934087232864    -0.228571835539    12.000000000000
         C            1.137563162462    -0.414454767136    -0.889445835539    12.000000000000
         C           -1.034746837538    -1.490941767136    -0.267809835539    12.000000000000
         C           -2.247756837538     0.960448232864     0.177690164461    12.000000000000
         C           -0.148437837538     2.221598232864    -0.414149835539    12.000000000000
         C           -2.367605837538    -1.448756767136     0.141096164461    12.000000000000
         C           -2.976963837538    -0.214662767136     0.364851164461    12.000000000000
         C            2.121949162462    -0.175273767136     0.234324164461    12.000000000000
         H            1.374799162462     0.305597232864    -1.683203835539     1.007825032230
         H            1.349411162462    -1.403281767136    -1.310986835539     1.007825032230
         H           -0.555338837538    -2.452522767136    -0.446119835539     1.007825032230
         H           -2.727167837538     1.922268232864     0.352031164461     1.007825032230
         H            0.690902162462     2.282968232864     0.284070164461     1.007825032230
         H            0.250086162462     2.314689232864    -1.430928835539     1.007825032230
         H           -0.801924837538     3.079780232864    -0.236310835539     1.007825032230
         H           -2.899050137538    -2.329585967136     0.274126764461     1.007825032230
         H           -4.016107837538    -0.164691767136     0.681541164461     1.007825032230
         H            3.956337162462    -0.314553767136     0.611638164461     1.007825032230

  Basis Set: AUG-CC-PVTZ
    Blend: AUG-CC-PVTZ
  Basis Set: (AUG-CC-PVTZ AUX)
    Blend: AUG-CC-PVTZ-JKFIT
	 Reference Energy          =    -496.5636439649916838 [Eh]
	 Singles Energy            =      -0.0000000000000000 [Eh]
	 Same-Spin Energy          =      -0.5235680145144799 [Eh]
	 Opposite-Spin Energy      =      -1.6283419472778495 [Eh]
	 Correlation Energy        =      -2.1519099617923292 [Eh]
	 Total Energy              =    -498.7155539267840254 [Eh]

	 ================> DF-SCS-MP2 Energies <==================
	-----------------------------------------------------------
	 SCS Same-Spin Scale       =       0.3333333333333333 [-]
	 SCS Opposite-Spin Scale   =       1.2000000000000000 [-]
	 SCS Same-Spin Energy      =      -0.1745226715048266 [Eh]
	 SCS Opposite-Spin Energy  =      -1.9540103367334194 [Eh]
	 SCS Correlation Energy    =      -2.1285330082382461 [Eh]
	 SCS Total Energy          =    -498.6921769732299481 [Eh]
	-----------------------------------------------------------

  Dipole Moment: [D]
     X:     0.5322      Y:    -0.1306      Z:    -1.2093     Total:     1.3277

*** Psi4 exiting successfully. Buy a developer a beer!
