                               Psi4 1.4a3.dev225

  ==> Input File <==

--------------------------------------------------------------------------
#psi4
#
memory 32 gb

molecule  {
0 1
  O        3.4036770    -0.5312700    -0.1399000
  O        1.8951010     0.2455770     1.3601080
  C       -0.2772440    -0.3351030    -0.4349210
  C       -0.8873890     0.9145300    -0.2106810
  C        1.1586640    -0.4340120    -0.8715550
  C       -1.0136460    -1.5104990    -0.2499190
  C       -2.2266560     0.9408910     0.1955810
  C       -0.1273370     2.2020410    -0.3962590
  C       -2.3465050    -1.4683140     0.1589870
  C       -2.9558630    -0.2342200     0.3827420
  C        2.1430500    -0.1948310     0.2522150
  H        1.3959000     0.2860400    -1.6653130
  H        1.3705120    -1.4228390    -1.2930960
  H       -0.5342380    -2.4720800    -0.4282290
  H       -2.7060670     1.9027110     0.3699220
  H        0.7120030     2.2634110     0.3019610
  H        0.2711870     2.2951320    -1.4130380
  H       -0.7509361     3.0209731    -0.2265537
  H       -2.9035660    -2.3916010     0.2984300
  H       -3.9950070    -0.1842490     0.6994320
  H        3.9774380    -0.3341110     0.6295290
units angstrom
no_reorient  #important for SAPT in psi4, default
symmetry c1  #important for SAPT in psi4, default
}

set PROPERTIES_ORIGIN ["COM"]
properties('MP2/aug-cc-pvtz', properties = ['dipole'])
--------------------------------------------------------------------------

    Molecular point group: c1
  Charge       = 0
  Multiplicity = 1
  Basis Set: AUG-CC-PVTZ
    Blend: AUG-CC-PVTZ
  Basis Set: (AUG-CC-PVTZ AUX)
    Blend: AUG-CC-PVTZ-JKFIT

    Orbital Energies [Eh]
    ---------------------

    Doubly Occupied:

       1A    -20.618698     2A    -20.554655     3A    -11.394451
       4A    -11.258370     5A    -11.244227     6A    -11.243042
       7A    -11.236497     8A    -11.234752     9A    -11.232280
      10A    -11.231076    11A    -11.216739    12A     -1.462690
      13A     -1.360114    14A     -1.160709    15A     -1.070474
      16A     -1.042914    17A     -0.981918    18A     -0.933423
      19A     -0.840621    20A     -0.813054    21A     -0.778200
      22A     -0.708660    23A     -0.688983    24A     -0.678505
      25A     -0.667618    26A     -0.628281    27A     -0.626038
      28A     -0.596101    29A     -0.577839    30A     -0.568048
      31A     -0.564709    32A     -0.550210    33A     -0.547285
      34A     -0.491272    35A     -0.487222    36A     -0.483659
      37A     -0.481342    38A     -0.457622    39A     -0.333407
      40A     -0.323210

  @DF-RHF Final Energy:  -496.56352561619184

   => Energetics <=

    Nuclear Repulsion Energy =            583.7800884814226947
    One-Electron Energy =               -1833.9494007819096169
    Two-Electron Energy =                 753.6057866842952535
    Total Energy =                       -496.5635256161917823
  Basis Set: (AUG-CC-PVTZ AUX)
    Blend: AUG-CC-PVTZ-RI
    Molecular point group: c1

    Geometry (in Angstrom), charge = 0, multiplicity = 1:

       Center              X                  Y                   Z               Mass
    ------------   -----------------  -----------------  -----------------  -----------------
         O            3.382547477999    -0.511164035749    -0.157779275658    15.994914619570
         O            1.873971477999     0.265682964251     1.342228724342    15.994914619570
         C           -0.298373522001    -0.314997035749    -0.452800275658    12.000000000000
         C           -0.908518522001     0.934635964251    -0.228560275658    12.000000000000
         C            1.137534477999    -0.413906035749    -0.889434275658    12.000000000000
         C           -1.034775522001    -1.490393035749    -0.267798275658    12.000000000000
         C           -2.247785522001     0.960996964251     0.177701724342    12.000000000000
         C           -0.148466522001     2.222146964251    -0.414138275658    12.000000000000
         C           -2.367634522001    -1.448208035749     0.141107724342    12.000000000000
         C           -2.976992522001    -0.214114035749     0.364862724342    12.000000000000
         C            2.121920477999    -0.174725035749     0.234335724342    12.000000000000
         H            1.374770477999     0.306145964251    -1.683192275658     1.007825032230
         H            1.349382477999    -1.402733035749    -1.310975275658     1.007825032230
         H           -0.555367522001    -2.451974035749    -0.446108275658     1.007825032230
         H           -2.727196522001     1.922816964251     0.352042724342     1.007825032230
         H            0.690873477999     2.283516964251     0.284081724342     1.007825032230
         H            0.250057477999     2.315237964251    -1.430917275658     1.007825032230
         H           -0.772065622001     3.041079064251    -0.244432975658     1.007825032230
         H           -2.924695522001    -2.371495035749     0.280550724342     1.007825032230
         H           -4.016136522001    -0.164143035749     0.681552724342     1.007825032230
         H            3.956308477999    -0.314005035749     0.611649724342     1.007825032230

  Basis Set: AUG-CC-PVTZ
    Blend: AUG-CC-PVTZ
  Basis Set: (AUG-CC-PVTZ AUX)
    Blend: AUG-CC-PVTZ-JKFIT
	 Reference Energy          =    -496.5635256161918392 [Eh]
	 Singles Energy            =      -0.0000000000000000 [Eh]
	 Same-Spin Energy          =      -0.5236230902098854 [Eh]
	 Opposite-Spin Energy      =      -1.6283108648179854 [Eh]
	 Correlation Energy        =      -2.1519339550278707 [Eh]
	 Total Energy              =    -498.7154595712196965 [Eh]

	 ================> DF-SCS-MP2 Energies <==================
	-----------------------------------------------------------
	 SCS Same-Spin Scale       =       0.3333333333333333 [-]
	 SCS Opposite-Spin Scale   =       1.2000000000000000 [-]
	 SCS Same-Spin Energy      =      -0.1745410300699618 [Eh]
	 SCS Opposite-Spin Energy  =      -1.9539730377815823 [Eh]
	 SCS Correlation Energy    =      -2.1285140678515440 [Eh]
	 SCS Total Energy          =    -498.6920396840433796 [Eh]
	-----------------------------------------------------------

  Dipole Moment: [D]
     X:     0.5359      Y:    -0.0868      Z:    -1.2109     Total:     1.3270

*** Psi4 exiting successfully. Buy a developer a beer!
