                               Psi4 1.4a3.dev225

  ==> Input File <==

--------------------------------------------------------------------------
#psi4
#
memory 32 gb

molecule  {
0 1
  O        3.4036770    -0.5312700    -0.1399000
  O        1.8951010     0.2455770     1.3601080
  C       -0.2772440    -0.3351030    -0.4349210
  C       -0.8873890     0.9145300    -0.2106810
  C        1.1586640    -0.4340120    -0.8715550
  C       -1.0136460    -1.5104990    -0.2499190
  C       -2.2266560     0.9408910     0.1955810
  C       -0.1273370     2.2020410    -0.3962590
  C       -2.3465050    -1.4683140     0.1589870
  C       -2.9558630    -0.2342200     0.3827420
  C        2.1430500    -0.1948310     0.2522150
  H        1.3959000     0.2860400    -1.6653130
  H        1.3705120    -1.4228390    -1.2930960
  H       -0.5342380    -2.4720800    -0.4282290
  H       -2.7060670     1.9027110     0.3699220
  H        0.7120030     2.2634110     0.3019610
  H        0.2711870     2.2951320    -1.4130380
  H       -0.7808240     3.0602230    -0.2184200
  H       -2.9035660    -2.3916010     0.2984300
  H       -3.9950070    -0.1842490     0.6994320
  H        3.9891493    -0.3300867     0.6452341
units angstrom
no_reorient  #important for SAPT in psi4, default
symmetry c1  #important for SAPT in psi4, default
}

set PROPERTIES_ORIGIN ["COM"]
properties('MP2/aug-cc-pvtz', properties = ['dipole'])
--------------------------------------------------------------------------

    Molecular point group: c1
  Charge       = 0
  Multiplicity = 1
  Basis Set: AUG-CC-PVTZ
    Blend: AUG-CC-PVTZ
  Basis Set: (AUG-CC-PVTZ AUX)
    Blend: AUG-CC-PVTZ-JKFIT

    Orbital Energies [Eh]
    ---------------------

    Doubly Occupied:

       1A    -20.620086     2A    -20.554494     3A    -11.394293
       4A    -11.258554     5A    -11.244518     6A    -11.243343
       7A    -11.236599     8A    -11.234742     9A    -11.232356
      10A    -11.231058    11A    -11.222769    12A     -1.460105
      13A     -1.358376    14A     -1.160714    15A     -1.070373
      16A     -1.041530    17A     -0.981318    18A     -0.930133
      19A     -0.838670    20A     -0.811646    21A     -0.777088
      22A     -0.706975    23A     -0.688727    24A     -0.678135
      25A     -0.666563    26A     -0.627496    27A     -0.625585
      28A     -0.595254    29A     -0.577587    30A     -0.568077
      31A     -0.564666    32A     -0.548500    33A     -0.540480
      34A     -0.491204    35A     -0.486712    36A     -0.483895
      37A     -0.481064    38A     -0.457487    39A     -0.333430
      40A     -0.323358

  @DF-RHF Final Energy:  -496.56283420145803

   => Energetics <=

    Nuclear Repulsion Energy =            583.4100192324551699
    One-Electron Energy =               -1833.2497851898822319
    Two-Electron Energy =                 753.2769317559690307
    Total Energy =                       -496.5628342014580312
  Basis Set: (AUG-CC-PVTZ AUX)
    Blend: AUG-CC-PVTZ-RI
    Molecular point group: c1

    Geometry (in Angstrom), charge = 0, multiplicity = 1:

       Center              X                  Y                   Z               Mass
    ------------   -----------------  -----------------  -----------------  -----------------
         O            3.382669548145    -0.511454655994    -0.157939371925    15.994914619570
         O            1.874093548145     0.265392344006     1.342068628075    15.994914619570
         C           -0.298251451855    -0.315287655994    -0.452960371925    12.000000000000
         C           -0.908396451855     0.934345344006    -0.228720371925    12.000000000000
         C            1.137656548145    -0.414196655994    -0.889594371925    12.000000000000
         C           -1.034653451855    -1.490683655994    -0.267958371925    12.000000000000
         C           -2.247663451855     0.960706344006     0.177541628075    12.000000000000
         C           -0.148344451855     2.221856344006    -0.414298371925    12.000000000000
         C           -2.367512451855    -1.448498655994     0.140947628075    12.000000000000
         C           -2.976870451855    -0.214404655994     0.364702628075    12.000000000000
         C            2.122042548145    -0.175015655994     0.234175628075    12.000000000000
         H            1.374892548145     0.305855344006    -1.683352371925     1.007825032230
         H            1.349504548145    -1.403023655994    -1.311135371925     1.007825032230
         H           -0.555245451855    -2.452264655994    -0.446268371925     1.007825032230
         H           -2.727074451855     1.922526344006     0.351882628075     1.007825032230
         H            0.690995548145     2.283226344006     0.283921628075     1.007825032230
         H            0.250179548145     2.314947344006    -1.431077371925     1.007825032230
         H           -0.801831451855     3.080038344006    -0.236459371925     1.007825032230
         H           -2.924573451855    -2.371785655994     0.280390628075     1.007825032230
         H           -4.016014451855    -0.164433655994     0.681392628075     1.007825032230
         H            3.968141848145    -0.310271355994     0.627194728075     1.007825032230

  Basis Set: AUG-CC-PVTZ
    Blend: AUG-CC-PVTZ
  Basis Set: (AUG-CC-PVTZ AUX)
    Blend: AUG-CC-PVTZ-JKFIT
	 Reference Energy          =    -496.5628342014580312 [Eh]
	 Singles Energy            =      -0.0000000000000000 [Eh]
	 Same-Spin Energy          =      -0.5239034290995219 [Eh]
	 Opposite-Spin Energy      =      -1.6292637366351919 [Eh]
	 Correlation Energy        =      -2.1531671657347138 [Eh]
	 Total Energy              =    -498.7160013671927459 [Eh]

	 ================> DF-SCS-MP2 Energies <==================
	-----------------------------------------------------------
	 SCS Same-Spin Scale       =       0.3333333333333333 [-]
	 SCS Opposite-Spin Scale   =       1.2000000000000000 [-]
	 SCS Same-Spin Energy      =      -0.1746344763665073 [Eh]
	 SCS Opposite-Spin Energy  =      -1.9551164839622301 [Eh]
	 SCS Correlation Energy    =      -2.1297509603287375 [Eh]
	 SCS Total Energy          =    -498.6925851617867806 [Eh]
	-----------------------------------------------------------

  Dipole Moment: [D]
     X:     0.5638      Y:    -0.1128      Z:    -1.1966     Total:     1.3276

*** Psi4 exiting successfully. Buy a developer a beer!
