                               Psi4 1.4a3.dev225

  ==> Input File <==

--------------------------------------------------------------------------
#psi4
#
memory 32 gb

molecule  {
0 1
  O        3.4036770    -0.5312700    -0.1399000
  O        1.8951010     0.2455770     1.3601080
  C       -0.2772440    -0.3351030    -0.4349210
  C       -0.8873890     0.9145300    -0.2106810
  C        1.1586640    -0.4340120    -0.8715550
  C       -1.0136460    -1.5104990    -0.2499190
  C       -2.2266560     0.9408910     0.1955810
  C       -0.1273370     2.2020410    -0.3962590
  C       -2.3465050    -1.4683140     0.1589870
  C       -2.9558630    -0.2342200     0.3827420
  C        2.1430500    -0.1948310     0.2522150
  H        1.3959000     0.2860400    -1.6653130
  H        1.3705120    -1.4228390    -1.2930960
  H       -0.5342380    -2.4720800    -0.4282290
  H       -2.7060670     1.9027110     0.3699220
  H        0.7120030     2.2634110     0.3019610
  H        0.2711870     2.2951320    -1.4130380
  H       -0.7808240     3.0602230    -0.2184200
  H       -2.9138127    -2.4085841     0.3009949
  H       -3.9950070    -0.1842490     0.6994320
  H        3.9774380    -0.3341110     0.6295290
units angstrom
no_reorient  #important for SAPT in psi4, default
symmetry c1  #important for SAPT in psi4, default
}

set PROPERTIES_ORIGIN ["COM"]
properties('MP2/aug-cc-pvtz', properties = ['dipole'])
--------------------------------------------------------------------------

    Molecular point group: c1
  Charge       = 0
  Multiplicity = 1
  Basis Set: AUG-CC-PVTZ
    Blend: AUG-CC-PVTZ
  Basis Set: (AUG-CC-PVTZ AUX)
    Blend: AUG-CC-PVTZ-JKFIT

    Orbital Energies [Eh]
    ---------------------

    Doubly Occupied:

       1A    -20.618918     2A    -20.554926     3A    -11.394720
       4A    -11.258724     5A    -11.244709     6A    -11.243518
       7A    -11.236975     8A    -11.235400     9A    -11.234254
      10A    -11.231276    11A    -11.222909    12A     -1.462929
      13A     -1.360367    14A     -1.160858    15A     -1.070611
      16A     -1.041458    17A     -0.981979    18A     -0.929814
      19A     -0.840885    20A     -0.811921    21A     -0.777289
      22A     -0.708807    23A     -0.688906    24A     -0.677622
      25A     -0.666907    26A     -0.627983    27A     -0.625078
      28A     -0.596431    29A     -0.577506    30A     -0.568349
      31A     -0.563614    32A     -0.548914    33A     -0.540662
      34A     -0.491514    35A     -0.486947    36A     -0.483248
      37A     -0.481500    38A     -0.457876    39A     -0.333634
      40A     -0.323535

  @DF-RHF Final Energy:  -496.56378123381756

   => Energetics <=

    Nuclear Repulsion Energy =            583.4281143013395194
    One-Electron Energy =               -1833.2568450190926796
    Two-Electron Energy =                 753.2649494839355384
    Total Energy =                       -496.5637812338176218
  Basis Set: (AUG-CC-PVTZ AUX)
    Blend: AUG-CC-PVTZ-RI
    Molecular point group: c1

    Geometry (in Angstrom), charge = 0, multiplicity = 1:

       Center              X                  Y                   Z               Mass
    ------------   -----------------  -----------------  -----------------  -----------------
         O            3.382817013363    -0.511313574802    -0.157851125160    15.994914619570
         O            1.874241013363     0.265533425198     1.342156874840    15.994914619570
         C           -0.298103986637    -0.315146574802    -0.452872125160    12.000000000000
         C           -0.908248986637     0.934486425198    -0.228632125160    12.000000000000
         C            1.137804013363    -0.414055574802    -0.889506125160    12.000000000000
         C           -1.034505986637    -1.490542574802    -0.267870125160    12.000000000000
         C           -2.247515986637     0.960847425198     0.177629874840    12.000000000000
         C           -0.148196986637     2.221997425198    -0.414210125160    12.000000000000
         C           -2.367364986637    -1.448357574802     0.141035874840    12.000000000000
         C           -2.976722986637    -0.214263574802     0.364790874840    12.000000000000
         C            2.122190013363    -0.174874574802     0.234263874840    12.000000000000
         H            1.375040013363     0.305996425198    -1.683264125160     1.007825032230
         H            1.349652013363    -1.402882574802    -1.311047125160     1.007825032230
         H           -0.555097986637    -2.452123574802    -0.446180125160     1.007825032230
         H           -2.726926986637     1.922667425198     0.351970874840     1.007825032230
         H            0.691143013363     2.283367425198     0.284009874840     1.007825032230
         H            0.250327013363     2.315088425198    -1.430989125160     1.007825032230
         H           -0.801683986637     3.080179425198    -0.236371125160     1.007825032230
         H           -2.934672686637    -2.388627674802     0.283043774840     1.007825032230
         H           -4.015866986637    -0.164292574802     0.681480874840     1.007825032230
         H            3.956578013363    -0.314154574802     0.611577874840     1.007825032230

  Basis Set: AUG-CC-PVTZ
    Blend: AUG-CC-PVTZ
  Basis Set: (AUG-CC-PVTZ AUX)
    Blend: AUG-CC-PVTZ-JKFIT
	 Reference Energy          =    -496.5637812338175650 [Eh]
	 Singles Energy            =      -0.0000000000000000 [Eh]
	 Same-Spin Energy          =      -0.5236814070773681 [Eh]
	 Opposite-Spin Energy      =      -1.6288170934949606 [Eh]
	 Correlation Energy        =      -2.1524985005723289 [Eh]
	 Total Energy              =    -498.7162797343899001 [Eh]

	 ================> DF-SCS-MP2 Energies <==================
	-----------------------------------------------------------
	 SCS Same-Spin Scale       =       0.3333333333333333 [-]
	 SCS Opposite-Spin Scale   =       1.2000000000000000 [-]
	 SCS Same-Spin Energy      =      -0.1745604690257894 [Eh]
	 SCS Opposite-Spin Energy  =      -1.9545805121939526 [Eh]
	 SCS Correlation Energy    =      -2.1291409812197419 [Eh]
	 SCS Total Energy          =    -498.6929222150372993 [Eh]
	-----------------------------------------------------------

  Dipole Moment: [D]
     X:     0.5496      Y:    -0.1079      Z:    -1.2125     Total:     1.3357

*** Psi4 exiting successfully. Buy a developer a beer!
