                               Psi4 1.4a3.dev225

  ==> Input File <==

--------------------------------------------------------------------------
#psi4
#
memory 32 gb

molecule  {
0 1
  O        3.4036770    -0.5312700    -0.1399000
  O        1.8951010     0.2455770     1.3601080
  C       -0.2772440    -0.3351030    -0.4349210
  C       -0.8873890     0.9145300    -0.2106810
  C        1.1586640    -0.4340120    -0.8715550
  C       -1.0136460    -1.5104990    -0.2499190
  C       -2.2266560     0.9408910     0.1955810
  C       -0.1273370     2.2020410    -0.3962590
  C       -2.3465050    -1.4683140     0.1589870
  C       -2.9558630    -0.2342200     0.3827420
  C        2.1430500    -0.1948310     0.2522150
  H        1.3915773     0.2729200    -1.6508500
  H        1.3705120    -1.4228390    -1.2930960
  H       -0.5342380    -2.4720800    -0.4282290
  H       -2.7060670     1.9027110     0.3699220
  H        0.7120030     2.2634110     0.3019610
  H        0.2711870     2.2951320    -1.4130380
  H       -0.7808240     3.0602230    -0.2184200
  H       -2.9035660    -2.3916010     0.2984300
  H       -3.9950070    -0.1842490     0.6994320
  H        3.9774380    -0.3341110     0.6295290
units angstrom
no_reorient  #important for SAPT in psi4, default
symmetry c1  #important for SAPT in psi4, default
}

set PROPERTIES_ORIGIN ["COM"]
properties('MP2/aug-cc-pvtz', properties = ['dipole'])
--------------------------------------------------------------------------

    Molecular point group: c1
  Charge       = 0
  Multiplicity = 1
  Basis Set: AUG-CC-PVTZ
    Blend: AUG-CC-PVTZ
  Basis Set: (AUG-CC-PVTZ AUX)
    Blend: AUG-CC-PVTZ-JKFIT

    Orbital Energies [Eh]
    ---------------------

    Doubly Occupied:

       1A    -20.618941     2A    -20.554846     3A    -11.394574
       4A    -11.256403     5A    -11.244496     6A    -11.243339
       7A    -11.236568     8A    -11.234750     9A    -11.232364
      10A    -11.231091    11A    -11.222889    12A     -1.462916
      13A     -1.360318    14A     -1.160853    15A     -1.071430
      16A     -1.041663    17A     -0.982387    18A     -0.930393
      19A     -0.840935    20A     -0.812130    21A     -0.778815
      22A     -0.708898    23A     -0.689408    24A     -0.679475
      25A     -0.667453    26A     -0.627939    27A     -0.625790
      28A     -0.596614    29A     -0.578152    30A     -0.568409
      31A     -0.564797    32A     -0.550443    33A     -0.540575
      34A     -0.491453    35A     -0.486777    36A     -0.484200
      37A     -0.481467    38A     -0.457826    39A     -0.333474
      40A     -0.323412

  @DF-RHF Final Energy:  -496.56453913883729

   => Energetics <=

    Nuclear Repulsion Energy =            583.6347339643036776
    One-Electron Energy =               -1833.6612253495964069
    Two-Electron Energy =                 753.4619522464554393
    Total Energy =                       -496.5645391388372900
  Basis Set: (AUG-CC-PVTZ AUX)
    Blend: AUG-CC-PVTZ-RI
    Molecular point group: c1

    Geometry (in Angstrom), charge = 0, multiplicity = 1:

       Center              X                  Y                   Z               Mass
    ------------   -----------------  -----------------  -----------------  -----------------
         O            3.382777229050    -0.511339518553    -0.157931030248    15.994914619570
         O            1.874201229050     0.265507481447     1.342076969752    15.994914619570
         C           -0.298143770950    -0.315172518553    -0.452952030248    12.000000000000
         C           -0.908288770950     0.934460481447    -0.228712030248    12.000000000000
         C            1.137764229050    -0.414081518553    -0.889586030248    12.000000000000
         C           -1.034545770950    -1.490568518553    -0.267950030248    12.000000000000
         C           -2.247555770950     0.960821481447     0.177549969752    12.000000000000
         C           -0.148236770950     2.221971481447    -0.414290030248    12.000000000000
         C           -2.367404770950    -1.448383518553     0.140955969752    12.000000000000
         C           -2.976762770950    -0.214289518553     0.364710969752    12.000000000000
         C            2.122150229050    -0.174900518553     0.234183969752    12.000000000000
         H            1.370677529050     0.292850481447    -1.668881030248     1.007825032230
         H            1.349612229050    -1.402908518553    -1.311127030248     1.007825032230
         H           -0.555137770950    -2.452149518553    -0.446260030248     1.007825032230
         H           -2.726966770950     1.922641481447     0.351890969752     1.007825032230
         H            0.691103229050     2.283341481447     0.283929969752     1.007825032230
         H            0.250287229050     2.315062481447    -1.431069030248     1.007825032230
         H           -0.801723770950     3.080153481447    -0.236451030248     1.007825032230
         H           -2.924465770950    -2.371670518553     0.280398969752     1.007825032230
         H           -4.015906770950    -0.164318518553     0.681400969752     1.007825032230
         H            3.956538229050    -0.314180518553     0.611497969752     1.007825032230

  Basis Set: AUG-CC-PVTZ
    Blend: AUG-CC-PVTZ
  Basis Set: (AUG-CC-PVTZ AUX)
    Blend: AUG-CC-PVTZ-JKFIT
	 Reference Energy          =    -496.5645391388372900 [Eh]
	 Singles Energy            =      -0.0000000000000000 [Eh]
	 Same-Spin Energy          =      -0.5236079646541717 [Eh]
	 Opposite-Spin Energy      =      -1.6285117012737447 [Eh]
	 Correlation Energy        =      -2.1521196659279163 [Eh]
	 Total Energy              =    -498.7166588047651885 [Eh]

	 ================> DF-SCS-MP2 Energies <==================
	-----------------------------------------------------------
	 SCS Same-Spin Scale       =       0.3333333333333333 [-]
	 SCS Opposite-Spin Scale   =       1.2000000000000000 [-]
	 SCS Same-Spin Energy      =      -0.1745359882180572 [Eh]
	 SCS Opposite-Spin Energy  =      -1.9542140415284934 [Eh]
	 SCS Correlation Energy    =      -2.1287500297465507 [Eh]
	 SCS Total Energy          =    -498.6932891685838172 [Eh]
	-----------------------------------------------------------

  Dipole Moment: [D]
     X:     0.5496      Y:    -0.1146      Z:    -1.2138     Total:     1.3374

*** Psi4 exiting successfully. Buy a developer a beer!
