                               Psi4 1.4a3.dev225

  ==> Input File <==

--------------------------------------------------------------------------
#psi4
#
memory 32 gb

molecule  {
0 1
  O        3.4036770    -0.5312700    -0.1399000
  O        1.8951010     0.2455770     1.3601080
  C       -0.2772440    -0.3351030    -0.4349210
  C       -0.8873890     0.9145300    -0.2106810
  C        1.1586640    -0.4340120    -0.8715550
  C       -1.0136460    -1.5104990    -0.2499190
  C       -2.2266560     0.9408910     0.1955810
  C       -0.1273370     2.2020410    -0.3962590
  C       -2.3465050    -1.4683140     0.1589870
  C       -2.9558630    -0.2342200     0.3827420
  C        2.1430500    -0.1948310     0.2522150
  H        1.3959000     0.2860400    -1.6653130
  H        1.3705120    -1.4228390    -1.2930960
  H       -0.5342380    -2.4720800    -0.4282290
  H       -2.7060670     1.9027110     0.3699220
  H        0.7120030     2.2634110     0.3019610
  H        0.2711870     2.2951320    -1.4130380
  H       -0.7808240     3.0602230    -0.2184200
  H       -2.9035660    -2.3916010     0.2984300
  H       -3.9950070    -0.1842490     0.6994320
  H        4.0359944    -0.3139895     0.7080547
units angstrom
no_reorient  #important for SAPT in psi4, default
symmetry c1  #important for SAPT in psi4, default
}

set PROPERTIES_ORIGIN ["COM"]
properties('MP2/aug-cc-pvtz', properties = ['dipole'])
--------------------------------------------------------------------------

    Molecular point group: c1
  Charge       = 0
  Multiplicity = 1
  Basis Set: AUG-CC-PVTZ
    Blend: AUG-CC-PVTZ
  Basis Set: (AUG-CC-PVTZ AUX)
    Blend: AUG-CC-PVTZ-JKFIT

    Orbital Energies [Eh]
    ---------------------

    Doubly Occupied:

       1A    -20.624086     2A    -20.553017     3A    -11.392833
       4A    -11.258248     5A    -11.244244     6A    -11.243065
       7A    -11.236313     8A    -11.234486     9A    -11.232099
      10A    -11.230798    11A    -11.222457    12A     -1.450965
      13A     -1.351046    14A     -1.160373    15A     -1.069319
      16A     -1.041125    17A     -0.979444    18A     -0.929392
      19A     -0.832086    20A     -0.809509    21A     -0.772823
      22A     -0.699662    23A     -0.686787    24A     -0.676137
      25A     -0.665499    26A     -0.625952    27A     -0.624758
      28A     -0.590772    29A     -0.576246    30A     -0.566777
      31A     -0.563666    32A     -0.547199    33A     -0.540058
      34A     -0.490321    35A     -0.486240    36A     -0.483544
      37A     -0.479517    38A     -0.456156    39A     -0.333134
      40A     -0.323055

  @DF-RHF Final Energy:  -496.55125224077528

   => Energetics <=

    Nuclear Repulsion Energy =            582.9567851747721079
    One-Electron Energy =               -1832.4496598289640588
    Two-Electron Energy =                 752.9416224134165532
    Total Energy =                       -496.5512522407752840
  Basis Set: (AUG-CC-PVTZ AUX)
    Blend: AUG-CC-PVTZ-RI
    Molecular point group: c1

    Geometry (in Angstrom), charge = 0, multiplicity = 1:

       Center              X                  Y                   Z               Mass
    ------------   -----------------  -----------------  -----------------  -----------------
         O            3.382354946502    -0.511562761336    -0.158361261599    15.994914619570
         O            1.873778946502     0.265284238664     1.341646738401    15.994914619570
         C           -0.298566053498    -0.315395761336    -0.453382261599    12.000000000000
         C           -0.908711053498     0.934237238664    -0.229142261599    12.000000000000
         C            1.137341946502    -0.414304761336    -0.890016261599    12.000000000000
         C           -1.034968053498    -1.490791761336    -0.268380261599    12.000000000000
         C           -2.247978053498     0.960598238664     0.177119738401    12.000000000000
         C           -0.148659053498     2.221748238664    -0.414720261599    12.000000000000
         C           -2.367827053498    -1.448606761336     0.140525738401    12.000000000000
         C           -2.977185053498    -0.214512761336     0.364280738401    12.000000000000
         C            2.121727946502    -0.175123761336     0.233753738401    12.000000000000
         H            1.374577946502     0.305747238664    -1.683774261599     1.007825032230
         H            1.349189946502    -1.403131761336    -1.311557261599     1.007825032230
         H           -0.555560053498    -2.452372761336    -0.446690261599     1.007825032230
         H           -2.727389053498     1.922418238664     0.351460738401     1.007825032230
         H            0.690680946502     2.283118238664     0.283499738401     1.007825032230
         H            0.249864946502     2.314839238664    -1.431499261599     1.007825032230
         H           -0.802146053498     3.079930238664    -0.236881261599     1.007825032230
         H           -2.924888053498    -2.371893761336     0.279968738401     1.007825032230
         H           -4.016329053498    -0.164541761336     0.680970738401     1.007825032230
         H            4.014672346502    -0.294282261336     0.689593438401     1.007825032230

  Basis Set: AUG-CC-PVTZ
    Blend: AUG-CC-PVTZ
  Basis Set: (AUG-CC-PVTZ AUX)
    Blend: AUG-CC-PVTZ-JKFIT
	 Reference Energy          =    -496.5512522407752840 [Eh]
	 Singles Energy            =      -0.0000000000000000 [Eh]
	 Same-Spin Energy          =      -0.5249313470417442 [Eh]
	 Opposite-Spin Energy      =      -1.6317973280110678 [Eh]
	 Correlation Energy        =      -2.1567286750528121 [Eh]
	 Total Energy              =    -498.7079809158281023 [Eh]

	 ================> DF-SCS-MP2 Energies <==================
	-----------------------------------------------------------
	 SCS Same-Spin Scale       =       0.3333333333333333 [-]
	 SCS Opposite-Spin Scale   =       1.2000000000000000 [-]
	 SCS Same-Spin Energy      =      -0.1749771156805814 [Eh]
	 SCS Opposite-Spin Energy  =      -1.9581567936132813 [Eh]
	 SCS Correlation Energy    =      -2.1331339092938628 [Eh]
	 SCS Total Energy          =    -498.6843861500691446 [Eh]
	-----------------------------------------------------------

  Dipole Moment: [D]
     X:     0.6367      Y:    -0.1020      Z:    -1.1360     Total:     1.3063

*** Psi4 exiting successfully. Buy a developer a beer!
