                               Psi4 1.4a3.dev225

  ==> Input File <==

--------------------------------------------------------------------------
#psi4
#
memory 32 gb

molecule  {
0 1
  O        3.4036770    -0.5312700    -0.1399000
  O        1.8951010     0.2455770     1.3601080
  C       -0.2772440    -0.3351030    -0.4349210
  C       -0.8873890     0.9145300    -0.2106810
  C        1.1586640    -0.4340120    -0.8715550
  C       -1.0136460    -1.5104990    -0.2499190
  C       -2.2266560     0.9408910     0.1955810
  C       -0.1273370     2.2020410    -0.3962590
  C       -2.3447665    -1.6142032     0.1536409
  C       -2.9558630    -0.2342200     0.3827420
  C        2.1430500    -0.1948310     0.2522150
  H        1.3959000     0.2860400    -1.6653130
  H        1.3705120    -1.4228390    -1.2930960
  H       -0.5342380    -2.4720800    -0.4282290
  H       -2.7060670     1.9027110     0.3699220
  H        0.7120030     2.2634110     0.3019610
  H        0.2711870     2.2951320    -1.4130380
  H       -0.7808240     3.0602230    -0.2184200
  H       -2.9035660    -2.3916010     0.2984300
  H       -3.9950070    -0.1842490     0.6994320
  H        3.9774380    -0.3341110     0.6295290
units angstrom
no_reorient  #important for SAPT in psi4, default
symmetry c1  #important for SAPT in psi4, default
}

set PROPERTIES_ORIGIN ["COM"]
properties('MP2/aug-cc-pvtz', properties = ['dipole'])
--------------------------------------------------------------------------

    Molecular point group: c1
  Charge       = 0
  Multiplicity = 1
  Basis Set: AUG-CC-PVTZ
    Blend: AUG-CC-PVTZ
  Basis Set: (AUG-CC-PVTZ AUX)
    Blend: AUG-CC-PVTZ-JKFIT

    Orbital Energies [Eh]
    ---------------------

    Doubly Occupied:

       1A    -20.618669     2A    -20.554622     3A    -11.394286
       4A    -11.258888     5A    -11.248650     6A    -11.247665
       7A    -11.243530     8A    -11.239864     9A    -11.236612
      10A    -11.231872    11A    -11.224279    12A     -1.462648
      13A     -1.360066    14A     -1.154582    15A     -1.062992
      16A     -1.042419    17A     -0.978710    18A     -0.933926
      19A     -0.836739    20A     -0.813804    21A     -0.786405
      22A     -0.709397    23A     -0.693646    24A     -0.681518
      25A     -0.661880    26A     -0.636457    27A     -0.624659
      28A     -0.596550    29A     -0.590208    30A     -0.570674
      31A     -0.561297    32A     -0.546759    33A     -0.535897
      34A     -0.498614    35A     -0.486901    36A     -0.477825
      37A     -0.467387    38A     -0.456813    39A     -0.338175
      40A     -0.313181

  @DF-RHF Final Energy:  -496.53516417201990

   => Energetics <=

    Nuclear Repulsion Energy =            581.3645991347741528
    One-Electron Energy =               -1829.0413932052861128
    Two-Electron Energy =                 751.1416298984920559
    Total Energy =                       -496.5351641720199041
  Basis Set: (AUG-CC-PVTZ AUX)
    Blend: AUG-CC-PVTZ-RI
    Molecular point group: c1

    Geometry (in Angstrom), charge = 0, multiplicity = 1:

       Center              X                  Y                   Z               Mass
    ------------   -----------------  -----------------  -----------------  -----------------
         O            3.382609181819    -0.499761788361    -0.157406405866    15.994914619570
         O            1.874033181819     0.277085211639     1.342601594134    15.994914619570
         C           -0.298311818181    -0.303594788361    -0.452427405866    12.000000000000
         C           -0.908456818181     0.946038211639    -0.228187405866    12.000000000000
         C            1.137596181819    -0.402503788361    -0.889061405866    12.000000000000
         C           -1.034713818181    -1.478990788361    -0.267425405866    12.000000000000
         C           -2.247723818181     0.972399211639     0.178074594134    12.000000000000
         C           -0.148404818181     2.233549211639    -0.413765405866    12.000000000000
         C           -2.365834318181    -1.582694988361     0.136134494134    12.000000000000
         C           -2.976930818181    -0.202711788361     0.365235594134    12.000000000000
         C            2.121982181819    -0.163322788361     0.234708594134    12.000000000000
         H            1.374832181819     0.317548211639    -1.682819405866     1.007825032230
         H            1.349444181819    -1.391330788361    -1.310602405866     1.007825032230
         H           -0.555305818181    -2.440571788361    -0.445735405866     1.007825032230
         H           -2.727134818181     1.934219211639     0.352415594134     1.007825032230
         H            0.690935181819     2.294919211639     0.284454594134     1.007825032230
         H            0.250119181819     2.326640211639    -1.430544405866     1.007825032230
         H           -0.801891818181     3.091731211639    -0.235926405866     1.007825032230
         H           -2.924633818181    -2.360092788361     0.280923594134     1.007825032230
         H           -4.016074818181    -0.152740788361     0.681925594134     1.007825032230
         H            3.956370181819    -0.302602788361     0.612022594134     1.007825032230

  Basis Set: AUG-CC-PVTZ
    Blend: AUG-CC-PVTZ
  Basis Set: (AUG-CC-PVTZ AUX)
    Blend: AUG-CC-PVTZ-JKFIT
	 Reference Energy          =    -496.5351641720199041 [Eh]
	 Singles Energy            =      -0.0000000000000000 [Eh]
	 Same-Spin Energy          =      -0.5238856906740434 [Eh]
	 Opposite-Spin Energy      =      -1.6309788867583781 [Eh]
	 Correlation Energy        =      -2.1548645774324218 [Eh]
	 Total Energy              =    -498.6900287494523241 [Eh]

	 ================> DF-SCS-MP2 Energies <==================
	-----------------------------------------------------------
	 SCS Same-Spin Scale       =       0.3333333333333333 [-]
	 SCS Opposite-Spin Scale   =       1.2000000000000000 [-]
	 SCS Same-Spin Energy      =      -0.1746285635580145 [Eh]
	 SCS Opposite-Spin Energy  =      -1.9571746641100536 [Eh]
	 SCS Correlation Energy    =      -2.1318032276680681 [Eh]
	 SCS Total Energy          =    -498.6669673996879624 [Eh]
	-----------------------------------------------------------

  Dipole Moment: [D]
     X:     0.5532      Y:    -0.1051      Z:    -1.2103     Total:     1.3348

*** Psi4 exiting successfully. Buy a developer a beer!
