                               Psi4 1.4a3.dev225

  ==> Input File <==

--------------------------------------------------------------------------
#psi4
#
memory 32 gb

molecule  {
0 1
  O        3.4036770    -0.5312700    -0.1399000
  O        1.8951010     0.2455770     1.3601080
  C       -0.2772440    -0.3351030    -0.4349210
  C       -0.8873890     0.9145300    -0.2106810
  C        1.1586640    -0.4340120    -0.8715550
  C       -1.0136460    -1.5104990    -0.2499190
  C       -2.2266560     0.9408910     0.1955810
  C       -0.1273370     2.2020410    -0.3962590
  C       -2.3465050    -1.4683140     0.1589870
  C       -2.9558630    -0.2342200     0.3827420
  C        2.1430500    -0.1948310     0.2522150
  H        1.3959000     0.2860400    -1.6653130
  H        1.3705120    -1.4228390    -1.2930960
  H       -0.5122298    -2.5162233    -0.4364147
  H       -2.7060670     1.9027110     0.3699220
  H        0.7120030     2.2634110     0.3019610
  H        0.2711870     2.2951320    -1.4130380
  H       -0.7808240     3.0602230    -0.2184200
  H       -2.9035660    -2.3916010     0.2984300
  H       -3.9950070    -0.1842490     0.6994320
  H        3.9774380    -0.3341110     0.6295290
units angstrom
no_reorient  #important for SAPT in psi4, default
symmetry c1  #important for SAPT in psi4, default
}

set PROPERTIES_ORIGIN ["COM"]
properties('MP2/aug-cc-pvtz', properties = ['dipole'])
--------------------------------------------------------------------------

    Molecular point group: c1
  Charge       = 0
  Multiplicity = 1
  Basis Set: AUG-CC-PVTZ
    Blend: AUG-CC-PVTZ
  Basis Set: (AUG-CC-PVTZ AUX)
    Blend: AUG-CC-PVTZ-JKFIT

    Orbital Energies [Eh]
    ---------------------

    Doubly Occupied:

       1A    -20.618839     2A    -20.554840     3A    -11.394637
       4A    -11.258580     5A    -11.245171     6A    -11.243959
       7A    -11.242359     8A    -11.235244     9A    -11.233009
      10A    -11.231387    11A    -11.223079    12A     -1.462846
      13A     -1.360288    14A     -1.160874    15A     -1.070849
      16A     -1.041097    17A     -0.981108    18A     -0.930635
      19A     -0.840125    20A     -0.809601    21A     -0.778365
      22A     -0.708781    23A     -0.689124    24A     -0.677547
      25A     -0.666114    26A     -0.628072    27A     -0.621528
      28A     -0.596392    29A     -0.576589    30A     -0.567902
      31A     -0.564839    32A     -0.547802    33A     -0.540818
      34A     -0.491693    35A     -0.485500    36A     -0.483809
      37A     -0.481427    38A     -0.457804    39A     -0.333829
      40A     -0.323799

  @DF-RHF Final Energy:  -496.56194974088908

   => Energetics <=

    Nuclear Repulsion Energy =            583.2816615419347954
    One-Electron Energy =               -1832.9667032308279886
    Two-Electron Energy =                 753.1230919480042303
    Total Energy =                       -496.5619497408890766
  Basis Set: (AUG-CC-PVTZ AUX)
    Blend: AUG-CC-PVTZ-RI
    Molecular point group: c1

    Geometry (in Angstrom), charge = 0, multiplicity = 1:

       Center              X                  Y                   Z               Mass
    ------------   -----------------  -----------------  -----------------  -----------------
         O            3.382600396374    -0.511131172724    -0.157778926437    15.994914619570
         O            1.874024396374     0.265715827276     1.342229073563    15.994914619570
         C           -0.298320603626    -0.314964172724    -0.452799926437    12.000000000000
         C           -0.908465603626     0.934668827276    -0.228559926437    12.000000000000
         C            1.137587396374    -0.413873172724    -0.889433926437    12.000000000000
         C           -1.034722603626    -1.490360172724    -0.267797926437    12.000000000000
         C           -2.247732603626     0.961029827276     0.177702073563    12.000000000000
         C           -0.148413603626     2.222179827276    -0.414137926437    12.000000000000
         C           -2.367581603626    -1.448175172724     0.141108073563    12.000000000000
         C           -2.976939603626    -0.214081172724     0.364863073563    12.000000000000
         C            2.121973396374    -0.174692172724     0.234336073563    12.000000000000
         H            1.374823396374     0.306178827276    -1.683191926437     1.007825032230
         H            1.349435396374    -1.402700172724    -1.310974926437     1.007825032230
         H           -0.533306403626    -2.496084472724    -0.454293626437     1.007825032230
         H           -2.727143603626     1.922849827276     0.352043073563     1.007825032230
         H            0.690926396374     2.283549827276     0.284082073563     1.007825032230
         H            0.250110396374     2.315270827276    -1.430916926437     1.007825032230
         H           -0.801900603626     3.080361827276    -0.236298926437     1.007825032230
         H           -2.924642603626    -2.371462172724     0.280551073563     1.007825032230
         H           -4.016083603626    -0.164110172724     0.681553073563     1.007825032230
         H            3.956361396374    -0.313972172724     0.611650073563     1.007825032230

  Basis Set: AUG-CC-PVTZ
    Blend: AUG-CC-PVTZ
  Basis Set: (AUG-CC-PVTZ AUX)
    Blend: AUG-CC-PVTZ-JKFIT
	 Reference Energy          =    -496.5619497408890766 [Eh]
	 Singles Energy            =      -0.0000000000000000 [Eh]
	 Same-Spin Energy          =      -0.5237680703887768 [Eh]
	 Opposite-Spin Energy      =      -1.6290959360456896 [Eh]
	 Correlation Energy        =      -2.1528640064344664 [Eh]
	 Total Energy              =    -498.7148137473235465 [Eh]

	 ================> DF-SCS-MP2 Energies <==================
	-----------------------------------------------------------
	 SCS Same-Spin Scale       =       0.3333333333333333 [-]
	 SCS Opposite-Spin Scale   =       1.2000000000000000 [-]
	 SCS Same-Spin Energy      =      -0.1745893567962589 [Eh]
	 SCS Opposite-Spin Energy  =      -1.9549151232548274 [Eh]
	 SCS Correlation Energy    =      -2.1295044800510863 [Eh]
	 SCS Total Energy          =    -498.6914542209401588 [Eh]
	-----------------------------------------------------------

  Dipole Moment: [D]
     X:     0.5318      Y:    -0.0928      Z:    -1.2070     Total:     1.3222

*** Psi4 exiting successfully. Buy a developer a beer!
