                               Psi4 1.4a3.dev225

  ==> Input File <==

--------------------------------------------------------------------------
#psi4
#
memory 32 gb

molecule  {
0 1
  O        3.4036770    -0.5312700    -0.1399000
  O        1.8951010     0.2455770     1.3601080
  C       -0.2772440    -0.3351030    -0.4349210
  C       -0.8873890     0.9145300    -0.2106810
  C        1.1586640    -0.4340120    -0.8715550
  C       -1.0136460    -1.5104990    -0.2499190
  C       -2.1788175     0.9399494     0.1810693
  C       -0.1273370     2.2020410    -0.3962590
  C       -2.3465050    -1.4683140     0.1589870
  C       -2.9558630    -0.2342200     0.3827420
  C        2.1430500    -0.1948310     0.2522150
  H        1.3959000     0.2860400    -1.6653130
  H        1.3705120    -1.4228390    -1.2930960
  H       -0.5342380    -2.4720800    -0.4282290
  H       -2.7060670     1.9027110     0.3699220
  H        0.7120030     2.2634110     0.3019610
  H        0.2711870     2.2951320    -1.4130380
  H       -0.7808240     3.0602230    -0.2184200
  H       -2.9035660    -2.3916010     0.2984300
  H       -3.9950070    -0.1842490     0.6994320
  H        3.9774380    -0.3341110     0.6295290
units angstrom
no_reorient  #important for SAPT in psi4, default
symmetry c1  #important for SAPT in psi4, default
}

set PROPERTIES_ORIGIN ["COM"]
properties('MP2/aug-cc-pvtz', properties = ['dipole'])
--------------------------------------------------------------------------

    Molecular point group: c1
  Charge       = 0
  Multiplicity = 1
  Basis Set: AUG-CC-PVTZ
    Blend: AUG-CC-PVTZ
  Basis Set: (AUG-CC-PVTZ AUX)
    Blend: AUG-CC-PVTZ-JKFIT

    Orbital Energies [Eh]
    ---------------------

    Doubly Occupied:

       1A    -20.618958     2A    -20.555003     3A    -11.394808
       4A    -11.258752     5A    -11.245156     6A    -11.237718
       7A    -11.237205     8A    -11.236243     9A    -11.232702
      10A    -11.230227    11A    -11.222102    12A     -1.462983
      13A     -1.360445    14A     -1.163968    15A     -1.069268
      16A     -1.046175    17A     -0.978361    18A     -0.931913
      19A     -0.843253    20A     -0.809157    21A     -0.780365
      22A     -0.708854    23A     -0.689336    24A     -0.678212
      25A     -0.666998    26A     -0.629418    27A     -0.622761
      28A     -0.596632    29A     -0.575902    30A     -0.569252
      31A     -0.565986    32A     -0.549497    33A     -0.537768
      34A     -0.493170    35A     -0.490927    36A     -0.481850
      37A     -0.477214    38A     -0.457955    39A     -0.335048
      40A     -0.324791

  @DF-RHF Final Energy:  -496.56146003135211

   => Energetics <=

    Nuclear Repulsion Energy =            584.2709860371998047
    One-Electron Energy =               -1834.9322230934269555
    Two-Electron Energy =                 754.0997770248749248
    Total Energy =                       -496.5614600313521123
  Basis Set: (AUG-CC-PVTZ AUX)
    Blend: AUG-CC-PVTZ-RI
    Molecular point group: c1

    Geometry (in Angstrom), charge = 0, multiplicity = 1:

       Center              X                  Y                   Z               Mass
    ------------   -----------------  -----------------  -----------------  -----------------
         O            3.378922854909    -0.511352335832    -0.156673490510    15.994914619570
         O            1.870346854909     0.265494664168     1.343334509490    15.994914619570
         C           -0.301998145091    -0.315185335832    -0.451694490510    12.000000000000
         C           -0.912143145091     0.934447664168    -0.227454490510    12.000000000000
         C            1.133909854909    -0.414094335832    -0.888328490510    12.000000000000
         C           -1.038400145091    -1.490581335832    -0.266692490510    12.000000000000
         C           -2.203571645091     0.959867064168     0.164295809490    12.000000000000
         C           -0.152091145091     2.221958664168    -0.413032490510    12.000000000000
         C           -2.371259145091    -1.448396335832     0.142213509490    12.000000000000
         C           -2.980617145091    -0.214302335832     0.365968509490    12.000000000000
         C            2.118295854909    -0.174913335832     0.235441509490    12.000000000000
         H            1.371145854909     0.305957664168    -1.682086490510     1.007825032230
         H            1.345757854909    -1.402921335832    -1.309869490510     1.007825032230
         H           -0.558992145091    -2.452162335832    -0.445002490510     1.007825032230
         H           -2.730821145091     1.922628664168     0.353148509490     1.007825032230
         H            0.687248854909     2.283328664168     0.285187509490     1.007825032230
         H            0.246432854909     2.315049664168    -1.429811490510     1.007825032230
         H           -0.805578145091     3.080140664168    -0.235193490510     1.007825032230
         H           -2.928320145091    -2.371683335832     0.281656509490     1.007825032230
         H           -4.019761145091    -0.164331335832     0.682658509490     1.007825032230
         H            3.952683854909    -0.314193335832     0.612755509490     1.007825032230

  Basis Set: AUG-CC-PVTZ
    Blend: AUG-CC-PVTZ
  Basis Set: (AUG-CC-PVTZ AUX)
    Blend: AUG-CC-PVTZ-JKFIT
	 Reference Energy          =    -496.5614600313521123 [Eh]
	 Singles Energy            =      -0.0000000000000000 [Eh]
	 Same-Spin Energy          =      -0.5235624927222161 [Eh]
	 Opposite-Spin Energy      =      -1.6287641842208005 [Eh]
	 Correlation Energy        =      -2.1523266769430167 [Eh]
	 Total Energy              =    -498.7137867082951175 [Eh]

	 ================> DF-SCS-MP2 Energies <==================
	-----------------------------------------------------------
	 SCS Same-Spin Scale       =       0.3333333333333333 [-]
	 SCS Opposite-Spin Scale   =       1.2000000000000000 [-]
	 SCS Same-Spin Energy      =      -0.1745208309074054 [Eh]
	 SCS Opposite-Spin Energy  =      -1.9545170210649605 [Eh]
	 SCS Correlation Energy    =      -2.1290378519723658 [Eh]
	 SCS Total Energy          =    -498.6904978833244968 [Eh]
	-----------------------------------------------------------

  Dipole Moment: [D]
     X:     0.5336      Y:    -0.1488      Z:    -1.2109     Total:     1.3317

*** Psi4 exiting successfully. Buy a developer a beer!
