                               Psi4 1.4a3.dev225

  ==> Input File <==

--------------------------------------------------------------------------
#psi4
#
memory 32 gb

molecule  {
0 1
  O        3.4036770    -0.5312700    -0.1399000
  O        1.8951010     0.2455770     1.3601080
  C       -0.2772440    -0.3351030    -0.4349210
  C       -0.8873890     0.9145300    -0.2106810
  C        1.1586640    -0.4340120    -0.8715550
  C       -1.0136460    -1.5104990    -0.2499190
  C       -2.4180101     0.9446575     0.2536276
  C       -0.1273370     2.2020410    -0.3962590
  C       -2.3465050    -1.4683140     0.1589870
  C       -2.9558630    -0.2342200     0.3827420
  C        2.1430500    -0.1948310     0.2522150
  H        1.3959000     0.2860400    -1.6653130
  H        1.3705120    -1.4228390    -1.2930960
  H       -0.5342380    -2.4720800    -0.4282290
  H       -2.7060670     1.9027110     0.3699220
  H        0.7120030     2.2634110     0.3019610
  H        0.2711870     2.2951320    -1.4130380
  H       -0.7808240     3.0602230    -0.2184200
  H       -2.9035660    -2.3916010     0.2984300
  H       -3.9950070    -0.1842490     0.6994320
  H        3.9774380    -0.3341110     0.6295290
units angstrom
no_reorient  #important for SAPT in psi4, default
symmetry c1  #important for SAPT in psi4, default
}

set PROPERTIES_ORIGIN ["COM"]
properties('MP2/aug-cc-pvtz', properties = ['dipole'])
--------------------------------------------------------------------------

    Molecular point group: c1
  Charge       = 0
  Multiplicity = 1
  Basis Set: AUG-CC-PVTZ
    Blend: AUG-CC-PVTZ
  Basis Set: (AUG-CC-PVTZ AUX)
    Blend: AUG-CC-PVTZ-JKFIT

    Orbital Energies [Eh]
    ---------------------

    Doubly Occupied:

       1A    -20.618488     2A    -20.554351     3A    -11.394012
       4A    -11.260029     5A    -11.258053     6A    -11.240553
       7A    -11.239140     8A    -11.233634     9A    -11.231925
      10A    -11.225495    11A    -11.225236    12A     -1.462438
      13A     -1.359796    14A     -1.153409    15A     -1.077544
      16A     -1.029596    17A     -0.994801    18A     -0.926427
      19A     -0.835203    20A     -0.819301    21A     -0.772776
      22A     -0.709082    23A     -0.690290    24A     -0.680871
      25A     -0.666205    26A     -0.644006    27A     -0.620433
      28A     -0.595709    29A     -0.585098    30A     -0.567645
      31A     -0.560550    32A     -0.549387    33A     -0.544115
      34A     -0.501415    35A     -0.489348    36A     -0.481591
      37A     -0.457719    38A     -0.446133    39A     -0.350159
      40A     -0.305604

  @DF-RHF Final Energy:  -496.52299928238904

   => Energetics <=

    Nuclear Repulsion Energy =            580.8992068326864455
    One-Electron Energy =               -1828.1292810024219762
    Two-Electron Energy =                 750.7070748873463799
    Total Energy =                       -496.5229992823890370
  Basis Set: (AUG-CC-PVTZ AUX)
    Blend: AUG-CC-PVTZ-RI
    Molecular point group: c1

    Geometry (in Angstrom), charge = 0, multiplicity = 1:

       Center              X                  Y                   Z               Mass
    ------------   -----------------  -----------------  -----------------  -----------------
         O            3.398049581981    -0.511728812962    -0.162475521178    15.994914619570
         O            1.889473581981     0.265118187038     1.337532478822    15.994914619570
         C           -0.282871418019    -0.315561812962    -0.457496521178    12.000000000000
         C           -0.893016418019     0.934071187038    -0.233256521178    12.000000000000
         C            1.153036581981    -0.414470812962    -0.894130521178    12.000000000000
         C           -1.019273418019    -1.490957812962    -0.272494521178    12.000000000000
         C           -2.423637518019     0.964198687038     0.231052078822    12.000000000000
         C           -0.132964418019     2.221582187038    -0.418834521178    12.000000000000
         C           -2.352132418019    -1.448772812962     0.136411478822    12.000000000000
         C           -2.961490418019    -0.214678812962     0.360166478822    12.000000000000
         C            2.137422581981    -0.175289812962     0.229639478822    12.000000000000
         H            1.390272581981     0.305581187038    -1.687888521178     1.007825032230
         H            1.364884581981    -1.403297812962    -1.315671521178     1.007825032230
         H           -0.539865418019    -2.452538812962    -0.450804521178     1.007825032230
         H           -2.711694418019     1.922252187038     0.347346478822     1.007825032230
         H            0.706375581981     2.282952187038     0.279385478822     1.007825032230
         H            0.265559581981     2.314673187038    -1.435613521178     1.007825032230
         H           -0.786451418019     3.079764187038    -0.240995521178     1.007825032230
         H           -2.909193418019    -2.372059812962     0.275854478822     1.007825032230
         H           -4.000634418019    -0.164707812962     0.676856478822     1.007825032230
         H            3.971810581981    -0.314569812962     0.606953478822     1.007825032230

  Basis Set: AUG-CC-PVTZ
    Blend: AUG-CC-PVTZ
  Basis Set: (AUG-CC-PVTZ AUX)
    Blend: AUG-CC-PVTZ-JKFIT
	 Reference Energy          =    -496.5229992823890370 [Eh]
	 Singles Energy            =      -0.0000000000000000 [Eh]
	 Same-Spin Energy          =      -0.5233961770073798 [Eh]
	 Opposite-Spin Energy      =      -1.6306984766817514 [Eh]
	 Correlation Energy        =      -2.1540946536891310 [Eh]
	 Total Energy              =    -498.6770939360781654 [Eh]

	 ================> DF-SCS-MP2 Energies <==================
	-----------------------------------------------------------
	 SCS Same-Spin Scale       =       0.3333333333333333 [-]
	 SCS Opposite-Spin Scale   =       1.2000000000000000 [-]
	 SCS Same-Spin Energy      =      -0.1744653923357933 [Eh]
	 SCS Opposite-Spin Energy  =      -1.9568381720181016 [Eh]
	 SCS Correlation Energy    =      -2.1313035643538947 [Eh]
	 SCS Total Energy          =    -498.6543028467429508 [Eh]
	-----------------------------------------------------------

  Dipole Moment: [D]
     X:     0.5751      Y:    -0.0365      Z:    -1.2127     Total:     1.3427

*** Psi4 exiting successfully. Buy a developer a beer!
