                               Psi4 1.4a3.dev225

  ==> Input File <==

--------------------------------------------------------------------------
#psi4
#
memory 32 gb

molecule  {
0 1
  O        3.4036770    -0.5312700    -0.1399000
  O        1.8951010     0.2455770     1.3601080
  C       -0.2772440    -0.3351030    -0.4349210
  C       -0.8873890     0.9145300    -0.2106810
  C        1.1586640    -0.4340120    -0.8715550
  C       -1.0136460    -1.5104990    -0.2499190
  C       -2.2266560     0.9408910     0.1955810
  C       -0.1273370     2.2020410    -0.3962590
  C       -2.3465050    -1.4683140     0.1589870
  C       -3.0321067    -0.1789141     0.4075803
  C        2.1430500    -0.1948310     0.2522150
  H        1.3959000     0.2860400    -1.6653130
  H        1.3705120    -1.4228390    -1.2930960
  H       -0.5342380    -2.4720800    -0.4282290
  H       -2.7060670     1.9027110     0.3699220
  H        0.7120030     2.2634110     0.3019610
  H        0.2711870     2.2951320    -1.4130380
  H       -0.7808240     3.0602230    -0.2184200
  H       -2.9035660    -2.3916010     0.2984300
  H       -3.9950070    -0.1842490     0.6994320
  H        3.9774380    -0.3341110     0.6295290
units angstrom
no_reorient  #important for SAPT in psi4, default
symmetry c1  #important for SAPT in psi4, default
}

set PROPERTIES_ORIGIN ["COM"]
properties('MP2/aug-cc-pvtz', properties = ['dipole'])
--------------------------------------------------------------------------

    Molecular point group: c1
  Charge       = 0
  Multiplicity = 1
  Basis Set: AUG-CC-PVTZ
    Blend: AUG-CC-PVTZ
  Basis Set: (AUG-CC-PVTZ AUX)
    Blend: AUG-CC-PVTZ-JKFIT

    Orbital Energies [Eh]
    ---------------------

    Doubly Occupied:

       1A    -20.619177     2A    -20.555190     3A    -11.395157
       4A    -11.259169     5A    -11.245900     6A    -11.243990
       7A    -11.242125     8A    -11.237500     9A    -11.236376
      10A    -11.233316    11A    -11.223158    12A     -1.463195
      13A     -1.360616    14A     -1.156218    15A     -1.066863
      16A     -1.038360    17A     -0.985115    18A     -0.926357
      19A     -0.843970    20A     -0.808984    21A     -0.783926
      22A     -0.708939    23A     -0.689653    24A     -0.682003
      25A     -0.664468    26A     -0.635741    27A     -0.624390
      28A     -0.596561    29A     -0.587409    30A     -0.568736
      31A     -0.559820    32A     -0.548970    33A     -0.536099
      34A     -0.497161    35A     -0.487882    36A     -0.479230
      37A     -0.473944    38A     -0.457642    39A     -0.336919
      40A     -0.315534

  @DF-RHF Final Energy:  -496.55074259909645

   => Energetics <=

    Nuclear Repulsion Energy =            581.9563598583591784
    One-Electron Energy =               -1830.2626762641473306
    Two-Electron Energy =                 751.7555738066915865
    Total Energy =                       -496.5507425990964521
  Basis Set: (AUG-CC-PVTZ AUX)
    Blend: AUG-CC-PVTZ-RI
    Molecular point group: c1

    Geometry (in Angstrom), charge = 0, multiplicity = 1:

       Center              X                  Y                   Z               Mass
    ------------   -----------------  -----------------  -----------------  -----------------
         O            3.388844927640    -0.515850094462    -0.159820062395    15.994914619570
         O            1.880268927640     0.260996905538     1.340187937605    15.994914619570
         C           -0.292076072360    -0.319683094462    -0.454841062395    12.000000000000
         C           -0.902221072360     0.929949905538    -0.230601062395    12.000000000000
         C            1.143831927640    -0.418592094462    -0.891475062395    12.000000000000
         C           -1.028478072360    -1.495079094462    -0.269839062395    12.000000000000
         C           -2.241488072360     0.956310905538     0.175660937605    12.000000000000
         C           -0.142169072360     2.217460905538    -0.416179062395    12.000000000000
         C           -2.361337072360    -1.452894094462     0.139066937605    12.000000000000
         C           -3.046938772360    -0.163494194462     0.387660237605    12.000000000000
         C            2.128217927640    -0.179411094462     0.232294937605    12.000000000000
         H            1.381067927640     0.301459905538    -1.685233062395     1.007825032230
         H            1.355679927640    -1.407419094462    -1.313016062395     1.007825032230
         H           -0.549070072360    -2.456660094462    -0.448149062395     1.007825032230
         H           -2.720899072360     1.918130905538     0.350001937605     1.007825032230
         H            0.697170927640     2.278830905538     0.282040937605     1.007825032230
         H            0.256354927640     2.310551905538    -1.432958062395     1.007825032230
         H           -0.795656072360     3.075642905538    -0.238340062395     1.007825032230
         H           -2.918398072360    -2.376181094462     0.278509937605     1.007825032230
         H           -4.009839072360    -0.168829094462     0.679511937605     1.007825032230
         H            3.962605927640    -0.318691094462     0.609608937605     1.007825032230

  Basis Set: AUG-CC-PVTZ
    Blend: AUG-CC-PVTZ
  Basis Set: (AUG-CC-PVTZ AUX)
    Blend: AUG-CC-PVTZ-JKFIT
	 Reference Energy          =    -496.5507425990964521 [Eh]
	 Singles Energy            =      -0.0000000000000000 [Eh]
	 Same-Spin Energy          =      -0.5238431745599706 [Eh]
	 Opposite-Spin Energy      =      -1.6300232614495975 [Eh]
	 Correlation Energy        =      -2.1538664360095683 [Eh]
	 Total Energy              =    -498.7046090351060457 [Eh]

	 ================> DF-SCS-MP2 Energies <==================
	-----------------------------------------------------------
	 SCS Same-Spin Scale       =       0.3333333333333333 [-]
	 SCS Opposite-Spin Scale   =       1.2000000000000000 [-]
	 SCS Same-Spin Energy      =      -0.1746143915199902 [Eh]
	 SCS Opposite-Spin Energy  =      -1.9560279137395169 [Eh]
	 SCS Correlation Energy    =      -2.1306423052595069 [Eh]
	 SCS Total Energy          =    -498.6813849043559799 [Eh]
	-----------------------------------------------------------

  Dipole Moment: [D]
     X:     0.5434      Y:    -0.1136      Z:    -1.2075     Total:     1.3290

*** Psi4 exiting successfully. Buy a developer a beer!
