                               Psi4 1.4a3.dev225

  ==> Input File <==

--------------------------------------------------------------------------
#psi4
#
memory 32 gb

molecule  {
0 1
  O        3.4036770    -0.5312700    -0.1399000
  O        1.8951010     0.2455770     1.3601080
  C       -0.2772440    -0.3351030    -0.4349210
  C       -0.8873890     0.9145300    -0.2106810
  C        1.1586640    -0.4340120    -0.8715550
  C       -1.0136460    -1.5104990    -0.2499190
  C       -2.2233582     0.7945357     0.1895284
  C       -0.1273370     2.2020410    -0.3962590
  C       -2.3465050    -1.4683140     0.1589870
  C       -2.9558630    -0.2342200     0.3827420
  C        2.1430500    -0.1948310     0.2522150
  H        1.3959000     0.2860400    -1.6653130
  H        1.3705120    -1.4228390    -1.2930960
  H       -0.5342380    -2.4720800    -0.4282290
  H       -2.7060670     1.9027110     0.3699220
  H        0.7120030     2.2634110     0.3019610
  H        0.2711870     2.2951320    -1.4130380
  H       -0.7808240     3.0602230    -0.2184200
  H       -2.9035660    -2.3916010     0.2984300
  H       -3.9950070    -0.1842490     0.6994320
  H        3.9774380    -0.3341110     0.6295290
units angstrom
no_reorient  #important for SAPT in psi4, default
symmetry c1  #important for SAPT in psi4, default
}

set PROPERTIES_ORIGIN ["COM"]
properties('MP2/aug-cc-pvtz', properties = ['dipole'])
--------------------------------------------------------------------------

    Molecular point group: c1
  Charge       = 0
  Multiplicity = 1
  Basis Set: AUG-CC-PVTZ
    Blend: AUG-CC-PVTZ
  Basis Set: (AUG-CC-PVTZ AUX)
    Blend: AUG-CC-PVTZ-JKFIT

    Orbital Energies [Eh]
    ---------------------

    Doubly Occupied:

       1A    -20.619191     2A    -20.555313     3A    -11.395200
       4A    -11.257977     5A    -11.244722     6A    -11.243529
       7A    -11.234397     8A    -11.233122     9A    -11.230127
      10A    -11.226990    11A    -11.219973    12A     -1.463248
      13A     -1.360732    14A     -1.172385    15A     -1.081604
      16A     -1.038090    17A     -0.991841    18A     -0.933255
      19A     -0.840732    20A     -0.811547    21A     -0.776873
      22A     -0.708674    23A     -0.692252    24A     -0.683154
      25A     -0.668120    26A     -0.633188    27A     -0.610947
      28A     -0.597223    29A     -0.580069    30A     -0.569330
      31A     -0.565435    32A     -0.550428    33A     -0.535302
      34A     -0.502236    35A     -0.497696    36A     -0.483715
      37A     -0.459005    38A     -0.453379    39A     -0.346543
      40A     -0.320455

  @DF-RHF Final Energy:  -496.53596131712618

   => Energetics <=

    Nuclear Repulsion Energy =            585.5967609215044831
    One-Electron Energy =               -1837.4894511974632678
    Two-Electron Energy =                 755.3567289588326048
    Total Energy =                       -496.5359613171261799
  Basis Set: (AUG-CC-PVTZ AUX)
    Blend: AUG-CC-PVTZ-RI
    Molecular point group: c1

    Geometry (in Angstrom), charge = 0, multiplicity = 1:

       Center              X                  Y                   Z               Mass
    ------------   -----------------  -----------------  -----------------  -----------------
         O            3.382484494410    -0.499724517277    -0.157349911507    15.994914619570
         O            1.873908494410     0.277122482723     1.342658088493    15.994914619570
         C           -0.298436505590    -0.303557517277    -0.452370911507    12.000000000000
         C           -0.908581505590     0.946075482723    -0.228130911507    12.000000000000
         C            1.137471494410    -0.402466517277    -0.889004911507    12.000000000000
         C           -1.034838505590    -1.478953517277    -0.267368911507    12.000000000000
         C           -2.244550705590     0.826081182723     0.172078488493    12.000000000000
         C           -0.148529505590     2.233586482723    -0.413708911507    12.000000000000
         C           -2.367697505590    -1.436768517277     0.141537088493    12.000000000000
         C           -2.977055505590    -0.202674517277     0.365292088493    12.000000000000
         C            2.121857494410    -0.163285517277     0.234765088493    12.000000000000
         H            1.374707494410     0.317585482723    -1.682762911507     1.007825032230
         H            1.349319494410    -1.391293517277    -1.310545911507     1.007825032230
         H           -0.555430505590    -2.440534517277    -0.445678911507     1.007825032230
         H           -2.727259505590     1.934256482723     0.352472088493     1.007825032230
         H            0.690810494410     2.294956482723     0.284511088493     1.007825032230
         H            0.249994494410     2.326677482723    -1.430487911507     1.007825032230
         H           -0.802016505590     3.091768482723    -0.235869911507     1.007825032230
         H           -2.924758505590    -2.360055517277     0.280980088493     1.007825032230
         H           -4.016199505590    -0.152703517277     0.681982088493     1.007825032230
         H            3.956245494410    -0.302565517277     0.612079088493     1.007825032230

  Basis Set: AUG-CC-PVTZ
    Blend: AUG-CC-PVTZ
  Basis Set: (AUG-CC-PVTZ AUX)
    Blend: AUG-CC-PVTZ-JKFIT
	 Reference Energy          =    -496.5359613171261799 [Eh]
	 Singles Energy            =      -0.0000000000000000 [Eh]
	 Same-Spin Energy          =      -0.5243438759843633 [Eh]
	 Opposite-Spin Energy      =      -1.6296415896763392 [Eh]
	 Correlation Energy        =      -2.1539854656607025 [Eh]
	 Total Energy              =    -498.6899467827868762 [Eh]

	 ================> DF-SCS-MP2 Energies <==================
	-----------------------------------------------------------
	 SCS Same-Spin Scale       =       0.3333333333333333 [-]
	 SCS Opposite-Spin Scale   =       1.2000000000000000 [-]
	 SCS Same-Spin Energy      =      -0.1747812919947878 [Eh]
	 SCS Opposite-Spin Energy  =      -1.9555699076116069 [Eh]
	 SCS Correlation Energy    =      -2.1303511996063946 [Eh]
	 SCS Total Energy          =    -498.6663125167325461 [Eh]
	-----------------------------------------------------------

  Dipole Moment: [D]
     X:     0.6142      Y:    -0.1784      Z:    -1.2374     Total:     1.3929

*** Psi4 exiting successfully. Buy a developer a beer!
