                               Psi4 1.4a3.dev225

  ==> Input File <==

--------------------------------------------------------------------------
#psi4
#
memory 32 gb

molecule  {
0 1
  O        3.4036770    -0.5312700    -0.1399000
  O        1.8951010     0.2455770     1.3601080
  C       -0.2772440    -0.3351030    -0.4349210
  C       -0.8873890     0.9145300    -0.2106810
  C        1.1586640    -0.4340120    -0.8715550
  C       -1.0136460    -1.5104990    -0.2499190
  C       -2.2266560     0.9408910     0.1955810
  C       -0.1273370     2.2020410    -0.3962590
  C       -2.3465050    -1.4683140     0.1589870
  C       -2.9558630    -0.2342200     0.3827420
  C        2.1430500    -0.1948310     0.2522150
  H        1.3959000     0.2860400    -1.6653130
  H        1.3705120    -1.4228390    -1.2930960
  H       -0.5342380    -2.4720800    -0.4282290
  H       -2.7148738     1.9203797     0.3731247
  H        0.7120030     2.2634110     0.3019610
  H        0.2711870     2.2951320    -1.4130380
  H       -0.7808240     3.0602230    -0.2184200
  H       -2.9035660    -2.3916010     0.2984300
  H       -3.9950070    -0.1842490     0.6994320
  H        3.9774380    -0.3341110     0.6295290
units angstrom
no_reorient  #important for SAPT in psi4, default
symmetry c1  #important for SAPT in psi4, default
}

set PROPERTIES_ORIGIN ["COM"]
properties('MP2/aug-cc-pvtz', properties = ['dipole'])
--------------------------------------------------------------------------

    Molecular point group: c1
  Charge       = 0
  Multiplicity = 1
  Basis Set: AUG-CC-PVTZ
    Blend: AUG-CC-PVTZ
  Basis Set: (AUG-CC-PVTZ AUX)
    Blend: AUG-CC-PVTZ-JKFIT

    Orbital Energies [Eh]
    ---------------------

    Doubly Occupied:

       1A    -20.618914     2A    -20.554919     3A    -11.394714
       4A    -11.258727     5A    -11.244778     6A    -11.243615
       7A    -11.236769     8A    -11.235136     9A    -11.233402
      10A    -11.232531    11A    -11.222823    12A     -1.462924
      13A     -1.360360    14A     -1.160843    15A     -1.070676
      16A     -1.041469    17A     -0.981664    18A     -0.930243
      19A     -0.840630    20A     -0.811226    21A     -0.778049
      22A     -0.708796    23A     -0.689184    24A     -0.678210
      25A     -0.666698    26A     -0.627975    27A     -0.624074
      28A     -0.596408    29A     -0.577368    30A     -0.568249
      31A     -0.564891    32A     -0.548885    33A     -0.539923
      34A     -0.491545    35A     -0.486218    36A     -0.483963
      37A     -0.481469    38A     -0.457872    39A     -0.333623
      40A     -0.323573

  @DF-RHF Final Energy:  -496.56376832821684

   => Energetics <=

    Nuclear Repulsion Energy =            583.4277628221432224
    One-Electron Energy =               -1833.2563971164618124
    Two-Electron Energy =                 753.2648659661017518
    Total Energy =                       -496.5637683282168382
  Basis Set: (AUG-CC-PVTZ AUX)
    Blend: AUG-CC-PVTZ-RI
    Molecular point group: c1

    Geometry (in Angstrom), charge = 0, multiplicity = 1:

       Center              X                  Y                   Z               Mass
    ------------   -----------------  -----------------  -----------------  -----------------
         O            3.382807343304    -0.511546288858    -0.157855408488    15.994914619570
         O            1.874231343304     0.265300711142     1.342152591512    15.994914619570
         C           -0.298113656696    -0.315379288858    -0.452876408488    12.000000000000
         C           -0.908258656696     0.934253711142    -0.228636408488    12.000000000000
         C            1.137794343304    -0.414288288858    -0.889510408488    12.000000000000
         C           -1.034515656696    -1.490775288858    -0.267874408488    12.000000000000
         C           -2.247525656696     0.960614711142     0.177625591512    12.000000000000
         C           -0.148206656696     2.221764711142    -0.414214408488    12.000000000000
         C           -2.367374656696    -1.448590288858     0.141031591512    12.000000000000
         C           -2.976732656696    -0.214496288858     0.364786591512    12.000000000000
         C            2.122180343304    -0.175107288858     0.234259591512    12.000000000000
         H            1.375030343304     0.305763711142    -1.683268408488     1.007825032230
         H            1.349642343304    -1.403115288858    -1.311051408488     1.007825032230
         H           -0.555107656696    -2.452356288858    -0.446184408488     1.007825032230
         H           -2.735743456696     1.940103411142     0.355169291512     1.007825032230
         H            0.691133343304     2.283134711142     0.284005591512     1.007825032230
         H            0.250317343304     2.314855711142    -1.430993408488     1.007825032230
         H           -0.801693656696     3.079946711142    -0.236375408488     1.007825032230
         H           -2.924435656696    -2.371877288858     0.280474591512     1.007825032230
         H           -4.015876656696    -0.164525288858     0.681476591512     1.007825032230
         H            3.956568343304    -0.314387288858     0.611573591512     1.007825032230

  Basis Set: AUG-CC-PVTZ
    Blend: AUG-CC-PVTZ
  Basis Set: (AUG-CC-PVTZ AUX)
    Blend: AUG-CC-PVTZ-JKFIT
	 Reference Energy          =    -496.5637683282168382 [Eh]
	 Singles Energy            =      -0.0000000000000000 [Eh]
	 Same-Spin Energy          =      -0.5236928919144137 [Eh]
	 Opposite-Spin Energy      =      -1.6288193990969755 [Eh]
	 Correlation Energy        =      -2.1525122910113890 [Eh]
	 Total Energy              =    -498.7162806192282005 [Eh]

	 ================> DF-SCS-MP2 Energies <==================
	-----------------------------------------------------------
	 SCS Same-Spin Scale       =       0.3333333333333333 [-]
	 SCS Opposite-Spin Scale   =       1.2000000000000000 [-]
	 SCS Same-Spin Energy      =      -0.1745642973048045 [Eh]
	 SCS Opposite-Spin Energy  =      -1.9545832789163704 [Eh]
	 SCS Correlation Energy    =      -2.1291475762211749 [Eh]
	 SCS Total Energy          =    -498.6929159044379958 [Eh]
	-----------------------------------------------------------

  Dipole Moment: [D]
     X:     0.5488      Y:    -0.1236      Z:    -1.2127     Total:     1.3368

*** Psi4 exiting successfully. Buy a developer a beer!
