                               Psi4 1.4a3.dev225

  ==> Input File <==

--------------------------------------------------------------------------
#psi4
#
memory 32 gb

molecule  {
0 1
  O        3.4036770    -0.5312700    -0.1399000
  O        1.8951010     0.2455770     1.3601080
  C       -0.2772440    -0.3351030    -0.4349210
  C       -0.8873890     0.9145300    -0.2106810
  C        1.1586640    -0.4340120    -0.8715550
  C       -1.0136460    -1.5104990    -0.2499190
  C       -2.2266560     0.9408910     0.1955810
  C       -0.1273370     2.2020410    -0.3962590
  C       -2.3465050    -1.4683140     0.1589870
  C       -2.9558630    -0.2342200     0.3827420
  C        2.1430500    -0.1948310     0.2522150
  H        1.3959000     0.2860400    -1.6653130
  H        1.3705120    -1.4228390    -1.2930960
  H       -0.5342380    -2.4720800    -0.4282290
  H       -2.6972602     1.8850423     0.3667193
  H        0.7120030     2.2634110     0.3019610
  H        0.2711870     2.2951320    -1.4130380
  H       -0.7808240     3.0602230    -0.2184200
  H       -2.9035660    -2.3916010     0.2984300
  H       -3.9950070    -0.1842490     0.6994320
  H        3.9774380    -0.3341110     0.6295290
units angstrom
no_reorient  #important for SAPT in psi4, default
symmetry c1  #important for SAPT in psi4, default
}

set PROPERTIES_ORIGIN ["COM"]
properties('MP2/aug-cc-pvtz', properties = ['dipole'])
--------------------------------------------------------------------------

    Molecular point group: c1
  Charge       = 0
  Multiplicity = 1
  Basis Set: AUG-CC-PVTZ
    Blend: AUG-CC-PVTZ
  Basis Set: (AUG-CC-PVTZ AUX)
    Blend: AUG-CC-PVTZ-JKFIT

    Orbital Energies [Eh]
    ---------------------

    Doubly Occupied:

       1A    -20.618841     2A    -20.554842     3A    -11.394623
       4A    -11.258560     5A    -11.244415     6A    -11.243229
       7A    -11.236589     8A    -11.234584     9A    -11.232260
      10A    -11.228792    11A    -11.222878    12A     -1.462848
      13A     -1.360285    14A     -1.160782    15A     -1.070683
      16A     -1.041834    17A     -0.982095    18A     -0.930463
      19A     -0.841011    20A     -0.813136    21A     -0.778193
      22A     -0.708927    23A     -0.689222    24A     -0.678902
      25A     -0.666985    26A     -0.628041    27A     -0.627347
      28A     -0.596356    29A     -0.578371    30A     -0.568456
      31A     -0.564779    32A     -0.548793    33A     -0.541202
      34A     -0.491354    35A     -0.487471    36A     -0.483934
      37A     -0.481408    38A     -0.457781    39A     -0.333403
      40A     -0.323308

  @DF-RHF Final Energy:  -496.56457284233437

   => Energetics <=

    Nuclear Repulsion Energy =            583.6376555567079549
    One-Electron Energy =               -1833.6704956004696214
    Two-Electron Energy =                 753.4682672014271247
    Total Energy =                       -496.5645728423344281
  Basis Set: (AUG-CC-PVTZ AUX)
    Blend: AUG-CC-PVTZ-RI
    Molecular point group: c1

    Geometry (in Angstrom), charge = 0, multiplicity = 1:

       Center              X                  Y                   Z               Mass
    ------------   -----------------  -----------------  -----------------  -----------------
         O            3.382689054144    -0.511308970459    -0.157812391196    15.994914619570
         O            1.874113054144     0.265538029541     1.342195608804    15.994914619570
         C           -0.298231945856    -0.315141970459    -0.452833391196    12.000000000000
         C           -0.908376945856     0.934491029541    -0.228593391196    12.000000000000
         C            1.137676054144    -0.414050970459    -0.889467391196    12.000000000000
         C           -1.034633945856    -1.490537970459    -0.267831391196    12.000000000000
         C           -2.247643945856     0.960852029541     0.177668608804    12.000000000000
         C           -0.148324945856     2.222002029541    -0.414171391196    12.000000000000
         C           -2.367492945856    -1.448352970459     0.141074608804    12.000000000000
         C           -2.976850945856    -0.214258970459     0.364829608804    12.000000000000
         C            2.122062054144    -0.174869970459     0.234302608804    12.000000000000
         H            1.374912054144     0.306001029541    -1.683225391196     1.007825032230
         H            1.349524054144    -1.402877970459    -1.311008391196     1.007825032230
         H           -0.555225945856    -2.452118970459    -0.446141391196     1.007825032230
         H           -2.718248145856     1.905003329541     0.348806908804     1.007825032230
         H            0.691015054144     2.283372029541     0.284048608804     1.007825032230
         H            0.250199054144     2.315093029541    -1.430950391196     1.007825032230
         H           -0.801811945856     3.080184029541    -0.236332391196     1.007825032230
         H           -2.924553945856    -2.371639970459     0.280517608804     1.007825032230
         H           -4.015994945856    -0.164287970459     0.681519608804     1.007825032230
         H            3.956450054144    -0.314149970459     0.611616608804     1.007825032230

  Basis Set: AUG-CC-PVTZ
    Blend: AUG-CC-PVTZ
  Basis Set: (AUG-CC-PVTZ AUX)
    Blend: AUG-CC-PVTZ-JKFIT
	 Reference Energy          =    -496.5645728423343712 [Eh]
	 Singles Energy            =      -0.0000000000000000 [Eh]
	 Same-Spin Energy          =      -0.5236004468154172 [Eh]
	 Opposite-Spin Energy      =      -1.6285145185458219 [Eh]
	 Correlation Energy        =      -2.1521149653612390 [Eh]
	 Total Energy              =    -498.7166878076956209 [Eh]

	 ================> DF-SCS-MP2 Energies <==================
	-----------------------------------------------------------
	 SCS Same-Spin Scale       =       0.3333333333333333 [-]
	 SCS Opposite-Spin Scale   =       1.2000000000000000 [-]
	 SCS Same-Spin Energy      =      -0.1745334822718057 [Eh]
	 SCS Opposite-Spin Energy  =      -1.9542174222549862 [Eh]
	 SCS Correlation Energy    =      -2.1287509045267918 [Eh]
	 SCS Total Energy          =    -498.6933237468611537 [Eh]
	-----------------------------------------------------------

  Dipole Moment: [D]
     X:     0.5399      Y:    -0.1074      Z:    -1.2105     Total:     1.3297

*** Psi4 exiting successfully. Buy a developer a beer!
