                               Psi4 1.4a3.dev225

  ==> Input File <==

--------------------------------------------------------------------------
#psi4
#
memory 32 gb

molecule  {
0 1
  O        3.4036770    -0.5312700    -0.1399000
  O        1.8951010     0.2455770     1.3601080
  C       -0.2772440    -0.3351030    -0.4349210
  C       -0.8873890     0.9145300    -0.2106810
  C        1.1586640    -0.4340120    -0.8715550
  C       -1.0136460    -1.5104990    -0.2499190
  C       -2.2266560     0.9408910     0.1955810
  C       -0.1273370     2.2020410    -0.3962590
  C       -2.3465050    -1.4683140     0.1589870
  C       -2.9558630    -0.2342200     0.3827420
  C        2.1430500    -0.1948310     0.2522150
  H        1.4391267     0.4172404    -1.8099433
  H        1.3705120    -1.4228390    -1.2930960
  H       -0.5342380    -2.4720800    -0.4282290
  H       -2.7060670     1.9027110     0.3699220
  H        0.7120030     2.2634110     0.3019610
  H        0.2711870     2.2951320    -1.4130380
  H       -0.7808240     3.0602230    -0.2184200
  H       -2.9035660    -2.3916010     0.2984300
  H       -3.9950070    -0.1842490     0.6994320
  H        3.9774380    -0.3341110     0.6295290
units angstrom
no_reorient  #important for SAPT in psi4, default
symmetry c1  #important for SAPT in psi4, default
}

set PROPERTIES_ORIGIN ["COM"]
properties('MP2/aug-cc-pvtz', properties = ['dipole'])
--------------------------------------------------------------------------

    Molecular point group: c1
  Charge       = 0
  Multiplicity = 1
  Basis Set: AUG-CC-PVTZ
    Blend: AUG-CC-PVTZ
  Basis Set: (AUG-CC-PVTZ AUX)
    Blend: AUG-CC-PVTZ-JKFIT

    Orbital Energies [Eh]
    ---------------------

    Doubly Occupied:

       1A    -20.618391     2A    -20.555581     3A    -11.395977
       4A    -11.279047     5A    -11.245973     6A    -11.244351
       7A    -11.238102     8A    -11.235672     9A    -11.233218
      10A    -11.231623    11A    -11.222367    12A     -1.462797
      13A     -1.360604    14A     -1.160954    15A     -1.066127
      16A     -1.041720    17A     -0.978357    18A     -0.930045
      19A     -0.840259    20A     -0.812708    21A     -0.773661
      22A     -0.708843    23A     -0.689160    24A     -0.674920
      25A     -0.657686    26A     -0.627940    27A     -0.625749
      28A     -0.594881    29A     -0.576358    30A     -0.568317
      31A     -0.565689    32A     -0.540730    33A     -0.529114
      34A     -0.491613    35A     -0.487668    36A     -0.482380
      37A     -0.478474    38A     -0.457739    39A     -0.333985
      40A     -0.323860

  @DF-RHF Final Energy:  -496.54384219826591

   => Energetics <=

    Nuclear Repulsion Energy =            582.5980108533643715
    One-Electron Energy =               -1831.5984228658705888
    Two-Electron Energy =                 752.4565698142404244
    Total Energy =                       -496.5438421982659065
  Basis Set: (AUG-CC-PVTZ AUX)
    Blend: AUG-CC-PVTZ-RI
    Molecular point group: c1

    Geometry (in Angstrom), charge = 0, multiplicity = 1:

       Center              X                  Y                   Z               Mass
    ------------   -----------------  -----------------  -----------------  -----------------
         O            3.382457897479    -0.512308743402    -0.156862593771    15.994914619570
         O            1.873881897479     0.264538256598     1.343145406229    15.994914619570
         C           -0.298463102521    -0.316141743402    -0.451883593771    12.000000000000
         C           -0.908608102521     0.933491256598    -0.227643593771    12.000000000000
         C            1.137444897479    -0.415050743402    -0.888517593771    12.000000000000
         C           -1.034865102521    -1.491537743402    -0.266881593771    12.000000000000
         C           -2.247875102521     0.959852256598     0.178618406229    12.000000000000
         C           -0.148556102521     2.221002256598    -0.413221593771    12.000000000000
         C           -2.367724102521    -1.449352743402     0.142024406229    12.000000000000
         C           -2.977082102521    -0.215258743402     0.365779406229    12.000000000000
         C            2.121830897479    -0.175869743402     0.235252406229    12.000000000000
         H            1.417907597479     0.436201656598    -1.826905893771     1.007825032230
         H            1.349292897479    -1.403877743402    -1.310058593771     1.007825032230
         H           -0.555457102521    -2.453118743402    -0.445191593771     1.007825032230
         H           -2.727286102521     1.921672256598     0.352959406229     1.007825032230
         H            0.690783897479     2.282372256598     0.284998406229     1.007825032230
         H            0.249967897479     2.314093256598    -1.430000593771     1.007825032230
         H           -0.802043102521     3.079184256598    -0.235382593771     1.007825032230
         H           -2.924785102521    -2.372639743402     0.281467406229     1.007825032230
         H           -4.016226102521    -0.165287743402     0.682469406229     1.007825032230
         H            3.956218897479    -0.315149743402     0.612566406229     1.007825032230

  Basis Set: AUG-CC-PVTZ
    Blend: AUG-CC-PVTZ
  Basis Set: (AUG-CC-PVTZ AUX)
    Blend: AUG-CC-PVTZ-JKFIT
	 Reference Energy          =    -496.5438421982659065 [Eh]
	 Singles Energy            =      -0.0000000000000000 [Eh]
	 Same-Spin Energy          =      -0.5240992866525928 [Eh]
	 Opposite-Spin Energy      =      -1.6306498313821505 [Eh]
	 Correlation Energy        =      -2.1547491180347431 [Eh]
	 Total Energy              =    -498.6985913163006217 [Eh]

	 ================> DF-SCS-MP2 Energies <==================
	-----------------------------------------------------------
	 SCS Same-Spin Scale       =       0.3333333333333333 [-]
	 SCS Opposite-Spin Scale   =       1.2000000000000000 [-]
	 SCS Same-Spin Energy      =      -0.1746997622175309 [Eh]
	 SCS Opposite-Spin Energy  =      -1.9567797976585806 [Eh]
	 SCS Correlation Energy    =      -2.1314795598761114 [Eh]
	 SCS Total Energy          =    -498.6753217581419904 [Eh]
	-----------------------------------------------------------

  Dipole Moment: [D]
     X:     0.4741      Y:    -0.1305      Z:    -1.1630     Total:     1.2627

*** Psi4 exiting successfully. Buy a developer a beer!
