                               Psi4 1.4a3.dev225

  ==> Input File <==

--------------------------------------------------------------------------
#psi4
#
memory 32 gb

molecule  {
0 1
  O        3.4036770    -0.5312700    -0.1399000
  O        1.8951010     0.2455770     1.3601080
  C       -0.2772440    -0.3351030    -0.4349210
  C       -0.8873890     0.9145300    -0.2106810
  C        1.1586640    -0.4340120    -0.8715550
  C       -1.0136460    -1.5104990    -0.2499190
  C       -2.2266560     0.9408910     0.1955810
  C       -0.1273370     2.2020410    -0.3962590
  C       -2.3465050    -1.4683140     0.1589870
  C       -2.9558630    -0.2342200     0.3827420
  C        2.1430500    -0.1948310     0.2522150
  H        1.3959000     0.2860400    -1.6653130
  H        1.3511759    -1.3325852    -1.2546204
  H       -0.5342380    -2.4720800    -0.4282290
  H       -2.7060670     1.9027110     0.3699220
  H        0.7120030     2.2634110     0.3019610
  H        0.2711870     2.2951320    -1.4130380
  H       -0.7808240     3.0602230    -0.2184200
  H       -2.9035660    -2.3916010     0.2984300
  H       -3.9950070    -0.1842490     0.6994320
  H        3.9774380    -0.3341110     0.6295290
units angstrom
no_reorient  #important for SAPT in psi4, default
symmetry c1  #important for SAPT in psi4, default
}

set PROPERTIES_ORIGIN ["COM"]
properties('MP2/aug-cc-pvtz', properties = ['dipole'])
--------------------------------------------------------------------------

    Molecular point group: c1
  Charge       = 0
  Multiplicity = 1
  Basis Set: AUG-CC-PVTZ
    Blend: AUG-CC-PVTZ
  Basis Set: (AUG-CC-PVTZ AUX)
    Blend: AUG-CC-PVTZ-JKFIT

    Orbital Energies [Eh]
    ---------------------

    Doubly Occupied:

       1A    -20.619282     2A    -20.554563     3A    -11.394197
       4A    -11.247169     5A    -11.244098     6A    -11.242939
       7A    -11.236685     8A    -11.234658     9A    -11.232391
      10A    -11.230916    11A    -11.222527    12A     -1.463057
      13A     -1.360240    14A     -1.161231    15A     -1.075238
      16A     -1.042155    17A     -0.984608    18A     -0.930246
      19A     -0.841036    20A     -0.814253    21A     -0.780332
      22A     -0.709805    23A     -0.692907    24A     -0.679689
      25A     -0.670292    26A     -0.627970    27A     -0.626727
      28A     -0.596369    29A     -0.578093    30A     -0.572393
      31A     -0.565856    32A     -0.554767    33A     -0.540281
      34A     -0.491334    35A     -0.486866    36A     -0.483791
      37A     -0.481555    38A     -0.458067    39A     -0.333473
      40A     -0.323185

  @DF-RHF Final Energy:  -496.55890125789136

   => Energetics <=

    Nuclear Repulsion Energy =            584.0903911835547433
    One-Electron Energy =               -1834.5281034155916586
    Two-Electron Energy =                 753.8788109741457220
    Total Energy =                       -496.5589012578913071
  Basis Set: (AUG-CC-PVTZ AUX)
    Blend: AUG-CC-PVTZ-RI
    Molecular point group: c1

    Geometry (in Angstrom), charge = 0, multiplicity = 1:

       Center              X                  Y                   Z               Mass
    ------------   -----------------  -----------------  -----------------  -----------------
         O            3.382878055824    -0.512033754819    -0.158092293718    15.994914619570
         O            1.874302055824     0.264813245181     1.341915706282    15.994914619570
         C           -0.298042944176    -0.315866754819    -0.453113293718    12.000000000000
         C           -0.908187944176     0.933766245181    -0.228873293718    12.000000000000
         C            1.137865055824    -0.414775754819    -0.889747293718    12.000000000000
         C           -1.034444944176    -1.491262754819    -0.268111293718    12.000000000000
         C           -2.247454944176     0.960127245181     0.177388706282    12.000000000000
         C           -0.148135944176     2.221277245181    -0.414451293718    12.000000000000
         C           -2.367303944176    -1.449077754819     0.140794706282    12.000000000000
         C           -2.976661944176    -0.214983754819     0.364549706282    12.000000000000
         C            2.122251055824    -0.175594754819     0.234022706282    12.000000000000
         H            1.375101055824     0.305276245181    -1.683505293718     1.007825032230
         H            1.330376955824    -1.313348954819    -1.272812693718     1.007825032230
         H           -0.555036944176    -2.452843754819    -0.446421293718     1.007825032230
         H           -2.726865944176     1.921947245181     0.351729706282     1.007825032230
         H            0.691204055824     2.282647245181     0.283768706282     1.007825032230
         H            0.250388055824     2.314368245181    -1.431230293718     1.007825032230
         H           -0.801622944176     3.079459245181    -0.236612293718     1.007825032230
         H           -2.924364944176    -2.372364754819     0.280237706282     1.007825032230
         H           -4.015805944176    -0.165012754819     0.681239706282     1.007825032230
         H            3.956639055824    -0.314874754819     0.611336706282     1.007825032230

  Basis Set: AUG-CC-PVTZ
    Blend: AUG-CC-PVTZ
  Basis Set: (AUG-CC-PVTZ AUX)
    Blend: AUG-CC-PVTZ-JKFIT
	 Reference Energy          =    -496.5589012578913639 [Eh]
	 Singles Energy            =      -0.0000000000000000 [Eh]
	 Same-Spin Energy          =      -0.5234972271459570 [Eh]
	 Opposite-Spin Energy      =      -1.6279784461537359 [Eh]
	 Correlation Energy        =      -2.1514756732996929 [Eh]
	 Total Energy              =    -498.7103769311910355 [Eh]

	 ================> DF-SCS-MP2 Energies <==================
	-----------------------------------------------------------
	 SCS Same-Spin Scale       =       0.3333333333333333 [-]
	 SCS Opposite-Spin Scale   =       1.2000000000000000 [-]
	 SCS Same-Spin Energy      =      -0.1744990757153190 [Eh]
	 SCS Opposite-Spin Energy  =      -1.9535741353844829 [Eh]
	 SCS Correlation Energy    =      -2.1280732110998017 [Eh]
	 SCS Total Energy          =    -498.6869744689911386 [Eh]
	-----------------------------------------------------------

  Dipole Moment: [D]
     X:     0.5637      Y:    -0.1250      Z:    -1.2217     Total:     1.3513

*** Psi4 exiting successfully. Buy a developer a beer!
