                               Psi4 1.4a3.dev225

  ==> Input File <==

--------------------------------------------------------------------------
#psi4
#
memory 32 gb

molecule  {
0 1
  O        3.4036770    -0.5312700    -0.1399000
  O        1.8951010     0.2455770     1.3601080
  C       -0.2772440    -0.3351030    -0.4349210
  C       -0.8873890     0.9145300    -0.2106810
  C        1.1586640    -0.4340120    -0.8715550
  C       -1.0136460    -1.5104990    -0.2499190
  C       -2.2266560     0.9408910     0.1955810
  C       -0.1273370     2.2020410    -0.3962590
  C       -2.3465050    -1.4683140     0.1589870
  C       -2.9558630    -0.2342200     0.3827420
  C        2.1430500    -0.1948310     0.2522150
  H        1.4175133     0.3516402    -1.7376281
  H        1.3705120    -1.4228390    -1.2930960
  H       -0.5342380    -2.4720800    -0.4282290
  H       -2.7060670     1.9027110     0.3699220
  H        0.7120030     2.2634110     0.3019610
  H        0.2711870     2.2951320    -1.4130380
  H       -0.7808240     3.0602230    -0.2184200
  H       -2.9035660    -2.3916010     0.2984300
  H       -3.9950070    -0.1842490     0.6994320
  H        3.9774380    -0.3341110     0.6295290
units angstrom
no_reorient  #important for SAPT in psi4, default
symmetry c1  #important for SAPT in psi4, default
}

set PROPERTIES_ORIGIN ["COM"]
properties('MP2/aug-cc-pvtz', properties = ['dipole'])
--------------------------------------------------------------------------

    Molecular point group: c1
  Charge       = 0
  Multiplicity = 1
  Basis Set: AUG-CC-PVTZ
    Blend: AUG-CC-PVTZ
  Basis Set: (AUG-CC-PVTZ AUX)
    Blend: AUG-CC-PVTZ-JKFIT

    Orbital Energies [Eh]
    ---------------------

    Doubly Occupied:

       1A    -20.618594     2A    -20.555146     3A    -11.395238
       4A    -11.269321     5A    -11.245187     6A    -11.243843
       7A    -11.237307     8A    -11.235177     9A    -11.232775
      10A    -11.231338    11A    -11.222627    12A     -1.462789
      13A     -1.360406    14A     -1.160749    15A     -1.067798
      16A     -1.041605    17A     -0.979738    18A     -0.930149
      19A     -0.840364    20A     -0.812353    21A     -0.775380
      22A     -0.708763    23A     -0.688895    24A     -0.675641
      25A     -0.662459    26A     -0.627870    27A     -0.625723
      28A     -0.595452    29A     -0.576863    30A     -0.568240
      31A     -0.565166    32A     -0.540764    33A     -0.539331
      34A     -0.491466    35A     -0.487198    36A     -0.482795
      37A     -0.480947    38A     -0.457838    39A     -0.333714
      40A     -0.323608

  @DF-RHF Final Energy:  -496.55758955490381

   => Energetics <=

    Nuclear Repulsion Energy =            583.0443682382319821
    One-Electron Energy =               -1832.5026862005097428
    Two-Electron Energy =                 752.9007284073738901
    Total Energy =                       -496.5575895549038705
  Basis Set: (AUG-CC-PVTZ AUX)
    Blend: AUG-CC-PVTZ-RI
    Molecular point group: c1

    Geometry (in Angstrom), charge = 0, multiplicity = 1:

       Center              X                  Y                   Z               Mass
    ------------   -----------------  -----------------  -----------------  -----------------
         O            3.382603048437    -0.511868186530    -0.157348247142    15.994914619570
         O            1.874027048437     0.264978813470     1.342659752858    15.994914619570
         C           -0.298317951563    -0.315701186530    -0.452369247142    12.000000000000
         C           -0.908462951563     0.933931813470    -0.228129247142    12.000000000000
         C            1.137590048437    -0.414610186530    -0.889003247142    12.000000000000
         C           -1.034719951563    -1.491097186530    -0.267367247142    12.000000000000
         C           -2.247729951563     0.960292813470     0.178132752858    12.000000000000
         C           -0.148410951563     2.221442813470    -0.413707247142    12.000000000000
         C           -2.367578951563    -1.448912186530     0.141538752858    12.000000000000
         C           -2.976936951563    -0.214818186530     0.365293752858    12.000000000000
         C            2.121976048437    -0.175429186530     0.234766752858    12.000000000000
         H            1.396439348437     0.371042013470    -1.755076347142     1.007825032230
         H            1.349438048437    -1.403437186530    -1.310544247142     1.007825032230
         H           -0.555311951563    -2.452678186530    -0.445677247142     1.007825032230
         H           -2.727140951563     1.922112813470     0.352473752858     1.007825032230
         H            0.690929048437     2.282812813470     0.284512752858     1.007825032230
         H            0.250113048437     2.314533813470    -1.430486247142     1.007825032230
         H           -0.801897951563     3.079624813470    -0.235868247142     1.007825032230
         H           -2.924639951563    -2.372199186530     0.280981752858     1.007825032230
         H           -4.016080951563    -0.164847186530     0.681983752858     1.007825032230
         H            3.956364048437    -0.314709186530     0.612080752858     1.007825032230

  Basis Set: AUG-CC-PVTZ
    Blend: AUG-CC-PVTZ
  Basis Set: (AUG-CC-PVTZ AUX)
    Blend: AUG-CC-PVTZ-JKFIT
	 Reference Energy          =    -496.5575895549038137 [Eh]
	 Singles Energy            =      -0.0000000000000000 [Eh]
	 Same-Spin Energy          =      -0.5238571748852690 [Eh]
	 Opposite-Spin Energy      =      -1.6295499472529120 [Eh]
	 Correlation Energy        =      -2.1534071221381810 [Eh]
	 Total Energy              =    -498.7109966770419760 [Eh]

	 ================> DF-SCS-MP2 Energies <==================
	-----------------------------------------------------------
	 SCS Same-Spin Scale       =       0.3333333333333333 [-]
	 SCS Opposite-Spin Scale   =       1.2000000000000000 [-]
	 SCS Same-Spin Energy      =      -0.1746190582950896 [Eh]
	 SCS Opposite-Spin Energy  =      -1.9554599367034944 [Eh]
	 SCS Correlation Energy    =      -2.1300789949985841 [Eh]
	 SCS Total Energy          =    -498.6876685499024120 [Eh]
	-----------------------------------------------------------

  Dipole Moment: [D]
     X:     0.5127      Y:    -0.1206      Z:    -1.1931     Total:     1.3042

*** Psi4 exiting successfully. Buy a developer a beer!
