                               Psi4 1.4a3.dev225

  ==> Input File <==

--------------------------------------------------------------------------
#psi4
#
memory 32 gb

molecule  {
0 1
  O        3.4036770    -0.5312700    -0.1399000
  O        1.8951010     0.2455770     1.3601080
  C       -0.2772440    -0.3351030    -0.4349210
  C       -0.8873890     0.9145300    -0.2106810
  C        0.9677293    -0.4208599    -0.8134952
  C       -1.0136460    -1.5104990    -0.2499190
  C       -2.2266560     0.9408910     0.1955810
  C       -0.1273370     2.2020410    -0.3962590
  C       -2.3465050    -1.4683140     0.1589870
  C       -2.9558630    -0.2342200     0.3827420
  C        2.1430500    -0.1948310     0.2522150
  H        1.3959000     0.2860400    -1.6653130
  H        1.3705120    -1.4228390    -1.2930960
  H       -0.5342380    -2.4720800    -0.4282290
  H       -2.7060670     1.9027110     0.3699220
  H        0.7120030     2.2634110     0.3019610
  H        0.2711870     2.2951320    -1.4130380
  H       -0.7808240     3.0602230    -0.2184200
  H       -2.9035660    -2.3916010     0.2984300
  H       -3.9950070    -0.1842490     0.6994320
  H        3.9774380    -0.3341110     0.6295290
units angstrom
no_reorient  #important for SAPT in psi4, default
symmetry c1  #important for SAPT in psi4, default
}

set PROPERTIES_ORIGIN ["COM"]
properties('MP2/aug-cc-pvtz', properties = ['dipole'])
--------------------------------------------------------------------------

    Molecular point group: c1
  Charge       = 0
  Multiplicity = 1
  Basis Set: AUG-CC-PVTZ
    Blend: AUG-CC-PVTZ
  Basis Set: (AUG-CC-PVTZ AUX)
    Blend: AUG-CC-PVTZ-JKFIT

    Orbital Energies [Eh]
    ---------------------

    Doubly Occupied:

       1A    -20.622827     2A    -20.548992     3A    -11.394977
       4A    -11.266707     5A    -11.247364     6A    -11.239758
       7A    -11.238454     8A    -11.233946     9A    -11.232771
      10A    -11.229151    11A    -11.223476    12A     -1.460918
      13A     -1.357968    14A     -1.177475    15A     -1.086508
      16A     -1.044841    17A     -0.968624    18A     -0.928818
      19A     -0.852765    20A     -0.817111    21A     -0.774674
      22A     -0.708022    23A     -0.694039    24A     -0.672920
      25A     -0.664497    26A     -0.644390    27A     -0.627040
      28A     -0.594192    29A     -0.590750    30A     -0.572841
      31A     -0.559568    32A     -0.544152    33A     -0.522749
      34A     -0.498362    35A     -0.492174    36A     -0.482670
      37A     -0.469692    38A     -0.443766    39A     -0.332768
      40A     -0.322643

  @DF-RHF Final Energy:  -496.51025268568628

   => Energetics <=

    Nuclear Repulsion Energy =            585.8206561319061620
    One-Electron Energy =               -1837.8911017832601829
    Two-Electron Energy =                 755.5601929656677385
    Total Energy =                       -496.5102526856862823
  Basis Set: (AUG-CC-PVTZ AUX)
    Blend: AUG-CC-PVTZ-RI
    Molecular point group: c1

    Geometry (in Angstrom), charge = 0, multiplicity = 1:

       Center              X                  Y                   Z               Mass
    ------------   -----------------  -----------------  -----------------  -----------------
         O            3.398016045202    -0.512479320334    -0.162476576699    15.994914619570
         O            1.889440045202     0.264367679666     1.337531423301    15.994914619570
         C           -0.282904954798    -0.316312320334    -0.457497576699    12.000000000000
         C           -0.893049954798     0.933320679666    -0.233257576699    12.000000000000
         C            0.962068345202    -0.402069220334    -0.836071776699    12.000000000000
         C           -1.019306954798    -1.491708320334    -0.272495576699    12.000000000000
         C           -2.232316954798     0.959681679666     0.173004423301    12.000000000000
         C           -0.132997954798     2.220831679666    -0.418835576699    12.000000000000
         C           -2.352165954798    -1.449523320334     0.136410423301    12.000000000000
         C           -2.961523954798    -0.215429320334     0.360165423301    12.000000000000
         C            2.137389045202    -0.176040320334     0.229638423301    12.000000000000
         H            1.390239045202     0.304830679666    -1.687889576699     1.007825032230
         H            1.364851045202    -1.404048320334    -1.315672576699     1.007825032230
         H           -0.539898954798    -2.453289320334    -0.450805576699     1.007825032230
         H           -2.711727954798     1.921501679666     0.347345423301     1.007825032230
         H            0.706342045202     2.282201679666     0.279384423301     1.007825032230
         H            0.265526045202     2.313922679666    -1.435614576699     1.007825032230
         H           -0.786484954798     3.079013679666    -0.240996576699     1.007825032230
         H           -2.909226954798    -2.372810320334     0.275853423301     1.007825032230
         H           -4.000667954798    -0.165458320334     0.676855423301     1.007825032230
         H            3.971777045202    -0.315320320334     0.606952423301     1.007825032230

  Basis Set: AUG-CC-PVTZ
    Blend: AUG-CC-PVTZ
  Basis Set: (AUG-CC-PVTZ AUX)
    Blend: AUG-CC-PVTZ-JKFIT
	 Reference Energy          =    -496.5102526856862823 [Eh]
	 Singles Energy            =      -0.0000000000000000 [Eh]
	 Same-Spin Energy          =      -0.5273712455501178 [Eh]
	 Opposite-Spin Energy      =      -1.6335546821339202 [Eh]
	 Correlation Energy        =      -2.1609259276840378 [Eh]
	 Total Energy              =    -498.6711786133703299 [Eh]

	 ================> DF-SCS-MP2 Energies <==================
	-----------------------------------------------------------
	 SCS Same-Spin Scale       =       0.3333333333333333 [-]
	 SCS Opposite-Spin Scale   =       1.2000000000000000 [-]
	 SCS Same-Spin Energy      =      -0.1757904151833726 [Eh]
	 SCS Opposite-Spin Energy  =      -1.9602656185607041 [Eh]
	 SCS Correlation Energy    =      -2.1360560337440768 [Eh]
	 SCS Total Energy          =    -498.6463087194303512 [Eh]
	-----------------------------------------------------------

  Dipole Moment: [D]
     X:     0.3692      Y:    -0.1045      Z:    -1.1235     Total:     1.1872

*** Psi4 exiting successfully. Buy a developer a beer!
