                               Psi4 1.4a3.dev225

  ==> Input File <==

--------------------------------------------------------------------------
#psi4
#
memory 32 gb

molecule  {
0 1
  O        3.4036770    -0.5312700    -0.1399000
  O        1.8951010     0.2455770     1.3601080
  C       -0.2772440    -0.3351030    -0.4349210
  C       -0.8873890     0.9145300    -0.2106810
  C        1.1586640    -0.4340120    -0.8715550
  C       -1.0136460    -1.5104990    -0.2499190
  C       -2.2266560     0.9408910     0.1955810
  C       -0.1273370     2.2020410    -0.3962590
  C       -2.3453732    -1.4440009     0.1594433
  C       -2.9558630    -0.2342200     0.3827420
  C        2.1430500    -0.1948310     0.2522150
  H        1.3959000     0.2860400    -1.6653130
  H        1.3705120    -1.4228390    -1.2930960
  H       -0.5342380    -2.4720800    -0.4282290
  H       -2.7060670     1.9027110     0.3699220
  H        0.7120030     2.2634110     0.3019610
  H        0.2711870     2.2951320    -1.4130380
  H       -0.7808240     3.0602230    -0.2184200
  H       -2.9035660    -2.3916010     0.2984300
  H       -3.9950070    -0.1842490     0.6994320
  H        3.9774380    -0.3341110     0.6295290
units angstrom
no_reorient  #important for SAPT in psi4, default
symmetry c1  #important for SAPT in psi4, default
}

set PROPERTIES_ORIGIN ["COM"]
properties('MP2/aug-cc-pvtz', properties = ['dipole'])
--------------------------------------------------------------------------

    Molecular point group: c1
  Charge       = 0
  Multiplicity = 1
  Basis Set: AUG-CC-PVTZ
    Blend: AUG-CC-PVTZ
  Basis Set: (AUG-CC-PVTZ AUX)
    Blend: AUG-CC-PVTZ-JKFIT

    Orbital Energies [Eh]
    ---------------------

    Doubly Occupied:

       1A    -20.618937     2A    -20.554955     3A    -11.394765
       4A    -11.258637     5A    -11.244591     6A    -11.243083
       7A    -11.236447     8A    -11.232782     9A    -11.231641
      10A    -11.230771    11A    -11.222676    12A     -1.462953
      13A     -1.360396    14A     -1.162306    15A     -1.072389
      16A     -1.041530    17A     -0.982678    18A     -0.929931
      19A     -0.841696    20A     -0.812541    21A     -0.776526
      22A     -0.708832    23A     -0.688989    24A     -0.678472
      25A     -0.667704    26A     -0.628517    27A     -0.624565
      28A     -0.596415    29A     -0.577493    30A     -0.568536
      31A     -0.563077    32A     -0.549254    33A     -0.540863
      34A     -0.492595    35A     -0.488961    36A     -0.482038
      37A     -0.480534    38A     -0.457985    39A     -0.333397
      40A     -0.324914

  @DF-RHF Final Energy:  -496.56382177576955

   => Energetics <=

    Nuclear Repulsion Energy =            583.9280668167674548
    One-Electron Energy =               -1834.2530282031750630
    Two-Electron Energy =                 753.7611396106381108
    Total Energy =                       -496.5638217757696111
  Basis Set: (AUG-CC-PVTZ AUX)
    Blend: AUG-CC-PVTZ-RI
    Molecular point group: c1

    Geometry (in Angstrom), charge = 0, multiplicity = 1:

       Center              X                  Y                   Z               Mass
    ------------   -----------------  -----------------  -----------------  -----------------
         O            3.382657695800    -0.513371795272    -0.157870387282    15.994914619570
         O            1.874081695800     0.263475204728     1.342137612718    15.994914619570
         C           -0.298263304200    -0.317204795272    -0.452891387282    12.000000000000
         C           -0.908408304200     0.932428204728    -0.228651387282    12.000000000000
         C            1.137644695800    -0.416113795272    -0.889525387282    12.000000000000
         C           -1.034665304200    -1.492600795272    -0.267889387282    12.000000000000
         C           -2.247675304200     0.958789204728     0.177610612718    12.000000000000
         C           -0.148356304200     2.219939204728    -0.414229387282    12.000000000000
         C           -2.366392504200    -1.426102695272     0.141472912718    12.000000000000
         C           -2.976882304200    -0.216321795272     0.364771612718    12.000000000000
         C            2.122030695800    -0.176932795272     0.234244612718    12.000000000000
         H            1.374880695800     0.303938204728    -1.683283387282     1.007825032230
         H            1.349492695800    -1.404940795272    -1.311066387282     1.007825032230
         H           -0.555257304200    -2.454181795272    -0.446199387282     1.007825032230
         H           -2.727086304200     1.920609204728     0.351951612718     1.007825032230
         H            0.690983695800     2.281309204728     0.283990612718     1.007825032230
         H            0.250167695800     2.313030204728    -1.431008387282     1.007825032230
         H           -0.801843304200     3.078121204728    -0.236390387282     1.007825032230
         H           -2.924585304200    -2.373702795272     0.280459612718     1.007825032230
         H           -4.016026304200    -0.166350795272     0.681461612718     1.007825032230
         H            3.956418695800    -0.316212795272     0.611558612718     1.007825032230

  Basis Set: AUG-CC-PVTZ
    Blend: AUG-CC-PVTZ
  Basis Set: (AUG-CC-PVTZ AUX)
    Blend: AUG-CC-PVTZ-JKFIT
	 Reference Energy          =    -496.5638217757695543 [Eh]
	 Singles Energy            =      -0.0000000000000000 [Eh]
	 Same-Spin Energy          =      -0.5236555348497109 [Eh]
	 Opposite-Spin Energy      =      -1.6285570162354293 [Eh]
	 Correlation Energy        =      -2.1522125510851402 [Eh]
	 Total Energy              =    -498.7160343268546967 [Eh]

	 ================> DF-SCS-MP2 Energies <==================
	-----------------------------------------------------------
	 SCS Same-Spin Scale       =       0.3333333333333333 [-]
	 SCS Opposite-Spin Scale   =       1.2000000000000000 [-]
	 SCS Same-Spin Energy      =      -0.1745518449499036 [Eh]
	 SCS Opposite-Spin Energy  =      -1.9542684194825151 [Eh]
	 SCS Correlation Energy    =      -2.1288202644324188 [Eh]
	 SCS Total Energy          =    -498.6926420402019744 [Eh]
	-----------------------------------------------------------

  Dipole Moment: [D]
     X:     0.5489      Y:    -0.1094      Z:    -1.2132     Total:     1.3361

*** Psi4 exiting successfully. Buy a developer a beer!
