                               Psi4 1.4a3.dev225

  ==> Input File <==

--------------------------------------------------------------------------
#psi4
#
memory 32 gb

molecule  {
0 1
  O        3.4036770    -0.5312700    -0.1399000
  O        1.8951010     0.2455770     1.3601080
  C       -0.2772440    -0.3351030    -0.4349210
  C       -0.9089907     0.9283785    -0.2049374
  C        1.1586640    -0.4340120    -0.8715550
  C       -1.0136460    -1.5104990    -0.2499190
  C       -2.2266560     0.9408910     0.1955810
  C       -0.1273370     2.2020410    -0.3962590
  C       -2.3465050    -1.4683140     0.1589870
  C       -2.9558630    -0.2342200     0.3827420
  C        2.1430500    -0.1948310     0.2522150
  H        1.3959000     0.2860400    -1.6653130
  H        1.3705120    -1.4228390    -1.2930960
  H       -0.5342380    -2.4720800    -0.4282290
  H       -2.7060670     1.9027110     0.3699220
  H        0.7120030     2.2634110     0.3019610
  H        0.2711870     2.2951320    -1.4130380
  H       -0.7808240     3.0602230    -0.2184200
  H       -2.9035660    -2.3916010     0.2984300
  H       -3.9950070    -0.1842490     0.6994320
  H        3.9774380    -0.3341110     0.6295290
units angstrom
no_reorient  #important for SAPT in psi4, default
symmetry c1  #important for SAPT in psi4, default
}

set PROPERTIES_ORIGIN ["COM"]
properties('MP2/aug-cc-pvtz', properties = ['dipole'])
--------------------------------------------------------------------------

    Molecular point group: c1
  Charge       = 0
  Multiplicity = 1
  Basis Set: AUG-CC-PVTZ
    Blend: AUG-CC-PVTZ
  Basis Set: (AUG-CC-PVTZ AUX)
    Blend: AUG-CC-PVTZ-JKFIT

    Orbital Energies [Eh]
    ---------------------

    Doubly Occupied:

       1A    -20.618987     2A    -20.554945     3A    -11.394790
       4A    -11.259160     5A    -11.246527     6A    -11.243577
       7A    -11.236465     8A    -11.234858     9A    -11.232398
      10A    -11.228654    11A    -11.222787    12A     -1.462980
      13A     -1.360395    14A     -1.160275    15A     -1.070423
      16A     -1.043374    17A     -0.981546    18A     -0.930350
      19A     -0.841785    20A     -0.808778    21A     -0.780027
      22A     -0.708934    23A     -0.689365    24A     -0.678686
      25A     -0.666582    26A     -0.628015    27A     -0.625465
      28A     -0.596240    29A     -0.578935    30A     -0.568890
      31A     -0.563871    32A     -0.549724    33A     -0.539849
      34A     -0.491982    35A     -0.488650    36A     -0.482473
      37A     -0.480001    38A     -0.457958    39A     -0.335541
      40A     -0.321775

  @DF-RHF Final Energy:  -496.56364327109395

   => Energetics <=

    Nuclear Repulsion Energy =            583.3466005277620070
    One-Electron Energy =               -1833.0884560784722908
    Two-Electron Energy =                 753.1782122796162184
    Total Energy =                       -496.5636432710939516
  Basis Set: (AUG-CC-PVTZ AUX)
    Blend: AUG-CC-PVTZ-RI
    Molecular point group: c1

    Geometry (in Angstrom), charge = 0, multiplicity = 1:

       Center              X                  Y                   Z               Mass
    ------------   -----------------  -----------------  -----------------  -----------------
         O            3.384475550742    -0.512535007060    -0.158293179392    15.994914619570
         O            1.875899550742     0.264311992940     1.341714820608    15.994914619570
         C           -0.296445449258    -0.316368007060    -0.453314179392    12.000000000000
         C           -0.928192149258     0.947113492940    -0.223330579392    12.000000000000
         C            1.139462550742    -0.415277007060    -0.889948179392    12.000000000000
         C           -1.032847449258    -1.491764007060    -0.268312179392    12.000000000000
         C           -2.245857449258     0.959625992940     0.177187820608    12.000000000000
         C           -0.146538449258     2.220775992940    -0.414652179392    12.000000000000
         C           -2.365706449258    -1.449579007060     0.140593820608    12.000000000000
         C           -2.975064449258    -0.215485007060     0.364348820608    12.000000000000
         C            2.123848550742    -0.176096007060     0.233821820608    12.000000000000
         H            1.376698550742     0.304774992940    -1.683706179392     1.007825032230
         H            1.351310550742    -1.404104007060    -1.311489179392     1.007825032230
         H           -0.553439449258    -2.453345007060    -0.446622179392     1.007825032230
         H           -2.725268449258     1.921445992940     0.351528820608     1.007825032230
         H            0.692801550742     2.282145992940     0.283567820608     1.007825032230
         H            0.251985550742     2.313866992940    -1.431431179392     1.007825032230
         H           -0.800025449258     3.078957992940    -0.236813179392     1.007825032230
         H           -2.922767449258    -2.372866007060     0.280036820608     1.007825032230
         H           -4.014208449258    -0.165514007060     0.681038820608     1.007825032230
         H            3.958236550742    -0.315376007060     0.611135820608     1.007825032230

  Basis Set: AUG-CC-PVTZ
    Blend: AUG-CC-PVTZ
  Basis Set: (AUG-CC-PVTZ AUX)
    Blend: AUG-CC-PVTZ-JKFIT
	 Reference Energy          =    -496.5636432710939516 [Eh]
	 Singles Energy            =      -0.0000000000000000 [Eh]
	 Same-Spin Energy          =      -0.5235751024729809 [Eh]
	 Opposite-Spin Energy      =      -1.6286612403709342 [Eh]
	 Correlation Energy        =      -2.1522363428439153 [Eh]
	 Total Energy              =    -498.7158796139378865 [Eh]

	 ================> DF-SCS-MP2 Energies <==================
	-----------------------------------------------------------
	 SCS Same-Spin Scale       =       0.3333333333333333 [-]
	 SCS Opposite-Spin Scale   =       1.2000000000000000 [-]
	 SCS Same-Spin Energy      =      -0.1745250341576603 [Eh]
	 SCS Opposite-Spin Energy  =      -1.9543934884451208 [Eh]
	 SCS Correlation Energy    =      -2.1289185226027811 [Eh]
	 SCS Total Energy          =    -498.6925617936967114 [Eh]
	-----------------------------------------------------------

  Dipole Moment: [D]
     X:     0.5555      Y:    -0.1240      Z:    -1.2145     Total:     1.3412

*** Psi4 exiting successfully. Buy a developer a beer!
