                               Psi4 1.4a3.dev225

  ==> Input File <==

--------------------------------------------------------------------------
#psi4
#
memory 32 gb

molecule  {
0 1
  O        3.4036770    -0.5312700    -0.1399000
  O        1.8951010     0.2455770     1.3601080
  C       -0.2772440    -0.3351030    -0.4349210
  C       -0.8873890     0.9145300    -0.2106810
  C        1.1586640    -0.4340120    -0.8715550
  C       -1.0136460    -1.5104990    -0.2499190
  C       -2.2244917     0.9896912     0.1966113
  C       -0.1273370     2.2020410    -0.3962590
  C       -2.3465050    -1.4683140     0.1589870
  C       -2.9558630    -0.2342200     0.3827420
  C        2.1430500    -0.1948310     0.2522150
  H        1.3959000     0.2860400    -1.6653130
  H        1.3705120    -1.4228390    -1.2930960
  H       -0.5342380    -2.4720800    -0.4282290
  H       -2.7060670     1.9027110     0.3699220
  H        0.7120030     2.2634110     0.3019610
  H        0.2711870     2.2951320    -1.4130380
  H       -0.7808240     3.0602230    -0.2184200
  H       -2.9035660    -2.3916010     0.2984300
  H       -3.9950070    -0.1842490     0.6994320
  H        3.9774380    -0.3341110     0.6295290
units angstrom
no_reorient  #important for SAPT in psi4, default
symmetry c1  #important for SAPT in psi4, default
}

set PROPERTIES_ORIGIN ["COM"]
properties('MP2/aug-cc-pvtz', properties = ['dipole'])
--------------------------------------------------------------------------

    Molecular point group: c1
  Charge       = 0
  Multiplicity = 1
  Basis Set: AUG-CC-PVTZ
    Blend: AUG-CC-PVTZ
  Basis Set: (AUG-CC-PVTZ AUX)
    Blend: AUG-CC-PVTZ-JKFIT

    Orbital Energies [Eh]
    ---------------------

    Doubly Occupied:

       1A    -20.618847     2A    -20.554821     3A    -11.394584
       4A    -11.258992     5A    -11.245055     6A    -11.243921
       7A    -11.239371     8A    -11.237818     9A    -11.232582
      10A    -11.232027    11A    -11.221512    12A     -1.462843
      13A     -1.360268    14A     -1.158306    15A     -1.067925
      16A     -1.043158    17A     -0.978818    18A     -0.929423
      19A     -0.841935    20A     -0.813916    21A     -0.777212
      22A     -0.709061    23A     -0.688779    24A     -0.677540
      25A     -0.667026    26A     -0.633924    27A     -0.626192
      28A     -0.596209    29A     -0.577322    30A     -0.568245
      31A     -0.564428    32A     -0.548594    33A     -0.540955
      34A     -0.493770    35A     -0.489320    36A     -0.480586
      37A     -0.477797    38A     -0.457539    39A     -0.330373
      40A     -0.324136

  @DF-RHF Final Energy:  -496.56096112947176

   => Energetics <=

    Nuclear Repulsion Energy =            582.9242434957368459
    One-Electron Energy =               -1832.2401486490025491
    Two-Electron Energy =                 752.7549440237939962
    Total Energy =                       -496.5609611294717070
  Basis Set: (AUG-CC-PVTZ AUX)
    Blend: AUG-CC-PVTZ-RI
    Molecular point group: c1

    Geometry (in Angstrom), charge = 0, multiplicity = 1:

       Center              X                  Y                   Z               Mass
    ------------   -----------------  -----------------  -----------------  -----------------
         O            3.382575133272    -0.515329874571    -0.157916286450    15.994914619570
         O            1.873999133272     0.261517125429     1.342091713550    15.994914619570
         C           -0.298345866728    -0.319162874571    -0.452937286450    12.000000000000
         C           -0.908490866728     0.930470125429    -0.228697286450    12.000000000000
         C            1.137562133272    -0.418071874571    -0.889571286450    12.000000000000
         C           -1.034747866728    -1.494558874571    -0.267935286450    12.000000000000
         C           -2.245593566728     1.005631325429     0.178595013550    12.000000000000
         C           -0.148438866728     2.217981125429    -0.414275286450    12.000000000000
         C           -2.367606866728    -1.452373874571     0.140970713550    12.000000000000
         C           -2.976964866728    -0.218279874571     0.364725713550    12.000000000000
         C            2.121948133272    -0.178890874571     0.234198713550    12.000000000000
         H            1.374798133272     0.301980125429    -1.683329286450     1.007825032230
         H            1.349410133272    -1.406898874571    -1.311112286450     1.007825032230
         H           -0.555339866728    -2.456139874571    -0.446245286450     1.007825032230
         H           -2.727168866728     1.918651125429     0.351905713550     1.007825032230
         H            0.690901133272     2.279351125429     0.283944713550     1.007825032230
         H            0.250085133272     2.311072125429    -1.431054286450     1.007825032230
         H           -0.801925866728     3.076163125429    -0.236436286450     1.007825032230
         H           -2.924667866728    -2.375660874571     0.280413713550     1.007825032230
         H           -4.016108866728    -0.168308874571     0.681415713550     1.007825032230
         H            3.956336133272    -0.318170874571     0.611512713550     1.007825032230

  Basis Set: AUG-CC-PVTZ
    Blend: AUG-CC-PVTZ
  Basis Set: (AUG-CC-PVTZ AUX)
    Blend: AUG-CC-PVTZ-JKFIT
	 Reference Energy          =    -496.5609611294717638 [Eh]
	 Singles Energy            =      -0.0000000000000000 [Eh]
	 Same-Spin Energy          =      -0.5235563789604856 [Eh]
	 Opposite-Spin Energy      =      -1.6289922456756605 [Eh]
	 Correlation Energy        =      -2.1525486246361458 [Eh]
	 Total Energy              =    -498.7135097541079176 [Eh]

	 ================> DF-SCS-MP2 Energies <==================
	-----------------------------------------------------------
	 SCS Same-Spin Scale       =       0.3333333333333333 [-]
	 SCS Opposite-Spin Scale   =       1.2000000000000000 [-]
	 SCS Same-Spin Energy      =      -0.1745187929868285 [Eh]
	 SCS Opposite-Spin Energy  =      -1.9547906948107925 [Eh]
	 SCS Correlation Energy    =      -2.1293094877976211 [Eh]
	 SCS Total Energy          =    -498.6902706172693911 [Eh]
	-----------------------------------------------------------

  Dipole Moment: [D]
     X:     0.5359      Y:    -0.1187      Z:    -1.2074     Total:     1.3264

*** Psi4 exiting successfully. Buy a developer a beer!
