                               Psi4 1.4a3.dev225

  ==> Input File <==

--------------------------------------------------------------------------
#psi4
#
memory 32 gb

molecule  {
0 1
  O        3.4036770    -0.5312700    -0.1399000
  O        1.8951010     0.2455770     1.3601080
  C       -0.2772440    -0.3351030    -0.4349210
  C       -0.8873890     0.9145300    -0.2106810
  C        1.1586640    -0.4340120    -0.8715550
  C       -1.0136460    -1.5104990    -0.2499190
  C       -2.2266560     0.9408910     0.1955810
  C       -0.1273370     2.2020410    -0.3962590
  C       -2.3465050    -1.4683140     0.1589870
  C       -3.0687795    -0.1491974     0.4196196
  C        2.1430500    -0.1948310     0.2522150
  H        1.3959000     0.2860400    -1.6653130
  H        1.3705120    -1.4228390    -1.2930960
  H       -0.5342380    -2.4720800    -0.4282290
  H       -2.7060670     1.9027110     0.3699220
  H        0.7120030     2.2634110     0.3019610
  H        0.2711870     2.2951320    -1.4130380
  H       -0.7808240     3.0602230    -0.2184200
  H       -2.9035660    -2.3916010     0.2984300
  H       -3.9950070    -0.1842490     0.6994320
  H        3.9774380    -0.3341110     0.6295290
units angstrom
no_reorient  #important for SAPT in psi4, default
symmetry c1  #important for SAPT in psi4, default
}

set PROPERTIES_ORIGIN ["COM"]
properties('MP2/aug-cc-pvtz', properties = ['dipole'])
--------------------------------------------------------------------------

    Molecular point group: c1
  Charge       = 0
  Multiplicity = 1
  Basis Set: AUG-CC-PVTZ
    Blend: AUG-CC-PVTZ
  Basis Set: (AUG-CC-PVTZ AUX)
    Blend: AUG-CC-PVTZ-JKFIT

    Orbital Energies [Eh]
    ---------------------

    Doubly Occupied:

       1A    -20.619387     2A    -20.555413     3A    -11.395475
       4A    -11.259528     5A    -11.246792     6A    -11.246230
       7A    -11.244334     8A    -11.239172     9A    -11.236424
      10A    -11.234939    11A    -11.223365    12A     -1.463411
      13A     -1.360827    14A     -1.154633    15A     -1.065690
      16A     -1.036852    17A     -0.986917    18A     -0.924864
      19A     -0.846754    20A     -0.807486    21A     -0.786930
      22A     -0.709102    23A     -0.690745    24A     -0.684836
      25A     -0.663424    26A     -0.640701    27A     -0.623227
      28A     -0.596727    29A     -0.590472    30A     -0.568885
      31A     -0.558038    32A     -0.548980    33A     -0.533595
      34A     -0.501246    35A     -0.487311    36A     -0.477822
      37A     -0.466209    38A     -0.457577    39A     -0.338934
      40A     -0.312007

  @DF-RHF Final Energy:  -496.53470744657983

   => Energetics <=

    Nuclear Repulsion Energy =            581.2286436235569909
    One-Electron Energy =               -1828.7561786232104168
    Two-Electron Energy =                 750.9928275530735391
    Total Energy =                       -496.5347074465798869
  Basis Set: (AUG-CC-PVTZ AUX)
    Blend: AUG-CC-PVTZ-RI
    Molecular point group: c1

    Geometry (in Angstrom), charge = 0, multiplicity = 1:

       Center              X                  Y                   Z               Mass
    ------------   -----------------  -----------------  -----------------  -----------------
         O            3.391777420688    -0.518226351965    -0.160782769457    15.994914619570
         O            1.883201420688     0.258620648035     1.339225230543    15.994914619570
         C           -0.289143579312    -0.322059351965    -0.455803769457    12.000000000000
         C           -0.899288579312     0.927573648035    -0.231563769457    12.000000000000
         C            1.146764420688    -0.420968351965    -0.892437769457    12.000000000000
         C           -1.025545579312    -1.497455351965    -0.270801769457    12.000000000000
         C           -2.238555579312     0.953934648035     0.174698230543    12.000000000000
         C           -0.139236579312     2.215084648035    -0.417141769457    12.000000000000
         C           -2.358404579312    -1.455270351965     0.138104230543    12.000000000000
         C           -3.080679079312    -0.136153751965     0.398736830543    12.000000000000
         C            2.131150420688    -0.181787351965     0.231332230543    12.000000000000
         H            1.384000420688     0.299083648035    -1.686195769457     1.007825032230
         H            1.358612420688    -1.409795351965    -1.313978769457     1.007825032230
         H           -0.546137579312    -2.459036351965    -0.449111769457     1.007825032230
         H           -2.717966579312     1.915754648035     0.349039230543     1.007825032230
         H            0.700103420688     2.276454648035     0.281078230543     1.007825032230
         H            0.259287420688     2.308175648035    -1.433920769457     1.007825032230
         H           -0.792723579312     3.073266648035    -0.239302769457     1.007825032230
         H           -2.915465579312    -2.378557351965     0.277547230543     1.007825032230
         H           -4.006906579312    -0.171205351965     0.678549230543     1.007825032230
         H            3.965538420688    -0.321067351965     0.608646230543     1.007825032230

  Basis Set: AUG-CC-PVTZ
    Blend: AUG-CC-PVTZ
  Basis Set: (AUG-CC-PVTZ AUX)
    Blend: AUG-CC-PVTZ-JKFIT
	 Reference Energy          =    -496.5347074465798300 [Eh]
	 Singles Energy            =      -0.0000000000000000 [Eh]
	 Same-Spin Energy          =      -0.5240363259881243 [Eh]
	 Opposite-Spin Energy      =      -1.6312026391933847 [Eh]
	 Correlation Energy        =      -2.1552389651815091 [Eh]
	 Total Energy              =    -498.6899464117613547 [Eh]

	 ================> DF-SCS-MP2 Energies <==================
	-----------------------------------------------------------
	 SCS Same-Spin Scale       =       0.3333333333333333 [-]
	 SCS Opposite-Spin Scale   =       1.2000000000000000 [-]
	 SCS Same-Spin Energy      =      -0.1746787753293748 [Eh]
	 SCS Opposite-Spin Energy  =      -1.9574431670320616 [Eh]
	 SCS Correlation Energy    =      -2.1321219423614362 [Eh]
	 SCS Total Energy          =    -498.6668293889412666 [Eh]
	-----------------------------------------------------------

  Dipole Moment: [D]
     X:     0.5570      Y:    -0.1105      Z:    -1.2095     Total:     1.3362

*** Psi4 exiting successfully. Buy a developer a beer!
