                               Psi4 1.4a3.dev225

  ==> Input File <==

--------------------------------------------------------------------------
#psi4
#
memory 32 gb

molecule  {
0 1
  O        3.4036770    -0.5312700    -0.1399000
  O        1.8951010     0.2455770     1.3601080
  C       -0.2772440    -0.3351030    -0.4349210
  C       -0.8873890     0.9145300    -0.2106810
  C        1.1586640    -0.4340120    -0.8715550
  C       -1.0129386    -1.4861711    -0.2493982
  C       -2.2266560     0.9408910     0.1955810
  C       -0.1273370     2.2020410    -0.3962590
  C       -2.3465050    -1.4683140     0.1589870
  C       -2.9558630    -0.2342200     0.3827420
  C        2.1430500    -0.1948310     0.2522150
  H        1.3959000     0.2860400    -1.6653130
  H        1.3705120    -1.4228390    -1.2930960
  H       -0.5342380    -2.4720800    -0.4282290
  H       -2.7060670     1.9027110     0.3699220
  H        0.7120030     2.2634110     0.3019610
  H        0.2711870     2.2951320    -1.4130380
  H       -0.7808240     3.0602230    -0.2184200
  H       -2.9035660    -2.3916010     0.2984300
  H       -3.9950070    -0.1842490     0.6994320
  H        3.9774380    -0.3341110     0.6295290
units angstrom
no_reorient  #important for SAPT in psi4, default
symmetry c1  #important for SAPT in psi4, default
}

set PROPERTIES_ORIGIN ["COM"]
properties('MP2/aug-cc-pvtz', properties = ['dipole'])
--------------------------------------------------------------------------

    Molecular point group: c1
  Charge       = 0
  Multiplicity = 1
  Basis Set: AUG-CC-PVTZ
    Blend: AUG-CC-PVTZ
  Basis Set: (AUG-CC-PVTZ AUX)
    Blend: AUG-CC-PVTZ-JKFIT

    Orbital Energies [Eh]
    ---------------------

    Doubly Occupied:

       1A    -20.618967     2A    -20.555003     3A    -11.394807
       4A    -11.258839     5A    -11.244211     6A    -11.241777
       7A    -11.236230     8A    -11.234795     9A    -11.232129
      10A    -11.230522    11A    -11.222819    12A     -1.462988
      13A     -1.360440    14A     -1.162978    15A     -1.071140
      16A     -1.041615    17A     -0.982846    18A     -0.931162
      19A     -0.840155    20A     -0.811086    21A     -0.779681
      22A     -0.709023    23A     -0.689543    24A     -0.678600
      25A     -0.666571    26A     -0.628883    27A     -0.622707
      28A     -0.596611    29A     -0.577328    30A     -0.567994
      31A     -0.566062    32A     -0.548112    33A     -0.540788
      34A     -0.492607    35A     -0.486362    36A     -0.483601
      37A     -0.481494    38A     -0.457983    39A     -0.335474
      40A     -0.323110

  @DF-RHF Final Energy:  -496.56393831462429

   => Energetics <=

    Nuclear Repulsion Energy =            583.9793324258727125
    One-Electron Energy =               -1834.3524505018770014
    Two-Electron Energy =                 753.8091797613799372
    Total Energy =                       -496.5639383146242380
  Basis Set: (AUG-CC-PVTZ AUX)
    Blend: AUG-CC-PVTZ-RI
    Molecular point group: c1

    Geometry (in Angstrom), charge = 0, multiplicity = 1:

       Center              X                  Y                   Z               Mass
    ------------   -----------------  -----------------  -----------------  -----------------
         O            3.382691632397    -0.513372978735    -0.157875544941    15.994914619570
         O            1.874115632397     0.263474021265     1.342132455059    15.994914619570
         C           -0.298229367603    -0.317205978735    -0.452896544941    12.000000000000
         C           -0.908374367603     0.932427021265    -0.228656544941    12.000000000000
         C            1.137678632397    -0.416114978735    -0.889530544941    12.000000000000
         C           -1.033923967603    -1.468274078735    -0.267373744941    12.000000000000
         C           -2.247641367603     0.958788021265     0.177605455059    12.000000000000
         C           -0.148322367603     2.219938021265    -0.414234544941    12.000000000000
         C           -2.367490367603    -1.450416978735     0.141011455059    12.000000000000
         C           -2.976848367603    -0.216322978735     0.364766455059    12.000000000000
         C            2.122064632397    -0.176933978735     0.234239455059    12.000000000000
         H            1.374914632397     0.303937021265    -1.683288544941     1.007825032230
         H            1.349526632397    -1.404941978735    -1.311071544941     1.007825032230
         H           -0.555223367603    -2.454182978735    -0.446204544941     1.007825032230
         H           -2.727052367603     1.920608021265     0.351946455059     1.007825032230
         H            0.691017632397     2.281308021265     0.283985455059     1.007825032230
         H            0.250201632397     2.313029021265    -1.431013544941     1.007825032230
         H           -0.801809367603     3.078120021265    -0.236395544941     1.007825032230
         H           -2.924551367603    -2.373703978735     0.280454455059     1.007825032230
         H           -4.015992367603    -0.166351978735     0.681456455059     1.007825032230
         H            3.956452632397    -0.316213978735     0.611553455059     1.007825032230

  Basis Set: AUG-CC-PVTZ
    Blend: AUG-CC-PVTZ
  Basis Set: (AUG-CC-PVTZ AUX)
    Blend: AUG-CC-PVTZ-JKFIT
	 Reference Energy          =    -496.5639383146242949 [Eh]
	 Singles Energy            =      -0.0000000000000000 [Eh]
	 Same-Spin Energy          =      -0.5236318660844929 [Eh]
	 Opposite-Spin Energy      =      -1.6285811975255111 [Eh]
	 Correlation Energy        =      -2.1522130636100041 [Eh]
	 Total Energy              =    -498.7161513782343150 [Eh]

	 ================> DF-SCS-MP2 Energies <==================
	-----------------------------------------------------------
	 SCS Same-Spin Scale       =       0.3333333333333333 [-]
	 SCS Opposite-Spin Scale   =       1.2000000000000000 [-]
	 SCS Same-Spin Energy      =      -0.1745439553614976 [Eh]
	 SCS Opposite-Spin Energy  =      -1.9542974370306132 [Eh]
	 SCS Correlation Energy    =      -2.1288413923921108 [Eh]
	 SCS Total Energy          =    -498.6927797070164274 [Eh]
	-----------------------------------------------------------

  Dipole Moment: [D]
     X:     0.5390      Y:    -0.1110      Z:    -1.2092     Total:     1.3286

*** Psi4 exiting successfully. Buy a developer a beer!
