                               Psi4 1.4a3.dev225

  ==> Input File <==

--------------------------------------------------------------------------
#psi4
#
memory 32 gb

molecule  {
0 1
  O        3.4036770    -0.5312700    -0.1399000
  O        1.8951010     0.2455770     1.3601080
  C       -0.2772440    -0.3351030    -0.4349210
  C       -0.8873890     0.9145300    -0.2106810
  C        1.1586640    -0.4340120    -0.8715550
  C       -1.0147595    -1.5348140    -0.2503153
  C       -2.2266560     0.9408910     0.1955810
  C       -0.1273370     2.2020410    -0.3962590
  C       -2.3465050    -1.4683140     0.1589870
  C       -2.9558630    -0.2342200     0.3827420
  C        2.1430500    -0.1948310     0.2522150
  H        1.3959000     0.2860400    -1.6653130
  H        1.3705120    -1.4228390    -1.2930960
  H       -0.5342380    -2.4720800    -0.4282290
  H       -2.7060670     1.9027110     0.3699220
  H        0.7120030     2.2634110     0.3019610
  H        0.2711870     2.2951320    -1.4130380
  H       -0.7808240     3.0602230    -0.2184200
  H       -2.9035660    -2.3916010     0.2984300
  H       -3.9950070    -0.1842490     0.6994320
  H        3.9774380    -0.3341110     0.6295290
units angstrom
no_reorient  #important for SAPT in psi4, default
symmetry c1  #important for SAPT in psi4, default
}

set PROPERTIES_ORIGIN ["COM"]
properties('MP2/aug-cc-pvtz', properties = ['dipole'])
--------------------------------------------------------------------------

    Molecular point group: c1
  Charge       = 0
  Multiplicity = 1
  Basis Set: AUG-CC-PVTZ
    Blend: AUG-CC-PVTZ
  Basis Set: (AUG-CC-PVTZ AUX)
    Blend: AUG-CC-PVTZ-JKFIT

    Orbital Energies [Eh]
    ---------------------

    Doubly Occupied:

       1A    -20.618794     2A    -20.554766     3A    -11.394544
       4A    -11.258468     5A    -11.246464     6A    -11.243574
       7A    -11.237146     8A    -11.234871     9A    -11.232804
      10A    -11.231748    11A    -11.222895    12A     -1.462791
      13A     -1.360213    14A     -1.158790    15A     -1.070250
      16A     -1.041684    17A     -0.981054    18A     -0.929523
      19A     -0.841561    20A     -0.813281    21A     -0.776582
      22A     -0.708696    23A     -0.688879    24A     -0.678707
      25A     -0.667001    26A     -0.629544    27A     -0.626515
      28A     -0.596173    29A     -0.578518    30A     -0.568706
      31A     -0.563707    32A     -0.549408    33A     -0.540334
      34A     -0.490535    35A     -0.489798    36A     -0.481436
      37A     -0.480997    38A     -0.457663    39A     -0.331883
      40A     -0.323547

  @DF-RHF Final Energy:  -496.56335532419143

   => Energetics <=

    Nuclear Repulsion Energy =            583.0885574398062090
    One-Electron Energy =               -1832.5761255188383529
    Two-Electron Energy =                 752.9242127548407097
    Total Energy =                       -496.5633553241914342
  Basis Set: (AUG-CC-PVTZ AUX)
    Blend: AUG-CC-PVTZ-RI
    Molecular point group: c1

    Geometry (in Angstrom), charge = 0, multiplicity = 1:

       Center              X                  Y                   Z               Mass
    ------------   -----------------  -----------------  -----------------  -----------------
         O            3.382837238312    -0.509483312114    -0.157802210225    15.994914619570
         O            1.874261238312     0.267363687886     1.342205789775    15.994914619570
         C           -0.298083761688    -0.313316312114    -0.452823210225    12.000000000000
         C           -0.908228761688     0.936316687886    -0.228583210225    12.000000000000
         C            1.137824238312    -0.412225312114    -0.889457210225    12.000000000000
         C           -1.035599261688    -1.513027312114    -0.268217510225    12.000000000000
         C           -2.247495761688     0.962677687886     0.177678789775    12.000000000000
         C           -0.148176761688     2.223827687886    -0.414161210225    12.000000000000
         C           -2.367344761688    -1.446527312114     0.141084789775    12.000000000000
         C           -2.976702761688    -0.212433312114     0.364839789775    12.000000000000
         C            2.122210238312    -0.173044312114     0.234312789775    12.000000000000
         H            1.375060238312     0.307826687886    -1.683215210225     1.007825032230
         H            1.349672238312    -1.401052312114    -1.310998210225     1.007825032230
         H           -0.555077761688    -2.450293312114    -0.446131210225     1.007825032230
         H           -2.726906761688     1.924497687886     0.352019789775     1.007825032230
         H            0.691163238312     2.285197687886     0.284058789775     1.007825032230
         H            0.250347238312     2.316918687886    -1.430940210225     1.007825032230
         H           -0.801663761688     3.082009687886    -0.236322210225     1.007825032230
         H           -2.924405761688    -2.369814312114     0.280527789775     1.007825032230
         H           -4.015846761688    -0.162462312114     0.681529789775     1.007825032230
         H            3.956598238312    -0.312324312114     0.611626789775     1.007825032230

  Basis Set: AUG-CC-PVTZ
    Blend: AUG-CC-PVTZ
  Basis Set: (AUG-CC-PVTZ AUX)
    Blend: AUG-CC-PVTZ-JKFIT
	 Reference Energy          =    -496.5633553241914342 [Eh]
	 Singles Energy            =      -0.0000000000000000 [Eh]
	 Same-Spin Energy          =      -0.5236734047946683 [Eh]
	 Opposite-Spin Energy      =      -1.6288172932050236 [Eh]
	 Correlation Energy        =      -2.1524906979996921 [Eh]
	 Total Energy              =    -498.7158460221911014 [Eh]

	 ================> DF-SCS-MP2 Energies <==================
	-----------------------------------------------------------
	 SCS Same-Spin Scale       =       0.3333333333333333 [-]
	 SCS Opposite-Spin Scale   =       1.2000000000000000 [-]
	 SCS Same-Spin Energy      =      -0.1745578015982228 [Eh]
	 SCS Opposite-Spin Energy  =      -1.9545807518460281 [Eh]
	 SCS Correlation Energy    =      -2.1291385534442506 [Eh]
	 SCS Total Energy          =    -498.6924938776356839 [Eh]
	-----------------------------------------------------------

  Dipole Moment: [D]
     X:     0.5480      Y:    -0.1167      Z:    -1.2133     Total:     1.3364

*** Psi4 exiting successfully. Buy a developer a beer!
