                               Psi4 1.4a3.dev225

  ==> Input File <==

--------------------------------------------------------------------------
#psi4
#
memory 32 gb

molecule  {
0 1
  O        3.4036770    -0.5312700    -0.1399000
  O        1.8951010     0.2455770     1.3601080
  C       -0.2772440    -0.3351030    -0.4349210
  C       -0.8873890     0.9145300    -0.2106810
  C        1.1586640    -0.4340120    -0.8715550
  C       -1.0136460    -1.5104990    -0.2499190
  C       -2.2266560     0.9408910     0.1955810
  C       -0.1273370     2.2020410    -0.3962590
  C       -2.3465050    -1.4683140     0.1589870
  C       -2.9663132    -0.2510604     0.3854242
  C        2.1430500    -0.1948310     0.2522150
  H        1.3959000     0.2860400    -1.6653130
  H        1.3705120    -1.4228390    -1.2930960
  H       -0.5342380    -2.4720800    -0.4282290
  H       -2.7060670     1.9027110     0.3699220
  H        0.7120030     2.2634110     0.3019610
  H        0.2711870     2.2951320    -1.4130380
  H       -0.7808240     3.0602230    -0.2184200
  H       -2.9035660    -2.3916010     0.2984300
  H       -3.9950070    -0.1842490     0.6994320
  H        3.9774380    -0.3341110     0.6295290
units angstrom
no_reorient  #important for SAPT in psi4, default
symmetry c1  #important for SAPT in psi4, default
}

set PROPERTIES_ORIGIN ["COM"]
properties('MP2/aug-cc-pvtz', properties = ['dipole'])
--------------------------------------------------------------------------

    Molecular point group: c1
  Charge       = 0
  Multiplicity = 1
  Basis Set: AUG-CC-PVTZ
    Blend: AUG-CC-PVTZ
  Basis Set: (AUG-CC-PVTZ AUX)
    Blend: AUG-CC-PVTZ-JKFIT

    Orbital Energies [Eh]
    ---------------------

    Doubly Occupied:

       1A    -20.618938     2A    -20.554949     3A    -11.394760
       4A    -11.258760     5A    -11.244901     6A    -11.243450
       7A    -11.236729     8A    -11.235049     9A    -11.233054
      10A    -11.231628    11A    -11.222798    12A     -1.462951
      13A     -1.360392    14A     -1.160125    15A     -1.070462
      16A     -1.041767    17A     -0.980587    18A     -0.930502
      19A     -0.841814    20A     -0.811692    21A     -0.778214
      22A     -0.708893    23A     -0.689188    24A     -0.678817
      25A     -0.666918    26A     -0.627341    27A     -0.626653
      28A     -0.596381    29A     -0.576865    30A     -0.568293
      31A     -0.566034    32A     -0.548893    33A     -0.540821
      34A     -0.490965    35A     -0.489135    36A     -0.481877
      37A     -0.481360    38A     -0.457850    39A     -0.331103
      40A     -0.325198

  @DF-RHF Final Energy:  -496.56389866614666

   => Energetics <=

    Nuclear Repulsion Energy =            583.3071468046277914
    One-Electron Energy =               -1833.0098757924520214
    Two-Electron Energy =                 753.1388303216775739
    Total Energy =                       -496.5638986661466561
  Basis Set: (AUG-CC-PVTZ AUX)
    Blend: AUG-CC-PVTZ-RI
    Molecular point group: c1

    Geometry (in Angstrom), charge = 0, multiplicity = 1:

       Center              X                  Y                   Z               Mass
    ------------   -----------------  -----------------  -----------------  -----------------
         O            3.383583835459    -0.510081008841    -0.158048378498    15.994914619570
         O            1.875007835459     0.266765991159     1.341959621502    15.994914619570
         C           -0.297337164541    -0.313914008841    -0.453069378498    12.000000000000
         C           -0.907482164541     0.935718991159    -0.228829378498    12.000000000000
         C            1.138570835459    -0.412823008841    -0.889703378498    12.000000000000
         C           -1.033739164541    -1.489310008841    -0.268067378498    12.000000000000
         C           -2.246749164541     0.962079991159     0.177432621502    12.000000000000
         C           -0.147430164541     2.223229991159    -0.414407378498    12.000000000000
         C           -2.366598164541    -1.447125008841     0.140838621502    12.000000000000
         C           -2.986406364541    -0.229871408841     0.367275821502    12.000000000000
         C            2.122956835459    -0.173642008841     0.234066621502    12.000000000000
         H            1.375806835459     0.307228991159    -1.683461378498     1.007825032230
         H            1.350418835459    -1.401650008841    -1.311244378498     1.007825032230
         H           -0.554331164541    -2.450891008841    -0.446377378498     1.007825032230
         H           -2.726160164541     1.923899991159     0.351773621502     1.007825032230
         H            0.691909835459     2.284599991159     0.283812621502     1.007825032230
         H            0.251093835459     2.316320991159    -1.431186378498     1.007825032230
         H           -0.800917164541     3.081411991159    -0.236568378498     1.007825032230
         H           -2.923659164541    -2.370412008841     0.280281621502     1.007825032230
         H           -4.015100164541    -0.163060008841     0.681283621502     1.007825032230
         H            3.957344835459    -0.312922008841     0.611380621502     1.007825032230

  Basis Set: AUG-CC-PVTZ
    Blend: AUG-CC-PVTZ
  Basis Set: (AUG-CC-PVTZ AUX)
    Blend: AUG-CC-PVTZ-JKFIT
	 Reference Energy          =    -496.5638986661466561 [Eh]
	 Singles Energy            =      -0.0000000000000000 [Eh]
	 Same-Spin Energy          =      -0.5235957497966114 [Eh]
	 Opposite-Spin Energy      =      -1.6287072561894593 [Eh]
	 Correlation Energy        =      -2.1523030059860706 [Eh]
	 Total Energy              =    -498.7162016721327404 [Eh]

	 ================> DF-SCS-MP2 Energies <==================
	-----------------------------------------------------------
	 SCS Same-Spin Scale       =       0.3333333333333333 [-]
	 SCS Opposite-Spin Scale   =       1.2000000000000000 [-]
	 SCS Same-Spin Energy      =      -0.1745319165988705 [Eh]
	 SCS Opposite-Spin Energy  =      -1.9544487074273511 [Eh]
	 SCS Correlation Energy    =      -2.1289806240262217 [Eh]
	 SCS Total Energy          =    -498.6928792901728684 [Eh]
	-----------------------------------------------------------

  Dipole Moment: [D]
     X:     0.5428      Y:    -0.1120      Z:    -1.2105     Total:     1.3314

*** Psi4 exiting successfully. Buy a developer a beer!
