                               Psi4 1.4a3.dev225

  ==> Input File <==

--------------------------------------------------------------------------
#psi4
#
memory 32 gb

molecule  {
0 1
  O        3.4036770    -0.5312700    -0.1399000
  O        1.8951010     0.2455770     1.3601080
  C       -0.2772440    -0.3351030    -0.4349210
  C       -0.8873890     0.9145300    -0.2106810
  C        1.1586640    -0.4340120    -0.8715550
  C       -1.0136460    -1.5104990    -0.2499190
  C       -2.2266560     0.9408910     0.1955810
  C       -0.1273370     2.2020410    -0.3962590
  C       -2.3336405    -1.3228870     0.1598531
  C       -2.9558630    -0.2342200     0.3827420
  C        2.1430500    -0.1948310     0.2522150
  H        1.3959000     0.2860400    -1.6653130
  H        1.3705120    -1.4228390    -1.2930960
  H       -0.5342380    -2.4720800    -0.4282290
  H       -2.7060670     1.9027110     0.3699220
  H        0.7120030     2.2634110     0.3019610
  H        0.2711870     2.2951320    -1.4130380
  H       -0.7808240     3.0602230    -0.2184200
  H       -2.9035660    -2.3916010     0.2984300
  H       -3.9950070    -0.1842490     0.6994320
  H        3.9774380    -0.3341110     0.6295290
units angstrom
no_reorient  #important for SAPT in psi4, default
symmetry c1  #important for SAPT in psi4, default
}

set PROPERTIES_ORIGIN ["COM"]
properties('MP2/aug-cc-pvtz', properties = ['dipole'])
--------------------------------------------------------------------------

    Molecular point group: c1
  Charge       = 0
  Multiplicity = 1
  Basis Set: AUG-CC-PVTZ
    Blend: AUG-CC-PVTZ
  Basis Set: (AUG-CC-PVTZ AUX)
    Blend: AUG-CC-PVTZ-JKFIT

    Orbital Energies [Eh]
    ---------------------

    Doubly Occupied:

       1A    -20.619398     2A    -20.555526     3A    -11.395449
       4A    -11.258845     5A    -11.245869     6A    -11.241242
       7A    -11.236707     8A    -11.231831     9A    -11.230093
      10A    -11.222202    11A    -11.218940    12A     -1.463464
      13A     -1.360947    14A     -1.172533    15A     -1.082609
      16A     -1.041180    17A     -0.988083    18A     -0.928444
      19A     -0.846776    20A     -0.815186    21A     -0.769299
      22A     -0.708932    23A     -0.689033    24A     -0.680479
      25A     -0.672313    26A     -0.631952    27A     -0.620830
      28A     -0.596932    29A     -0.586111    30A     -0.569960
      31A     -0.551838    32A     -0.545921    33A     -0.541334
      34A     -0.502114    35A     -0.496980    36A     -0.483823
      37A     -0.460156    38A     -0.453982    39A     -0.340542
      40A     -0.326453

  @DF-RHF Final Energy:  -496.53634616306420

   => Energetics <=

    Nuclear Repulsion Energy =            586.0567221768411628
    One-Electron Energy =               -1838.4175237131207723
    Two-Electron Energy =                 755.8244553732155282
    Total Energy =                       -496.5363461630641950
  Basis Set: (AUG-CC-PVTZ AUX)
    Blend: AUG-CC-PVTZ-RI
    Molecular point group: c1

    Geometry (in Angstrom), charge = 0, multiplicity = 1:

       Center              X                  Y                   Z               Mass
    ------------   -----------------  -----------------  -----------------  -----------------
         O            3.381719505611    -0.523056511730    -0.157903156409    15.994914619570
         O            1.873143505611     0.253790488270     1.342104843591    15.994914619570
         C           -0.299201494389    -0.326889511730    -0.452924156409    12.000000000000
         C           -0.909346494389     0.922743488270    -0.228684156409    12.000000000000
         C            1.136706505611    -0.425798511730    -0.889558156409    12.000000000000
         C           -1.035603494389    -1.502285511730    -0.267922156409    12.000000000000
         C           -2.248613494389     0.949104488270     0.177577843591    12.000000000000
         C           -0.149294494389     2.210254488270    -0.414262156409    12.000000000000
         C           -2.355597994389    -1.314673511730     0.141849943591    12.000000000000
         C           -2.977820494389    -0.226006511730     0.364738843591    12.000000000000
         C            2.121092505611    -0.186617511730     0.234211843591    12.000000000000
         H            1.373942505611     0.294253488270    -1.683316156409     1.007825032230
         H            1.348554505611    -1.414625511730    -1.311099156409     1.007825032230
         H           -0.556195494389    -2.463866511730    -0.446232156409     1.007825032230
         H           -2.728024494389     1.910924488270     0.351918843591     1.007825032230
         H            0.690045505611     2.271624488270     0.283957843591     1.007825032230
         H            0.249229505611     2.303345488270    -1.431041156409     1.007825032230
         H           -0.802781494389     3.068436488270    -0.236423156409     1.007825032230
         H           -2.925523494389    -2.383387511730     0.280426843591     1.007825032230
         H           -4.016964494389    -0.176035511730     0.681428843591     1.007825032230
         H            3.955480505611    -0.325897511730     0.611525843591     1.007825032230

  Basis Set: AUG-CC-PVTZ
    Blend: AUG-CC-PVTZ
  Basis Set: (AUG-CC-PVTZ AUX)
    Blend: AUG-CC-PVTZ-JKFIT
	 Reference Energy          =    -496.5363461630641950 [Eh]
	 Singles Energy            =      -0.0000000000000000 [Eh]
	 Same-Spin Energy          =      -0.5239400825053301 [Eh]
	 Opposite-Spin Energy      =      -1.6292394353164816 [Eh]
	 Correlation Energy        =      -2.1531795178218118 [Eh]
	 Total Energy              =    -498.6895256808859926 [Eh]

	 ================> DF-SCS-MP2 Energies <==================
	-----------------------------------------------------------
	 SCS Same-Spin Scale       =       0.3333333333333333 [-]
	 SCS Opposite-Spin Scale   =       1.2000000000000000 [-]
	 SCS Same-Spin Energy      =      -0.1746466941684434 [Eh]
	 SCS Opposite-Spin Energy  =      -1.9550873223797778 [Eh]
	 SCS Correlation Energy    =      -2.1297340165482210 [Eh]
	 SCS Total Energy          =    -498.6660801796124360 [Eh]
	-----------------------------------------------------------

  Dipole Moment: [D]
     X:     0.6063      Y:    -0.0311      Z:    -1.2289     Total:     1.3707

*** Psi4 exiting successfully. Buy a developer a beer!
