                               Psi4 1.4a3.dev225

  ==> Input File <==

--------------------------------------------------------------------------
#psi4
#
memory 32 gb

molecule  {
0 1
  O        3.4036770    -0.5312700    -0.1399000
  O        1.8951010     0.2455770     1.3601080
  C       -0.2772440    -0.3351030    -0.4349210
  C       -0.8873890     0.9145300    -0.2106810
  C        1.3495987    -0.4471641    -0.9296148
  C       -1.0136460    -1.5104990    -0.2499190
  C       -2.2266560     0.9408910     0.1955810
  C       -0.1273370     2.2020410    -0.3962590
  C       -2.3465050    -1.4683140     0.1589870
  C       -2.9558630    -0.2342200     0.3827420
  C        2.1430500    -0.1948310     0.2522150
  H        1.3959000     0.2860400    -1.6653130
  H        1.3705120    -1.4228390    -1.2930960
  H       -0.5342380    -2.4720800    -0.4282290
  H       -2.7060670     1.9027110     0.3699220
  H        0.7120030     2.2634110     0.3019610
  H        0.2711870     2.2951320    -1.4130380
  H       -0.7808240     3.0602230    -0.2184200
  H       -2.9035660    -2.3916010     0.2984300
  H       -3.9950070    -0.1842490     0.6994320
  H        3.9774380    -0.3341110     0.6295290
units angstrom
no_reorient  #important for SAPT in psi4, default
symmetry c1  #important for SAPT in psi4, default
}

set PROPERTIES_ORIGIN ["COM"]
properties('MP2/aug-cc-pvtz', properties = ['dipole'])
--------------------------------------------------------------------------

    Molecular point group: c1
  Charge       = 0
  Multiplicity = 1
  Basis Set: AUG-CC-PVTZ
    Blend: AUG-CC-PVTZ
  Basis Set: (AUG-CC-PVTZ AUX)
    Blend: AUG-CC-PVTZ-JKFIT

    Orbital Energies [Eh]
    ---------------------

    Doubly Occupied:

       1A    -20.614725     2A    -20.560859     3A    -11.395778
       4A    -11.257467     5A    -11.252185     6A    -11.242641
       7A    -11.235815     8A    -11.233203     9A    -11.231710
      10A    -11.230370    11A    -11.222529    12A     -1.465892
      13A     -1.362823    14A     -1.153964    15A     -1.067081
      16A     -1.040860    17A     -0.991522    18A     -0.929483
      19A     -0.835007    20A     -0.810615    21A     -0.780670
      22A     -0.711416    23A     -0.695517    24A     -0.681857
      25A     -0.672345    26A     -0.628574    27A     -0.616812
      28A     -0.603734    29A     -0.582786    30A     -0.571242
      31A     -0.564828    32A     -0.548646    33A     -0.530847
      34A     -0.492565    35A     -0.485906    36A     -0.482392
      37A     -0.468168    38A     -0.453444    39A     -0.333219
      40A     -0.322568

  @DF-RHF Final Energy:  -496.53084240337648

   => Energetics <=

    Nuclear Repulsion Energy =            581.6581226160905089
    One-Electron Energy =               -1829.6538067213900831
    Two-Electron Energy =                 751.4648417019229782
    Total Energy =                       -496.5308424033764823
  Basis Set: (AUG-CC-PVTZ AUX)
    Blend: AUG-CC-PVTZ-RI
    Molecular point group: c1

    Geometry (in Angstrom), charge = 0, multiplicity = 1:

       Center              X                  Y                   Z               Mass
    ------------   -----------------  -----------------  -----------------  -----------------
         O            3.367480352246    -0.510375938983    -0.153191222985    15.994914619570
         O            1.858904352246     0.266471061017     1.346816777015    15.994914619570
         C           -0.313440647754    -0.314208938983    -0.448212222985    12.000000000000
         C           -0.923585647754     0.935424061017    -0.223972222985    12.000000000000
         C            1.313402052246    -0.426270038983    -0.942906022985    12.000000000000
         C           -1.049842647754    -1.489604938983    -0.263210222985    12.000000000000
         C           -2.262852647754     0.961785061017     0.182289777015    12.000000000000
         C           -0.163533647754     2.222935061017    -0.409550222985    12.000000000000
         C           -2.382701647754    -1.447419938983     0.145695777015    12.000000000000
         C           -2.992059647754    -0.213325938983     0.369450777015    12.000000000000
         C            2.106853352246    -0.173936938983     0.238923777015    12.000000000000
         H            1.359703352246     0.306934061017    -1.678604222985     1.007825032230
         H            1.334315352246    -1.401944938983    -1.306387222985     1.007825032230
         H           -0.570434647754    -2.451185938983    -0.441520222985     1.007825032230
         H           -2.742263647754     1.923605061017     0.356630777015     1.007825032230
         H            0.675806352246     2.284305061017     0.288669777015     1.007825032230
         H            0.234990352246     2.316026061017    -1.426329222985     1.007825032230
         H           -0.817020647754     3.081117061017    -0.231711222985     1.007825032230
         H           -2.939762647754    -2.370706938983     0.285138777015     1.007825032230
         H           -4.031203647754    -0.163354938983     0.686140777015     1.007825032230
         H            3.941241352246    -0.313216938983     0.616237777015     1.007825032230

  Basis Set: AUG-CC-PVTZ
    Blend: AUG-CC-PVTZ
  Basis Set: (AUG-CC-PVTZ AUX)
    Blend: AUG-CC-PVTZ-JKFIT
	 Reference Energy          =    -496.5308424033764823 [Eh]
	 Singles Energy            =      -0.0000000000000000 [Eh]
	 Same-Spin Energy          =      -0.5243198533902165 [Eh]
	 Opposite-Spin Energy      =      -1.6312654501662296 [Eh]
	 Correlation Energy        =      -2.1555853035564461 [Eh]
	 Total Energy              =    -498.6864277069329319 [Eh]

	 ================> DF-SCS-MP2 Energies <==================
	-----------------------------------------------------------
	 SCS Same-Spin Scale       =       0.3333333333333333 [-]
	 SCS Opposite-Spin Scale   =       1.2000000000000000 [-]
	 SCS Same-Spin Energy      =      -0.1747732844634055 [Eh]
	 SCS Opposite-Spin Energy  =      -1.9575185401994755 [Eh]
	 SCS Correlation Energy    =      -2.1322918246628810 [Eh]
	 SCS Total Energy          =    -498.6631342280393824 [Eh]
	-----------------------------------------------------------

  Dipole Moment: [D]
     X:     0.5744      Y:    -0.1030      Z:    -1.2098     Total:     1.3432

*** Psi4 exiting successfully. Buy a developer a beer!
