                               Psi4 1.4a3.dev225

  ==> Input File <==

--------------------------------------------------------------------------
#psi4
#
memory 32 gb

molecule  {
0 1
  O        3.4036770    -0.5312700    -0.1399000
  O        1.8951010     0.2455770     1.3601080
  C       -0.2772440    -0.3351030    -0.4349210
  C       -0.8873890     0.9145300    -0.2106810
  C        1.1586640    -0.4340120    -0.8715550
  C       -1.0136460    -1.5104990    -0.2499190
  C       -2.2266560     0.9408910     0.1955810
  C       -0.1273370     2.2020410    -0.3962590
  C       -2.3465050    -1.4683140     0.1589870
  C       -2.9558630    -0.2342200     0.3827420
  C        2.1430500    -0.1948310     0.2522150
  H        1.3959000     0.2860400    -1.6653130
  H        1.3705120    -1.4228390    -1.2930960
  H       -0.5342380    -2.4720800    -0.4282290
  H       -2.7060670     1.9027110     0.3699220
  H        0.7120030     2.2634110     0.3019610
  H        0.2711870     2.2951320    -1.4130380
  H       -0.7808240     3.0602230    -0.2184200
  H       -2.9035660    -2.3916010     0.2984300
  H       -3.9950070    -0.1842490     0.6994320
  H        3.9657267    -0.3381353     0.6138239
units angstrom
no_reorient  #important for SAPT in psi4, default
symmetry c1  #important for SAPT in psi4, default
}

set PROPERTIES_ORIGIN ["COM"]
properties('MP2/aug-cc-pvtz', properties = ['dipole'])
--------------------------------------------------------------------------

    Molecular point group: c1
  Charge       = 0
  Multiplicity = 1
  Basis Set: AUG-CC-PVTZ
    Blend: AUG-CC-PVTZ
  Basis Set: (AUG-CC-PVTZ AUX)
    Blend: AUG-CC-PVTZ-JKFIT

    Orbital Energies [Eh]
    ---------------------

    Doubly Occupied:

       1A    -20.617577     2A    -20.555269     3A    -11.395046
       4A    -11.258733     5A    -11.244666     6A    -11.243492
       7A    -11.236752     8A    -11.234878     9A    -11.232492
      10A    -11.231195    11A    -11.222931    12A     -1.465903
      13A     -1.362303    14A     -1.160897    15A     -1.070983
      16A     -1.041751    17A     -0.982446    18A     -0.930566
      19A     -0.843134    20A     -0.812634    21A     -0.779118
      22A     -0.710720    23A     -0.689660    24A     -0.678895
      25A     -0.667113    26A     -0.628350    27A     -0.625955
      28A     -0.597495    29A     -0.578147    30A     -0.568620
      31A     -0.564992    32A     -0.549176    33A     -0.540687
      34A     -0.491693    35A     -0.486961    36A     -0.484072
      37A     -0.481818    38A     -0.458165    39A     -0.333586
      40A     -0.323517

  @DF-RHF Final Energy:  -496.56533459259015

   => Energetics <=

    Nuclear Repulsion Energy =            583.6567175258098814
    One-Electron Energy =               -1833.6793225092947068
    Two-Electron Energy =                 753.4572703908946778
    Total Energy =                       -496.5653345925901476
  Basis Set: (AUG-CC-PVTZ AUX)
    Blend: AUG-CC-PVTZ-RI
    Molecular point group: c1

    Geometry (in Angstrom), charge = 0, multiplicity = 1:

       Center              X                  Y                   Z               Mass
    ------------   -----------------  -----------------  -----------------  -----------------
         O            3.382826849303    -0.511400603323    -0.157728427759    15.994914619570
         O            1.874250849303     0.265446396677     1.342279572241    15.994914619570
         C           -0.298094150697    -0.315233603323    -0.452749427759    12.000000000000
         C           -0.908239150697     0.934399396677    -0.228509427759    12.000000000000
         C            1.137813849303    -0.414142603323    -0.889383427759    12.000000000000
         C           -1.034496150697    -1.490629603323    -0.267747427759    12.000000000000
         C           -2.247506150697     0.960760396677     0.177752572241    12.000000000000
         C           -0.148187150697     2.221910396677    -0.414087427759    12.000000000000
         C           -2.367355150697    -1.448444603323     0.141158572241    12.000000000000
         C           -2.976713150697    -0.214350603323     0.364913572241    12.000000000000
         C            2.122199849303    -0.174961603323     0.234386572241    12.000000000000
         H            1.375049849303     0.305909396677    -1.683141427759     1.007825032230
         H            1.349661849303    -1.402969603323    -1.310924427759     1.007825032230
         H           -0.555088150697    -2.452210603323    -0.446057427759     1.007825032230
         H           -2.726917150697     1.922580396677     0.352093572241     1.007825032230
         H            0.691152849303     2.283280396677     0.284132572241     1.007825032230
         H            0.250336849303     2.315001396677    -1.430866427759     1.007825032230
         H           -0.801674150697     3.080092396677    -0.236248427759     1.007825032230
         H           -2.924416150697    -2.371731603323     0.280601572241     1.007825032230
         H           -4.015857150697    -0.164379603323     0.681603572241     1.007825032230
         H            3.944876549303    -0.318265903323     0.595995472241     1.007825032230

  Basis Set: AUG-CC-PVTZ
    Blend: AUG-CC-PVTZ
  Basis Set: (AUG-CC-PVTZ AUX)
    Blend: AUG-CC-PVTZ-JKFIT
	 Reference Energy          =    -496.5653345925901476 [Eh]
	 Singles Energy            =      -0.0000000000000000 [Eh]
	 Same-Spin Energy          =      -0.5233870313244821 [Eh]
	 Opposite-Spin Energy      =      -1.6280655979226459 [Eh]
	 Correlation Energy        =      -2.1514526292471281 [Eh]
	 Total Energy              =    -498.7167872218372509 [Eh]

	 ================> DF-SCS-MP2 Energies <==================
	-----------------------------------------------------------
	 SCS Same-Spin Scale       =       0.3333333333333333 [-]
	 SCS Opposite-Spin Scale   =       1.2000000000000000 [-]
	 SCS Same-Spin Energy      =      -0.1744623437748273 [Eh]
	 SCS Opposite-Spin Energy  =      -1.9536787175071750 [Eh]
	 SCS Correlation Energy    =      -2.1281410612820024 [Eh]
	 SCS Total Energy          =    -498.6934756538721558 [Eh]
	-----------------------------------------------------------

  Dipole Moment: [D]
     X:     0.5239      Y:    -0.1174      Z:    -1.2263     Total:     1.3387

*** Psi4 exiting successfully. Buy a developer a beer!
