                               Psi4 1.4a3.dev225

  ==> Input File <==

--------------------------------------------------------------------------
#psi4
#
memory 32 gb

molecule  {
0 1
  O        3.4036770    -0.5312700    -0.1399000
  O        1.8951010     0.2455770     1.3601080
  C       -0.2772440    -0.3351030    -0.4349210
  C       -0.8873890     0.9145300    -0.2106810
  C        1.1586640    -0.4340120    -0.8715550
  C       -1.0136460    -1.5104990    -0.2499190
  C       -2.2266560     0.9408910     0.1955810
  C       -0.1273370     2.2020410    -0.3962590
  C       -2.2509466    -1.4713384     0.1296708
  C       -2.9558630    -0.2342200     0.3827420
  C        2.1430500    -0.1948310     0.2522150
  H        1.3959000     0.2860400    -1.6653130
  H        1.3705120    -1.4228390    -1.2930960
  H       -0.5342380    -2.4720800    -0.4282290
  H       -2.7060670     1.9027110     0.3699220
  H        0.7120030     2.2634110     0.3019610
  H        0.2711870     2.2951320    -1.4130380
  H       -0.7808240     3.0602230    -0.2184200
  H       -2.9035660    -2.3916010     0.2984300
  H       -3.9950070    -0.1842490     0.6994320
  H        3.9774380    -0.3341110     0.6295290
units angstrom
no_reorient  #important for SAPT in psi4, default
symmetry c1  #important for SAPT in psi4, default
}

set PROPERTIES_ORIGIN ["COM"]
properties('MP2/aug-cc-pvtz', properties = ['dipole'])
--------------------------------------------------------------------------

    Molecular point group: c1
  Charge       = 0
  Multiplicity = 1
  Basis Set: AUG-CC-PVTZ
    Blend: AUG-CC-PVTZ
  Basis Set: (AUG-CC-PVTZ AUX)
    Blend: AUG-CC-PVTZ-JKFIT

    Orbital Energies [Eh]
    ---------------------

    Doubly Occupied:

       1A    -20.618773     2A    -20.554773     3A    -11.394574
       4A    -11.258303     5A    -11.243633     6A    -11.242340
       7A    -11.239352     8A    -11.231680     9A    -11.230810
      10A    -11.223995    11A    -11.222564    12A     -1.462777
      13A     -1.360202    14A     -1.166077    15A     -1.068666
      16A     -1.049725    17A     -0.984789    18A     -0.927818
      19A     -0.842641    20A     -0.807976    21A     -0.778909
      22A     -0.708621    23A     -0.688828    24A     -0.678265
      25A     -0.668162    26A     -0.629562    27A     -0.622360
      28A     -0.596400    29A     -0.585929    30A     -0.569279
      31A     -0.554898    32A     -0.548098    33A     -0.540084
      34A     -0.495722    35A     -0.493048    36A     -0.482621
      37A     -0.469019    38A     -0.457799    39A     -0.344408
      40A     -0.317494

  @DF-RHF Final Energy:  -496.55046379817117

   => Energetics <=

    Nuclear Repulsion Energy =            584.8549212415722423
    One-Electron Energy =               -1836.0888207469336066
    Two-Electron Energy =                 754.6834357071903696
    Total Energy =                       -496.5504637981711085
  Basis Set: (AUG-CC-PVTZ AUX)
    Blend: AUG-CC-PVTZ-RI
    Molecular point group: c1

    Geometry (in Angstrom), charge = 0, multiplicity = 1:

       Center              X                  Y                   Z               Mass
    ------------   -----------------  -----------------  -----------------  -----------------
         O            3.375106994789    -0.511185787422    -0.155489667804    15.994914619570
         O            1.866530994789     0.265661212578     1.344518332196    15.994914619570
         C           -0.305814005211    -0.315018787422    -0.450510667804    12.000000000000
         C           -0.915959005211     0.934614212578    -0.226270667804    12.000000000000
         C            1.130093994789    -0.413927787422    -0.887144667804    12.000000000000
         C           -1.042216005211    -1.490414787422    -0.265508667804    12.000000000000
         C           -2.255226005211     0.960975212578     0.179991332196    12.000000000000
         C           -0.155907005211     2.222125212578    -0.411848667804    12.000000000000
         C           -2.279516605211    -1.451254187422     0.114081132196    12.000000000000
         C           -2.984433005211    -0.214135787422     0.367152332196    12.000000000000
         C            2.114479994789    -0.174746787422     0.236625332196    12.000000000000
         H            1.367329994789     0.306124212578    -1.680902667804     1.007825032230
         H            1.341941994789    -1.402754787422    -1.308685667804     1.007825032230
         H           -0.562808005211    -2.451995787422    -0.443818667804     1.007825032230
         H           -2.734637005211     1.922795212578     0.354332332196     1.007825032230
         H            0.683432994789     2.283495212578     0.286371332196     1.007825032230
         H            0.242616994789     2.315216212578    -1.428627667804     1.007825032230
         H           -0.809394005211     3.080307212578    -0.234009667804     1.007825032230
         H           -2.932136005211    -2.371516787422     0.282840332196     1.007825032230
         H           -4.023577005211    -0.164164787422     0.683842332196     1.007825032230
         H            3.948867994789    -0.314026787422     0.613939332196     1.007825032230

  Basis Set: AUG-CC-PVTZ
    Blend: AUG-CC-PVTZ
  Basis Set: (AUG-CC-PVTZ AUX)
    Blend: AUG-CC-PVTZ-JKFIT
	 Reference Energy          =    -496.5504637981711653 [Eh]
	 Singles Energy            =      -0.0000000000000000 [Eh]
	 Same-Spin Energy          =      -0.5237513521825139 [Eh]
	 Opposite-Spin Energy      =      -1.6291698100434657 [Eh]
	 Correlation Energy        =      -2.1529211622259794 [Eh]
	 Total Energy              =    -498.7033849603971589 [Eh]

	 ================> DF-SCS-MP2 Energies <==================
	-----------------------------------------------------------
	 SCS Same-Spin Scale       =       0.3333333333333333 [-]
	 SCS Opposite-Spin Scale   =       1.2000000000000000 [-]
	 SCS Same-Spin Energy      =      -0.1745837840608380 [Eh]
	 SCS Opposite-Spin Energy  =      -1.9550037720521587 [Eh]
	 SCS Correlation Energy    =      -2.1295875561129964 [Eh]
	 SCS Total Energy          =    -498.6800513542841600 [Eh]
	-----------------------------------------------------------

  Dipole Moment: [D]
     X:     0.5355      Y:    -0.0849      Z:    -1.2099     Total:     1.3258

*** Psi4 exiting successfully. Buy a developer a beer!
