                               Psi4 1.4a3.dev225

  ==> Input File <==

--------------------------------------------------------------------------
#psi4
#
memory 32 gb

molecule  {
0 1
  O        3.4036770    -0.5312700    -0.1399000
  O        1.8951010     0.2455770     1.3601080
  C       -0.2772440    -0.3351030    -0.4349210
  C       -0.8873890     0.9145300    -0.2106810
  C        1.1586640    -0.4340120    -0.8715550
  C       -1.0136460    -1.5104990    -0.2499190
  C       -2.2152806     1.0869575     0.1971825
  C       -0.1273370     2.2020410    -0.3962590
  C       -2.3465050    -1.4683140     0.1589870
  C       -2.9558630    -0.2342200     0.3827420
  C        2.1430500    -0.1948310     0.2522150
  H        1.3959000     0.2860400    -1.6653130
  H        1.3705120    -1.4228390    -1.2930960
  H       -0.5342380    -2.4720800    -0.4282290
  H       -2.7060670     1.9027110     0.3699220
  H        0.7120030     2.2634110     0.3019610
  H        0.2711870     2.2951320    -1.4130380
  H       -0.7808240     3.0602230    -0.2184200
  H       -2.9035660    -2.3916010     0.2984300
  H       -3.9950070    -0.1842490     0.6994320
  H        3.9774380    -0.3341110     0.6295290
units angstrom
no_reorient  #important for SAPT in psi4, default
symmetry c1  #important for SAPT in psi4, default
}

set PROPERTIES_ORIGIN ["COM"]
properties('MP2/aug-cc-pvtz', properties = ['dipole'])
--------------------------------------------------------------------------

    Molecular point group: c1
  Charge       = 0
  Multiplicity = 1
  Basis Set: AUG-CC-PVTZ
    Blend: AUG-CC-PVTZ
  Basis Set: (AUG-CC-PVTZ AUX)
    Blend: AUG-CC-PVTZ-JKFIT

    Orbital Energies [Eh]
    ---------------------

    Doubly Occupied:

       1A    -20.618874     2A    -20.554806     3A    -11.394522
       4A    -11.259822     5A    -11.247823     6A    -11.246962
       7A    -11.245341     8A    -11.240455     9A    -11.234216
      10A    -11.232904    11A    -11.219039    12A     -1.462853
      13A     -1.360256    14A     -1.154812    15A     -1.063719
      16A     -1.046634    17A     -0.973754    18A     -0.927696
      19A     -0.846181    20A     -0.818699    21A     -0.774545
      22A     -0.709817    23A     -0.688371    24A     -0.679829
      25A     -0.668448    26A     -0.649037    27A     -0.623493
      28A     -0.596004    29A     -0.575040    30A     -0.567904
      31A     -0.563671    32A     -0.549068    33A     -0.539938
      34A     -0.503709    35A     -0.487167    36A     -0.478173
      37A     -0.462094    38A     -0.456938    39A     -0.330613
      40A     -0.320395

  @DF-RHF Final Energy:  -496.53492841847481

   => Energetics <=

    Nuclear Repulsion Energy =            581.8379864959957786
    One-Electron Energy =               -1829.9985852133877415
    Two-Electron Energy =                 751.6256702989172709
    Total Energy =                       -496.5349284184748058
  Basis Set: (AUG-CC-PVTZ AUX)
    Blend: AUG-CC-PVTZ-RI
    Molecular point group: c1

    Geometry (in Angstrom), charge = 0, multiplicity = 1:

       Center              X                  Y                   Z               Mass
    ------------   -----------------  -----------------  -----------------  -----------------
         O            3.381838579567    -0.523107648521    -0.157961961719    15.994914619570
         O            1.873262579567     0.253739351479     1.342046038281    15.994914619570
         C           -0.299082420433    -0.326940648521    -0.452982961719    12.000000000000
         C           -0.909227420433     0.922692351479    -0.228742961719    12.000000000000
         C            1.136825579567    -0.425849648521    -0.889616961719    12.000000000000
         C           -1.035484420433    -1.502336648521    -0.267980961719    12.000000000000
         C           -2.237119020433     1.095119851479     0.179120538281    12.000000000000
         C           -0.149175420433     2.210203351479    -0.414320961719    12.000000000000
         C           -2.368343420433    -1.460151648521     0.140925038281    12.000000000000
         C           -2.977701420433    -0.226057648521     0.364680038281    12.000000000000
         C            2.121211579567    -0.186668648521     0.234153038281    12.000000000000
         H            1.374061579567     0.294202351479    -1.683374961719     1.007825032230
         H            1.348673579567    -1.414676648521    -1.311157961719     1.007825032230
         H           -0.556076420433    -2.463917648521    -0.446290961719     1.007825032230
         H           -2.727905420433     1.910873351479     0.351860038281     1.007825032230
         H            0.690164579567     2.271573351479     0.283899038281     1.007825032230
         H            0.249348579567     2.303294351479    -1.431099961719     1.007825032230
         H           -0.802662420433     3.068385351479    -0.236481961719     1.007825032230
         H           -2.925404420433    -2.383438648521     0.280368038281     1.007825032230
         H           -4.016845420433    -0.176086648521     0.681370038281     1.007825032230
         H            3.955599579567    -0.325948648521     0.611467038281     1.007825032230

  Basis Set: AUG-CC-PVTZ
    Blend: AUG-CC-PVTZ
  Basis Set: (AUG-CC-PVTZ AUX)
    Blend: AUG-CC-PVTZ-JKFIT
	 Reference Energy          =    -496.5349284184748058 [Eh]
	 Singles Energy            =      -0.0000000000000000 [Eh]
	 Same-Spin Energy          =      -0.5236032599297452 [Eh]
	 Opposite-Spin Energy      =      -1.6306980698342310 [Eh]
	 Correlation Energy        =      -2.1543013297639764 [Eh]
	 Total Energy              =    -498.6892297482388017 [Eh]

	 ================> DF-SCS-MP2 Energies <==================
	-----------------------------------------------------------
	 SCS Same-Spin Scale       =       0.3333333333333333 [-]
	 SCS Opposite-Spin Scale   =       1.2000000000000000 [-]
	 SCS Same-Spin Energy      =      -0.1745344199765817 [Eh]
	 SCS Opposite-Spin Energy  =      -1.9568376838010773 [Eh]
	 SCS Correlation Energy    =      -2.1313721037776592 [Eh]
	 SCS Total Energy          =    -498.6663005222524703 [Eh]
	-----------------------------------------------------------

  Dipole Moment: [D]
     X:     0.5404      Y:    -0.1485      Z:    -1.2054     Total:     1.3293

*** Psi4 exiting successfully. Buy a developer a beer!
