                               Psi4 1.4a3.dev225

  ==> Input File <==

--------------------------------------------------------------------------
#psi4
#
memory 32 gb

molecule  {
0 1
  O        3.4036770    -0.5312700    -0.1399000
  O        1.8951010     0.2455770     1.3601080
  C       -0.2772440    -0.3351030    -0.4349210
  C       -0.8873890     0.9145300    -0.2106810
  C        1.1586640    -0.4340120    -0.8715550
  C       -1.0136460    -1.5104990    -0.2499190
  C       -2.2266560     0.9408910     0.1955810
  C       -0.1273370     2.2020410    -0.3962590
  C       -2.4420634    -1.4652896     0.1883032
  C       -2.9558630    -0.2342200     0.3827420
  C        2.1430500    -0.1948310     0.2522150
  H        1.3959000     0.2860400    -1.6653130
  H        1.3705120    -1.4228390    -1.2930960
  H       -0.5342380    -2.4720800    -0.4282290
  H       -2.7060670     1.9027110     0.3699220
  H        0.7120030     2.2634110     0.3019610
  H        0.2711870     2.2951320    -1.4130380
  H       -0.7808240     3.0602230    -0.2184200
  H       -2.9035660    -2.3916010     0.2984300
  H       -3.9950070    -0.1842490     0.6994320
  H        3.9774380    -0.3341110     0.6295290
units angstrom
no_reorient  #important for SAPT in psi4, default
symmetry c1  #important for SAPT in psi4, default
}

set PROPERTIES_ORIGIN ["COM"]
properties('MP2/aug-cc-pvtz', properties = ['dipole'])
--------------------------------------------------------------------------

    Molecular point group: c1
  Charge       = 0
  Multiplicity = 1
  Basis Set: AUG-CC-PVTZ
    Blend: AUG-CC-PVTZ
  Basis Set: (AUG-CC-PVTZ AUX)
    Blend: AUG-CC-PVTZ-JKFIT

    Orbital Energies [Eh]
    ---------------------

    Doubly Occupied:

       1A    -20.618966     2A    -20.554985     3A    -11.394732
       4A    -11.258912     5A    -11.246270     6A    -11.245573
       7A    -11.244299     8A    -11.233792     9A    -11.231099
      10A    -11.229634    11A    -11.223290    12A     -1.462982
      13A     -1.360439    14A     -1.157624    15A     -1.073710
      16A     -1.037581    17A     -0.978185    18A     -0.933241
      19A     -0.838726    20A     -0.815503    21A     -0.778044
      22A     -0.709242    23A     -0.689400    24A     -0.679270
      25A     -0.666466    26A     -0.631940    27A     -0.625907
      28A     -0.596437    29A     -0.576751    30A     -0.573113
      31A     -0.565344    32A     -0.546902    33A     -0.539361
      34A     -0.495400    35A     -0.488938    36A     -0.480641
      37A     -0.472685    38A     -0.457754    39A     -0.336810
      40A     -0.319045

  @DF-RHF Final Energy:  -496.55312352008332

   => Energetics <=

    Nuclear Repulsion Energy =            582.3455816563921417
    One-Electron Energy =               -1831.0594242455886160
    Two-Electron Energy =                 752.1607190691131564
    Total Energy =                       -496.5531235200833180
  Basis Set: (AUG-CC-PVTZ AUX)
    Blend: AUG-CC-PVTZ-RI
    Molecular point group: c1

    Geometry (in Angstrom), charge = 0, multiplicity = 1:

       Center              X                  Y                   Z               Mass
    ------------   -----------------  -----------------  -----------------  -----------------
         O            3.390389402659    -0.511669471895    -0.160178131880    15.994914619570
         O            1.881813402659     0.265177528105     1.339829868120    15.994914619570
         C           -0.290531597341    -0.315502471895    -0.455199131880    12.000000000000
         C           -0.900676597341     0.934130528105    -0.230959131880    12.000000000000
         C            1.145376402659    -0.414411471895    -0.891833131880    12.000000000000
         C           -1.026933597341    -1.490898471895    -0.270197131880    12.000000000000
         C           -2.239943597341     0.960491528105     0.175302868120    12.000000000000
         C           -0.140624597341     2.221641528105    -0.416537131880    12.000000000000
         C           -2.455350997341    -1.445689071895     0.168025068120    12.000000000000
         C           -2.969150597341    -0.214619471895     0.362463868120    12.000000000000
         C            2.129762402659    -0.175230471895     0.231936868120    12.000000000000
         H            1.382612402659     0.305640528105    -1.685591131880     1.007825032230
         H            1.357224402659    -1.403238471895    -1.313374131880     1.007825032230
         H           -0.547525597341    -2.452479471895    -0.448507131880     1.007825032230
         H           -2.719354597341     1.922311528105     0.349643868120     1.007825032230
         H            0.698715402659     2.283011528105     0.281682868120     1.007825032230
         H            0.257899402659     2.314732528105    -1.433316131880     1.007825032230
         H           -0.794111597341     3.079823528105    -0.238698131880     1.007825032230
         H           -2.916853597341    -2.372000471895     0.278151868120     1.007825032230
         H           -4.008294597341    -0.164648471895     0.679153868120     1.007825032230
         H            3.964150402659    -0.314510471895     0.609250868120     1.007825032230

  Basis Set: AUG-CC-PVTZ
    Blend: AUG-CC-PVTZ
  Basis Set: (AUG-CC-PVTZ AUX)
    Blend: AUG-CC-PVTZ-JKFIT
	 Reference Energy          =    -496.5531235200833180 [Eh]
	 Singles Energy            =      -0.0000000000000000 [Eh]
	 Same-Spin Energy          =      -0.5232501826464728 [Eh]
	 Opposite-Spin Energy      =      -1.6292528518906222 [Eh]
	 Correlation Energy        =      -2.1525030345370952 [Eh]
	 Total Energy              =    -498.7056265546204372 [Eh]

	 ================> DF-SCS-MP2 Energies <==================
	-----------------------------------------------------------
	 SCS Same-Spin Scale       =       0.3333333333333333 [-]
	 SCS Opposite-Spin Scale   =       1.2000000000000000 [-]
	 SCS Same-Spin Energy      =      -0.1744167275488243 [Eh]
	 SCS Opposite-Spin Energy  =      -1.9551034222687464 [Eh]
	 SCS Correlation Energy    =      -2.1295201498175707 [Eh]
	 SCS Total Energy          =    -498.6826436699008696 [Eh]
	-----------------------------------------------------------

  Dipole Moment: [D]
     X:     0.5591      Y:    -0.1342      Z:    -1.2150     Total:     1.3442

*** Psi4 exiting successfully. Buy a developer a beer!
