                               Psi4 1.4a3.dev225

  ==> Input File <==

--------------------------------------------------------------------------
#psi4
#
memory 32 gb

molecule  {
0 1
  O        3.4117952    -0.5250191    -0.1184427
  O        1.8951010     0.2455770     1.3601080
  C       -0.2772440    -0.3351030    -0.4349210
  C       -0.8873890     0.9145300    -0.2106810
  C        1.1586640    -0.4340120    -0.8715550
  C       -1.0136460    -1.5104990    -0.2499190
  C       -2.2266560     0.9408910     0.1955810
  C       -0.1273370     2.2020410    -0.3962590
  C       -2.3465050    -1.4683140     0.1589870
  C       -2.9558630    -0.2342200     0.3827420
  C        2.1430500    -0.1948310     0.2522150
  H        1.3959000     0.2860400    -1.6653130
  H        1.3705120    -1.4228390    -1.2930960
  H       -0.5342380    -2.4720800    -0.4282290
  H       -2.7060670     1.9027110     0.3699220
  H        0.7120030     2.2634110     0.3019610
  H        0.2711870     2.2951320    -1.4130380
  H       -0.7808240     3.0602230    -0.2184200
  H       -2.9035660    -2.3916010     0.2984300
  H       -3.9950070    -0.1842490     0.6994320
  H        3.9774380    -0.3341110     0.6295290
units angstrom
no_reorient  #important for SAPT in psi4, default
symmetry c1  #important for SAPT in psi4, default
}

set PROPERTIES_ORIGIN ["COM"]
properties('MP2/aug-cc-pvtz', properties = ['dipole'])
--------------------------------------------------------------------------

    Molecular point group: c1
  Charge       = 0
  Multiplicity = 1
  Basis Set: AUG-CC-PVTZ
    Blend: AUG-CC-PVTZ
  Basis Set: (AUG-CC-PVTZ AUX)
    Blend: AUG-CC-PVTZ-JKFIT

    Orbital Energies [Eh]
    ---------------------

    Doubly Occupied:

       1A    -20.615633     2A    -20.553690     3A    -11.394600
       4A    -11.259737     5A    -11.245028     6A    -11.243809
       7A    -11.237044     8A    -11.235108     9A    -11.232673
      10A    -11.231359    11A    -11.223002    12A     -1.465076
      13A     -1.360385    14A     -1.161158    15A     -1.071333
      16A     -1.041948    17A     -0.982705    18A     -0.930726
      19A     -0.844211    20A     -0.813075    21A     -0.780090
      22A     -0.708984    23A     -0.689926    24A     -0.678864
      25A     -0.666999    26A     -0.627921    27A     -0.626312
      28A     -0.595811    29A     -0.578467    30A     -0.568414
      31A     -0.565397    32A     -0.549617    33A     -0.540800
      34A     -0.491321    35A     -0.487227    36A     -0.484333
      37A     -0.480759    38A     -0.457519    39A     -0.333848
      40A     -0.323746

  @DF-RHF Final Energy:  -496.56569484810905

   => Energetics <=

    Nuclear Repulsion Energy =            583.5584005602834168
    One-Electron Energy =               -1833.4908786090843478
    Two-Electron Energy =                 753.3667832006918843
    Total Energy =                       -496.5656948481090467
  Basis Set: (AUG-CC-PVTZ AUX)
    Blend: AUG-CC-PVTZ-RI
    Molecular point group: c1

    Geometry (in Angstrom), charge = 0, multiplicity = 1:

       Center              X                  Y                   Z               Mass
    ------------   -----------------  -----------------  -----------------  -----------------
         O            3.390001125334    -0.505842978018    -0.138663613059    15.994914619570
         O            1.873306925334     0.264753121982     1.339887086941    15.994914619570
         C           -0.299038074666    -0.315926878018    -0.455141913059    12.000000000000
         C           -0.909183074666     0.933706121982    -0.230901913059    12.000000000000
         C            1.136869925334    -0.414835878018    -0.891775913059    12.000000000000
         C           -1.035440074666    -1.491322878018    -0.270139913059    12.000000000000
         C           -2.248450074666     0.960067121982     0.175360086941    12.000000000000
         C           -0.149131074666     2.221217121982    -0.416479913059    12.000000000000
         C           -2.368299074666    -1.449137878018     0.138766086941    12.000000000000
         C           -2.977657074666    -0.215043878018     0.362521086941    12.000000000000
         C            2.121255925334    -0.175654878018     0.231994086941    12.000000000000
         H            1.374105925334     0.305216121982    -1.685533913059     1.007825032230
         H            1.348717925334    -1.403662878018    -1.313316913059     1.007825032230
         H           -0.556032074666    -2.452903878018    -0.448449913059     1.007825032230
         H           -2.727861074666     1.921887121982     0.349701086941     1.007825032230
         H            0.690208925334     2.282587121982     0.281740086941     1.007825032230
         H            0.249392925334     2.314308121982    -1.433258913059     1.007825032230
         H           -0.802618074666     3.079399121982    -0.238640913059     1.007825032230
         H           -2.925360074666    -2.372424878018     0.278209086941     1.007825032230
         H           -4.016801074666    -0.165072878018     0.679211086941     1.007825032230
         H            3.955643925334    -0.314934878018     0.609308086941     1.007825032230

  Basis Set: AUG-CC-PVTZ
    Blend: AUG-CC-PVTZ
  Basis Set: (AUG-CC-PVTZ AUX)
    Blend: AUG-CC-PVTZ-JKFIT
	 Reference Energy          =    -496.5656948481090467 [Eh]
	 Singles Energy            =      -0.0000000000000000 [Eh]
	 Same-Spin Energy          =      -0.5232061213211855 [Eh]
	 Opposite-Spin Energy      =      -1.6277187575155387 [Eh]
	 Correlation Energy        =      -2.1509248788367241 [Eh]
	 Total Energy              =    -498.7166197269457939 [Eh]

	 ================> DF-SCS-MP2 Energies <==================
	-----------------------------------------------------------
	 SCS Same-Spin Scale       =       0.3333333333333333 [-]
	 SCS Opposite-Spin Scale   =       1.2000000000000000 [-]
	 SCS Same-Spin Energy      =      -0.1744020404403951 [Eh]
	 SCS Opposite-Spin Energy  =      -1.9532625090186464 [Eh]
	 SCS Correlation Energy    =      -2.1276645494590416 [Eh]
	 SCS Total Energy          =    -498.6933593975680878 [Eh]
	-----------------------------------------------------------

  Dipole Moment: [D]
     X:     0.4966      Y:    -0.1193      Z:    -1.2409     Total:     1.3419

*** Psi4 exiting successfully. Buy a developer a beer!
