                               Psi4 1.4a3.dev225

  ==> Input File <==

--------------------------------------------------------------------------
#psi4
#
memory 32 gb

molecule  {
0 1
  O        3.4036770    -0.5312700    -0.1399000
  O        1.8951010     0.2455770     1.3601080
  C       -0.2772440    -0.3351030    -0.4349210
  C       -0.8873890     0.9145300    -0.2106810
  C        1.1586640    -0.4340120    -0.8715550
  C       -1.0136460    -1.5104990    -0.2499190
  C       -2.2266560     0.9408910     0.1955810
  C       -0.1273370     2.2020410    -0.3962590
  C       -2.3438357    -1.4197080     0.1597750
  C       -2.9558630    -0.2342200     0.3827420
  C        2.1430500    -0.1948310     0.2522150
  H        1.3959000     0.2860400    -1.6653130
  H        1.3705120    -1.4228390    -1.2930960
  H       -0.5342380    -2.4720800    -0.4282290
  H       -2.7060670     1.9027110     0.3699220
  H        0.7120030     2.2634110     0.3019610
  H        0.2711870     2.2951320    -1.4130380
  H       -0.7808240     3.0602230    -0.2184200
  H       -2.9035660    -2.3916010     0.2984300
  H       -3.9950070    -0.1842490     0.6994320
  H        3.9774380    -0.3341110     0.6295290
units angstrom
no_reorient  #important for SAPT in psi4, default
symmetry c1  #important for SAPT in psi4, default
}

set PROPERTIES_ORIGIN ["COM"]
properties('MP2/aug-cc-pvtz', properties = ['dipole'])
--------------------------------------------------------------------------

    Molecular point group: c1
  Charge       = 0
  Multiplicity = 1
  Basis Set: AUG-CC-PVTZ
    Blend: AUG-CC-PVTZ
  Basis Set: (AUG-CC-PVTZ AUX)
    Blend: AUG-CC-PVTZ-JKFIT

    Orbital Energies [Eh]
    ---------------------

    Doubly Occupied:

       1A    -20.619008     2A    -20.555042     3A    -11.394874
       4A    -11.258646     5A    -11.244725     6A    -11.242682
       7A    -11.236311     8A    -11.231802     9A    -11.231304
      10A    -11.228973    11A    -11.222525    12A     -1.463031
      13A     -1.360480    14A     -1.163972    15A     -1.074227
      16A     -1.041431    17A     -0.983582    18A     -0.929561
      19A     -0.842644    20A     -0.813004    21A     -0.774963
      22A     -0.708822    23A     -0.688867    24A     -0.678576
      25A     -0.668586    26A     -0.629149    27A     -0.623525
      28A     -0.596470    29A     -0.578163    30A     -0.568987
      31A     -0.560206    32A     -0.549595    33A     -0.541049
      34A     -0.494033    35A     -0.490886    36A     -0.482463
      37A     -0.476642    38A     -0.458133    39A     -0.333797
      40A     -0.326006

  @DF-RHF Final Energy:  -496.56160052410485

   => Energetics <=

    Nuclear Repulsion Energy =            584.3346031220669374
    One-Electron Energy =               -1835.0589175843028897
    Two-Electron Energy =                 754.1627139381311054
    Total Energy =                       -496.5616005241048470
  Basis Set: (AUG-CC-PVTZ AUX)
    Blend: AUG-CC-PVTZ-RI
    Molecular point group: c1

    Geometry (in Angstrom), charge = 0, multiplicity = 1:

       Center              X                  Y                   Z               Mass
    ------------   -----------------  -----------------  -----------------  -----------------
         O            3.382534751600    -0.515314345619    -0.157896911243    15.994914619570
         O            1.873958751600     0.261532654381     1.342111088757    15.994914619570
         C           -0.298386248400    -0.319147345619    -0.452917911243    12.000000000000
         C           -0.908531248400     0.930485654381    -0.228677911243    12.000000000000
         C            1.137521751600    -0.418056345619    -0.889551911243    12.000000000000
         C           -1.034788248400    -1.494543345619    -0.267915911243    12.000000000000
         C           -2.247798248400     0.956846654381     0.177584088757    12.000000000000
         C           -0.148479248400     2.217996654381    -0.414255911243    12.000000000000
         C           -2.364977948400    -1.403752345619     0.141778088757    12.000000000000
         C           -2.977005248400    -0.218264345619     0.364745088757    12.000000000000
         C            2.121907751600    -0.178875345619     0.234218088757    12.000000000000
         H            1.374757751600     0.301995654381    -1.683309911243     1.007825032230
         H            1.349369751600    -1.406883345619    -1.311092911243     1.007825032230
         H           -0.555380248400    -2.456124345619    -0.446225911243     1.007825032230
         H           -2.727209248400     1.918666654381     0.351925088757     1.007825032230
         H            0.690860751600     2.279366654381     0.283964088757     1.007825032230
         H            0.250044751600     2.311087654381    -1.431034911243     1.007825032230
         H           -0.801966248400     3.076178654381    -0.236416911243     1.007825032230
         H           -2.924708248400    -2.375645345619     0.280433088757     1.007825032230
         H           -4.016149248400    -0.168293345619     0.681435088757     1.007825032230
         H            3.956295751600    -0.318155345619     0.611532088757     1.007825032230

  Basis Set: AUG-CC-PVTZ
    Blend: AUG-CC-PVTZ
  Basis Set: (AUG-CC-PVTZ AUX)
    Blend: AUG-CC-PVTZ-JKFIT
	 Reference Energy          =    -496.5616005241048470 [Eh]
	 Singles Energy            =      -0.0000000000000000 [Eh]
	 Same-Spin Energy          =      -0.5236805504693118 [Eh]
	 Opposite-Spin Energy      =      -1.6285372126364153 [Eh]
	 Correlation Energy        =      -2.1522177631057273 [Eh]
	 Total Energy              =    -498.7138182872105858 [Eh]

	 ================> DF-SCS-MP2 Energies <==================
	-----------------------------------------------------------
	 SCS Same-Spin Scale       =       0.3333333333333333 [-]
	 SCS Opposite-Spin Scale   =       1.2000000000000000 [-]
	 SCS Same-Spin Energy      =      -0.1745601834897706 [Eh]
	 SCS Opposite-Spin Energy  =      -1.9542446551636983 [Eh]
	 SCS Correlation Energy    =      -2.1288048386534690 [Eh]
	 SCS Total Energy          =    -498.6904053627583266 [Eh]
	-----------------------------------------------------------

  Dipole Moment: [D]
     X:     0.5558      Y:    -0.1008      Z:    -1.2153     Total:     1.3402

*** Psi4 exiting successfully. Buy a developer a beer!
