                               Psi4 1.4a3.dev225

  ==> Input File <==

--------------------------------------------------------------------------
#psi4
#
memory 32 gb

molecule  {
0 1
  O        3.4036770    -0.5312700    -0.1399000
  O        1.8951010     0.2455770     1.3601080
  C       -0.2772440    -0.3351030    -0.4349210
  C       -0.8873890     0.9145300    -0.2106810
  C        1.1586640    -0.4340120    -0.8715550
  C       -1.0136460    -1.5104990    -0.2499190
  C       -2.2266560     0.9408910     0.1955810
  C       -0.1273370     2.2020410    -0.3962590
  C       -2.3465050    -1.4683140     0.1589870
  C       -2.9558630    -0.2342200     0.3827420
  C        2.1430500    -0.1948310     0.2522150
  H        1.3959000     0.2860400    -1.6653130
  H        1.3705120    -1.4228390    -1.2930960
  H       -0.5342380    -2.4720800    -0.4282290
  H       -2.7060670     1.9027110     0.3699220
  H        0.7120030     2.2634110     0.3019610
  H        0.2711870     2.2951320    -1.4130380
  H       -0.8107119     3.0994729    -0.2102863
  H       -2.9035660    -2.3916010     0.2984300
  H       -3.9950070    -0.1842490     0.6994320
  H        3.9774380    -0.3341110     0.6295290
units angstrom
no_reorient  #important for SAPT in psi4, default
symmetry c1  #important for SAPT in psi4, default
}

set PROPERTIES_ORIGIN ["COM"]
properties('MP2/aug-cc-pvtz', properties = ['dipole'])
--------------------------------------------------------------------------

    Molecular point group: c1
  Charge       = 0
  Multiplicity = 1
  Basis Set: AUG-CC-PVTZ
    Blend: AUG-CC-PVTZ
  Basis Set: (AUG-CC-PVTZ AUX)
    Blend: AUG-CC-PVTZ-JKFIT

    Orbital Energies [Eh]
    ---------------------

    Doubly Occupied:

       1A    -20.619078     2A    -20.555131     3A    -11.394911
       4A    -11.258947     5A    -11.245005     6A    -11.243842
       7A    -11.236879     8A    -11.234886     9A    -11.232592
      10A    -11.231198    11A    -11.228814    12A     -1.463105
      13A     -1.360556    14A     -1.160956    15A     -1.070902
      16A     -1.040689    17A     -0.981896    18A     -0.927763
      19A     -0.841002    20A     -0.811380    21A     -0.778090
      22A     -0.709076    23A     -0.689440    24A     -0.678641
      25A     -0.666228    26A     -0.627820    27A     -0.625437
      28A     -0.596709    29A     -0.577992    30A     -0.568835
      31A     -0.565101    32A     -0.549036    33A     -0.532078
      34A     -0.491645    35A     -0.486279    36A     -0.484356
      37A     -0.481483    38A     -0.458052    39A     -0.333629
      40A     -0.323700

  @DF-RHF Final Energy:  -496.56223107372517

   => Energetics <=

    Nuclear Repulsion Energy =            583.2966758182635658
    One-Electron Energy =               -1832.9914958449039659
    Two-Electron Energy =                 753.1325889529152846
    Total Energy =                       -496.5622310737251155
  Basis Set: (AUG-CC-PVTZ AUX)
    Blend: AUG-CC-PVTZ-RI
    Molecular point group: c1

    Geometry (in Angstrom), charge = 0, multiplicity = 1:

       Center              X                  Y                   Z               Mass
    ------------   -----------------  -----------------  -----------------  -----------------
         O            3.382948919449    -0.511691223568    -0.157888524027    15.994914619570
         O            1.874372919449     0.265155776432     1.342119475973    15.994914619570
         C           -0.297972080551    -0.315524223568    -0.452909524027    12.000000000000
         C           -0.908117080551     0.934108776432    -0.228669524027    12.000000000000
         C            1.137935919449    -0.414433223568    -0.889543524027    12.000000000000
         C           -1.034374080551    -1.490920223568    -0.267907524027    12.000000000000
         C           -2.247384080551     0.960469776432     0.177592475973    12.000000000000
         C           -0.148065080551     2.221619776432    -0.414247524027    12.000000000000
         C           -2.367233080551    -1.448735223568     0.140998475973    12.000000000000
         C           -2.976591080551    -0.214641223568     0.364753475973    12.000000000000
         C            2.122321919449    -0.175252223568     0.234226475973    12.000000000000
         H            1.375171919449     0.305618776432    -1.683301524027     1.007825032230
         H            1.349783919449    -1.403260223568    -1.311084524027     1.007825032230
         H           -0.554966080551    -2.452501223568    -0.446217524027     1.007825032230
         H           -2.726795080551     1.922289776432     0.351933475973     1.007825032230
         H            0.691274919449     2.282989776432     0.283972475973     1.007825032230
         H            0.250458919449     2.314710776432    -1.431026524027     1.007825032230
         H           -0.831439980551     3.119051676432    -0.228274824027     1.007825032230
         H           -2.924294080551    -2.372022223568     0.280441475973     1.007825032230
         H           -4.015735080551    -0.164670223568     0.681443475973     1.007825032230
         H            3.956709919449    -0.314532223568     0.611540475973     1.007825032230

  Basis Set: AUG-CC-PVTZ
    Blend: AUG-CC-PVTZ
  Basis Set: (AUG-CC-PVTZ AUX)
    Blend: AUG-CC-PVTZ-JKFIT
	 Reference Energy          =    -496.5622310737251723 [Eh]
	 Singles Energy            =      -0.0000000000000000 [Eh]
	 Same-Spin Energy          =      -0.5236745735642478 [Eh]
	 Opposite-Spin Energy      =      -1.6290661947438996 [Eh]
	 Correlation Energy        =      -2.1527407683081474 [Eh]
	 Total Energy              =    -498.7149718420333215 [Eh]

	 ================> DF-SCS-MP2 Energies <==================
	-----------------------------------------------------------
	 SCS Same-Spin Scale       =       0.3333333333333333 [-]
	 SCS Opposite-Spin Scale   =       1.2000000000000000 [-]
	 SCS Same-Spin Energy      =      -0.1745581911880826 [Eh]
	 SCS Opposite-Spin Energy  =      -1.9548794336926794 [Eh]
	 SCS Correlation Energy    =      -2.1294376248807620 [Eh]
	 SCS Total Energy          =    -498.6916686986059517 [Eh]
	-----------------------------------------------------------

  Dipole Moment: [D]
     X:     0.5536      Y:    -0.1472      Z:    -1.2124     Total:     1.3409

*** Psi4 exiting successfully. Buy a developer a beer!
