                               Psi4 1.4a3.dev225

  ==> Input File <==

--------------------------------------------------------------------------
#psi4
#
memory 32 gb

molecule  {
0 1
  O        3.4036770    -0.5312700    -0.1399000
  O        1.8951010     0.2455770     1.3601080
  C       -0.2772440    -0.3351030    -0.4349210
  C       -0.8873890     0.9145300    -0.2106810
  C        1.1586640    -0.4340120    -0.8715550
  C       -1.0136460    -1.5104990    -0.2499190
  C       -2.2266560     0.9408910     0.1955810
  C       -0.1273370     2.2020410    -0.3962590
  C       -2.3465050    -1.4683140     0.1589870
  C       -2.9558630    -0.2342200     0.3827420
  C        2.1430500    -0.1948310     0.2522150
  H        1.4002227     0.2991600    -1.6797760
  H        1.3705120    -1.4228390    -1.2930960
  H       -0.5342380    -2.4720800    -0.4282290
  H       -2.7060670     1.9027110     0.3699220
  H        0.7120030     2.2634110     0.3019610
  H        0.2711870     2.2951320    -1.4130380
  H       -0.7808240     3.0602230    -0.2184200
  H       -2.9035660    -2.3916010     0.2984300
  H       -3.9950070    -0.1842490     0.6994320
  H        3.9774380    -0.3341110     0.6295290
units angstrom
no_reorient  #important for SAPT in psi4, default
symmetry c1  #important for SAPT in psi4, default
}

set PROPERTIES_ORIGIN ["COM"]
properties('MP2/aug-cc-pvtz', properties = ['dipole'])
--------------------------------------------------------------------------

    Molecular point group: c1
  Charge       = 0
  Multiplicity = 1
  Basis Set: AUG-CC-PVTZ
    Blend: AUG-CC-PVTZ
  Basis Set: (AUG-CC-PVTZ AUX)
    Blend: AUG-CC-PVTZ-JKFIT

    Orbital Energies [Eh]
    ---------------------

    Doubly Occupied:

       1A    -20.618814     2A    -20.554919     3A    -11.394768
       4A    -11.260849     5A    -11.244694     6A    -11.243497
       7A    -11.236789     8A    -11.234873     9A    -11.232487
      10A    -11.231163    11A    -11.222808    12A     -1.462858
      13A     -1.360330    14A     -1.160770    15A     -1.069978
      16A     -1.041621    17A     -0.981375    18A     -0.930298
      19A     -0.840681    20A     -0.812177    21A     -0.777473
      22A     -0.708821    23A     -0.689053    24A     -0.677701
      25A     -0.666114    26A     -0.627900    27A     -0.625757
      28A     -0.596164    29A     -0.577623    30A     -0.568316
      31A     -0.564884    32A     -0.547126    33A     -0.540592
      34A     -0.491440    35A     -0.486899    36A     -0.483750
      37A     -0.481408    38A     -0.457827    39A     -0.333543
      40A     -0.323465

  @DF-RHF Final Energy:  -496.56383149487522

   => Energetics <=

    Nuclear Repulsion Energy =            583.4303748689178519
    One-Electron Energy =               -1833.2652076485101134
    Two-Electron Energy =                 753.2710012847170447
    Total Energy =                       -496.5638314948752168
  Basis Set: (AUG-CC-PVTZ AUX)
    Blend: AUG-CC-PVTZ-RI
    Molecular point group: c1

    Geometry (in Angstrom), charge = 0, multiplicity = 1:

       Center              X                  Y                   Z               Mass
    ------------   -----------------  -----------------  -----------------  -----------------
         O            3.382719168398    -0.511515740764    -0.157736769436    15.994914619570
         O            1.874143168398     0.265331259236     1.342271230564    15.994914619570
         C           -0.298201831602    -0.315348740764    -0.452757769436    12.000000000000
         C           -0.908346831602     0.934284259236    -0.228517769436    12.000000000000
         C            1.137706168398    -0.414257740764    -0.889391769436    12.000000000000
         C           -1.034603831602    -1.490744740764    -0.267755769436    12.000000000000
         C           -2.247613831602     0.960645259236     0.177744230564    12.000000000000
         C           -0.148294831602     2.221795259236    -0.414095769436    12.000000000000
         C           -2.367462831602    -1.448559740764     0.141150230564    12.000000000000
         C           -2.976820831602    -0.214465740764     0.364905230564    12.000000000000
         C            2.122092168398    -0.175076740764     0.234378230564    12.000000000000
         H            1.379264868398     0.318914259236    -1.697612769436     1.007825032230
         H            1.349554168398    -1.403084740764    -1.310932769436     1.007825032230
         H           -0.555195831602    -2.452325740764    -0.446065769436     1.007825032230
         H           -2.727024831602     1.922465259236     0.352085230564     1.007825032230
         H            0.691045168398     2.283165259236     0.284124230564     1.007825032230
         H            0.250229168398     2.314886259236    -1.430874769436     1.007825032230
         H           -0.801781831602     3.079977259236    -0.236256769436     1.007825032230
         H           -2.924523831602    -2.371846740764     0.280593230564     1.007825032230
         H           -4.015964831602    -0.164494740764     0.681595230564     1.007825032230
         H            3.956480168398    -0.314356740764     0.611692230564     1.007825032230

  Basis Set: AUG-CC-PVTZ
    Blend: AUG-CC-PVTZ
  Basis Set: (AUG-CC-PVTZ AUX)
    Blend: AUG-CC-PVTZ-JKFIT
	 Reference Energy          =    -496.5638314948752168 [Eh]
	 Singles Energy            =      -0.0000000000000000 [Eh]
	 Same-Spin Energy          =      -0.5236843903317995 [Eh]
	 Opposite-Spin Energy      =      -1.6288172011027344 [Eh]
	 Correlation Energy        =      -2.1525015914345338 [Eh]
	 Total Energy              =    -498.7163330863097599 [Eh]

	 ================> DF-SCS-MP2 Energies <==================
	-----------------------------------------------------------
	 SCS Same-Spin Scale       =       0.3333333333333333 [-]
	 SCS Opposite-Spin Scale   =       1.2000000000000000 [-]
	 SCS Same-Spin Energy      =      -0.1745614634439331 [Eh]
	 SCS Opposite-Spin Energy  =      -1.9545806413232811 [Eh]
	 SCS Correlation Energy    =      -2.1291421047672143 [Eh]
	 SCS Total Energy          =    -498.6929735996424142 [Eh]
	-----------------------------------------------------------

  Dipole Moment: [D]
     X:     0.5384      Y:    -0.1159      Z:    -1.2088     Total:     1.3283

*** Psi4 exiting successfully. Buy a developer a beer!
