                               Psi4 1.4a3.dev225

  ==> Input File <==

--------------------------------------------------------------------------
#psi4
#
memory 32 gb

molecule  {
0 1
  O        3.4036770    -0.5312700    -0.1399000
  O        1.8951010     0.2455770     1.3601080
  C       -0.2772440    -0.3351030    -0.4349210
  C       -0.8873890     0.9145300    -0.2106810
  C        1.1586640    -0.4340120    -0.8715550
  C       -1.0136460    -1.5104990    -0.2499190
  C       -2.2266560     0.9408910     0.1955810
  C       -0.1273370     2.2020410    -0.3962590
  C       -2.3465050    -1.4683140     0.1589870
  C       -2.9558630    -0.2342200     0.3827420
  C        2.1430500    -0.1948310     0.2522150
  H        1.3959000     0.2860400    -1.6653130
  H        1.3705120    -1.4228390    -1.2930960
  H       -0.5342380    -2.4720800    -0.4282290
  H       -2.7060670     1.9027110     0.3699220
  H        0.7120030     2.2634110     0.3019610
  H        0.2711870     2.2951320    -1.4130380
  H       -0.7808240     3.0602230    -0.2184200
  H       -2.9035660    -2.3916010     0.2984300
  H       -3.9950070    -0.1842490     0.6994320
  H        3.8603253    -0.3743539     0.4724777
units angstrom
no_reorient  #important for SAPT in psi4, default
symmetry c1  #important for SAPT in psi4, default
}

set PROPERTIES_ORIGIN ["COM"]
properties('MP2/aug-cc-pvtz', properties = ['dipole'])
--------------------------------------------------------------------------

    Molecular point group: c1
  Charge       = 0
  Multiplicity = 1
  Basis Set: AUG-CC-PVTZ
    Blend: AUG-CC-PVTZ
  Basis Set: (AUG-CC-PVTZ AUX)
    Blend: AUG-CC-PVTZ-JKFIT

    Orbital Energies [Eh]
    ---------------------

    Doubly Occupied:

       1A    -20.601842     2A    -20.559025     3A    -11.398598
       4A    -11.259744     5A    -11.245408     6A    -11.244239
       7A    -11.237512     8A    -11.235556     9A    -11.233158
      10A    -11.231866    11A    -11.223704    12A     -1.508079
      13A     -1.380398    14A     -1.161821    15A     -1.074658
      16A     -1.042925    17A     -0.989792    18A     -0.933331
      19A     -0.871619    20A     -0.815981    21A     -0.786289
      22A     -0.725275    23A     -0.693793    24A     -0.681357
      25A     -0.669875    26A     -0.632593    27A     -0.627492
      28A     -0.606549    29A     -0.580133    30A     -0.570443
      31A     -0.566157    32A     -0.552464    33A     -0.541618
      34A     -0.494426    35A     -0.488258    36A     -0.484902
      37A     -0.484810    38A     -0.461322    39A     -0.334352
      40A     -0.324295

  @DF-RHF Final Energy:  -496.52065682263066

   => Energetics <=

    Nuclear Repulsion Energy =            584.9937576938584698
    One-Electron Energy =               -1835.9175034684526508
    Two-Electron Energy =                 754.4030889519634684
    Total Energy =                       -496.5206568226307127
  Basis Set: (AUG-CC-PVTZ AUX)
    Blend: AUG-CC-PVTZ-RI
    Molecular point group: c1

    Geometry (in Angstrom), charge = 0, multiplicity = 1:

       Center              X                  Y                   Z               Mass
    ------------   -----------------  -----------------  -----------------  -----------------
         O            3.383534702496    -0.511157366974    -0.156779176999    15.994914619570
         O            1.874958702496     0.265689633026     1.343228823001    15.994914619570
         C           -0.297386297504    -0.314990366974    -0.451800176999    12.000000000000
         C           -0.907531297504     0.934642633026    -0.227560176999    12.000000000000
         C            1.138521702496    -0.413899366974    -0.888434176999    12.000000000000
         C           -1.033788297504    -1.490386366974    -0.266798176999    12.000000000000
         C           -2.246798297504     0.961003633026     0.178701823001    12.000000000000
         C           -0.147479297504     2.222153633026    -0.413138176999    12.000000000000
         C           -2.366647297504    -1.448201366974     0.142107823001    12.000000000000
         C           -2.976005297504    -0.214107366974     0.365862823001    12.000000000000
         C            2.122907702496    -0.174718366974     0.235335823001    12.000000000000
         H            1.375757702496     0.306152633026    -1.682192176999     1.007825032230
         H            1.350369702496    -1.402726366974    -1.309975176999     1.007825032230
         H           -0.554380297504    -2.451967366974    -0.445108176999     1.007825032230
         H           -2.726209297504     1.922823633026     0.353042823001     1.007825032230
         H            0.691860702496     2.283523633026     0.285081823001     1.007825032230
         H            0.251044702496     2.315244633026    -1.429917176999     1.007825032230
         H           -0.800966297504     3.080335633026    -0.235299176999     1.007825032230
         H           -2.923708297504    -2.371488366974     0.281550823001     1.007825032230
         H           -4.015149297504    -0.164136366974     0.682552823001     1.007825032230
         H            3.840183002496    -0.354241266974     0.455598523001     1.007825032230

  Basis Set: AUG-CC-PVTZ
    Blend: AUG-CC-PVTZ
  Basis Set: (AUG-CC-PVTZ AUX)
    Blend: AUG-CC-PVTZ-JKFIT
	 Reference Energy          =    -496.5206568226306558 [Eh]
	 Singles Energy            =      -0.0000000000000000 [Eh]
	 Same-Spin Energy          =      -0.5211849529635872 [Eh]
	 Opposite-Spin Energy      =      -1.6233732094122613 [Eh]
	 Correlation Energy        =      -2.1445581623758487 [Eh]
	 Total Energy              =    -498.6652149850065143 [Eh]

	 ================> DF-SCS-MP2 Energies <==================
	-----------------------------------------------------------
	 SCS Same-Spin Scale       =       0.3333333333333333 [-]
	 SCS Opposite-Spin Scale   =       1.2000000000000000 [-]
	 SCS Same-Spin Energy      =      -0.1737283176545291 [Eh]
	 SCS Opposite-Spin Energy  =      -1.9480478512947135 [Eh]
	 SCS Correlation Energy    =      -2.1217761689492427 [Eh]
	 SCS Total Energy          =    -498.6424329915798808 [Eh]
	-----------------------------------------------------------

  Dipole Moment: [D]
     X:     0.3210      Y:    -0.1316      Z:    -1.3493     Total:     1.3932

*** Psi4 exiting successfully. Buy a developer a beer!
