                               Psi4 1.4a3.dev225

  ==> Input File <==

--------------------------------------------------------------------------
#psi4
#
memory 32 gb

molecule  {
0 1
  O        3.4036770    -0.5312700    -0.1399000
  O        1.8951010     0.2455770     1.3601080
  C       -0.2772440    -0.3351030    -0.4349210
  C       -0.8873890     0.9145300    -0.2106810
  C        1.1586640    -0.4340120    -0.8715550
  C       -1.0136460    -1.5104990    -0.2499190
  C       -2.1309789     0.9390078     0.1665577
  C       -0.1273370     2.2020410    -0.3962590
  C       -2.3465050    -1.4683140     0.1589870
  C       -2.9558630    -0.2342200     0.3827420
  C        2.1430500    -0.1948310     0.2522150
  H        1.3959000     0.2860400    -1.6653130
  H        1.3705120    -1.4228390    -1.2930960
  H       -0.5342380    -2.4720800    -0.4282290
  H       -2.7060670     1.9027110     0.3699220
  H        0.7120030     2.2634110     0.3019610
  H        0.2711870     2.2951320    -1.4130380
  H       -0.7808240     3.0602230    -0.2184200
  H       -2.9035660    -2.3916010     0.2984300
  H       -3.9950070    -0.1842490     0.6994320
  H        3.9774380    -0.3341110     0.6295290
units angstrom
no_reorient  #important for SAPT in psi4, default
symmetry c1  #important for SAPT in psi4, default
}

set PROPERTIES_ORIGIN ["COM"]
properties('MP2/aug-cc-pvtz', properties = ['dipole'])
--------------------------------------------------------------------------

    Molecular point group: c1
  Charge       = 0
  Multiplicity = 1
  Basis Set: AUG-CC-PVTZ
    Blend: AUG-CC-PVTZ
  Basis Set: (AUG-CC-PVTZ AUX)
    Blend: AUG-CC-PVTZ-JKFIT

    Orbital Energies [Eh]
    ---------------------

    Doubly Occupied:

       1A    -20.619051     2A    -20.555144     3A    -11.394957
       4A    -11.258876     5A    -11.246140     6A    -11.239610
       7A    -11.235952     8A    -11.232958     9A    -11.231206
      10A    -11.228554    11A    -11.221389    12A     -1.463094
      13A     -1.360584    14A     -1.167935    15A     -1.068082
      16A     -1.051290    17A     -0.974868    18A     -0.933744
      19A     -0.845893    20A     -0.805851    21A     -0.782520
      22A     -0.708893    23A     -0.689593    24A     -0.678201
      25A     -0.666838    26A     -0.630829    27A     -0.620262
      28A     -0.596983    29A     -0.574846    30A     -0.570879
      31A     -0.565975    32A     -0.550039    33A     -0.535213
      34A     -0.497376    35A     -0.492709    36A     -0.482045
      37A     -0.467706    38A     -0.458118    39A     -0.341582
      40A     -0.322355

  @DF-RHF Final Energy:  -496.55123813867004

   => Energetics <=

    Nuclear Repulsion Energy =            585.0554756779580430
    One-Electron Energy =               -1836.4771531759383834
    Two-Electron Energy =                 754.8704393593104669
    Total Energy =                       -496.5512381386699872
  Basis Set: (AUG-CC-PVTZ AUX)
    Blend: AUG-CC-PVTZ-RI
    Molecular point group: c1

    Geometry (in Angstrom), charge = 0, multiplicity = 1:

       Center              X                  Y                   Z               Mass
    ------------   -----------------  -----------------  -----------------  -----------------
         O            3.375097503097    -0.511277042005    -0.155513089174    15.994914619570
         O            1.866521503097     0.265569957995     1.344494910826    15.994914619570
         C           -0.305823496903    -0.315110042005    -0.450534089174    12.000000000000
         C           -0.915968496903     0.934522957995    -0.226294089174    12.000000000000
         C            1.130084503097    -0.414019042005    -0.887168089174    12.000000000000
         C           -1.042225496903    -1.490506042005    -0.265532089174    12.000000000000
         C           -2.159558396903     0.959000757995     0.150944610826    12.000000000000
         C           -0.155916496903     2.222033957995    -0.411872089174    12.000000000000
         C           -2.375084496903    -1.448321042005     0.143373910826    12.000000000000
         C           -2.984442496903    -0.214227042005     0.367128910826    12.000000000000
         C            2.114470503097    -0.174838042005     0.236601910826    12.000000000000
         H            1.367320503097     0.306032957995    -1.680926089174     1.007825032230
         H            1.341932503097    -1.402846042005    -1.308709089174     1.007825032230
         H           -0.562817496903    -2.452087042005    -0.443842089174     1.007825032230
         H           -2.734646496903     1.922703957995     0.354308910826     1.007825032230
         H            0.683423503097     2.283403957995     0.286347910826     1.007825032230
         H            0.242607503097     2.315124957995    -1.428651089174     1.007825032230
         H           -0.809403496903     3.080215957995    -0.234033089174     1.007825032230
         H           -2.932145496903    -2.371608042005     0.282816910826     1.007825032230
         H           -4.023586496903    -0.164256042005     0.683818910826     1.007825032230
         H            3.948858503097    -0.314118042005     0.613915910826     1.007825032230

  Basis Set: AUG-CC-PVTZ
    Blend: AUG-CC-PVTZ
  Basis Set: (AUG-CC-PVTZ AUX)
    Blend: AUG-CC-PVTZ-JKFIT
	 Reference Energy          =    -496.5512381386700440 [Eh]
	 Singles Energy            =      -0.0000000000000000 [Eh]
	 Same-Spin Energy          =      -0.5233934533926212 [Eh]
	 Opposite-Spin Energy      =      -1.6291038415278960 [Eh]
	 Correlation Energy        =      -2.1524972949205172 [Eh]
	 Total Energy              =    -498.7037354335905661 [Eh]

	 ================> DF-SCS-MP2 Energies <==================
	-----------------------------------------------------------
	 SCS Same-Spin Scale       =       0.3333333333333333 [-]
	 SCS Opposite-Spin Scale   =       1.2000000000000000 [-]
	 SCS Same-Spin Energy      =      -0.1744644844642071 [Eh]
	 SCS Opposite-Spin Energy  =      -1.9549246098334752 [Eh]
	 SCS Correlation Energy    =      -2.1293890942976823 [Eh]
	 SCS Total Energy          =    -498.6806272329677086 [Eh]
	-----------------------------------------------------------

  Dipole Moment: [D]
     X:     0.5250      Y:    -0.1891      Z:    -1.2111     Total:     1.3335

*** Psi4 exiting successfully. Buy a developer a beer!
