                               Psi4 1.4a3.dev225

  ==> Input File <==

--------------------------------------------------------------------------
#psi4
#
memory 32 gb

molecule  {
0 1
  O        3.4036770    -0.5312700    -0.1399000
  O        1.8951010     0.2455770     1.3601080
  C       -0.2772440    -0.3351030    -0.4349210
  C       -0.8873890     0.9145300    -0.2106810
  C        1.1586640    -0.4340120    -0.8715550
  C       -1.0136460    -1.5104990    -0.2499190
  C       -2.2266560     0.9408910     0.1955810
  C       -0.1273370     2.2020410    -0.3962590
  C       -2.3465050    -1.4683140     0.1589870
  C       -2.9558630    -0.2342200     0.3827420
  C        2.1430500    -0.1948310     0.2522150
  H        1.3959000     0.2860400    -1.6653130
  H        1.3705120    -1.4228390    -1.2930960
  H       -0.5342380    -2.4720800    -0.4282290
  H       -2.7060670     1.9027110     0.3699220
  H        0.7120030     2.2634110     0.3019610
  H        0.2711870     2.2951320    -1.4130380
  H       -0.7808240     3.0602230    -0.2184200
  H       -2.9291827    -2.4340588     0.3048424
  H       -3.9950070    -0.1842490     0.6994320
  H        3.9774380    -0.3341110     0.6295290
units angstrom
no_reorient  #important for SAPT in psi4, default
symmetry c1  #important for SAPT in psi4, default
}

set PROPERTIES_ORIGIN ["COM"]
properties('MP2/aug-cc-pvtz', properties = ['dipole'])
--------------------------------------------------------------------------

    Molecular point group: c1
  Charge       = 0
  Multiplicity = 1
  Basis Set: AUG-CC-PVTZ
    Blend: AUG-CC-PVTZ
  Basis Set: (AUG-CC-PVTZ AUX)
    Blend: AUG-CC-PVTZ-JKFIT

    Orbital Energies [Eh]
    ---------------------

    Doubly Occupied:

       1A    -20.618986     2A    -20.555002     3A    -11.394805
       4A    -11.258856     5A    -11.244901     6A    -11.243681
       7A    -11.238777     8A    -11.236878     9A    -11.235045
      10A    -11.231509    11A    -11.223007    12A     -1.463000
      13A     -1.360440    14A     -1.160965    15A     -1.070562
      16A     -1.041234    17A     -0.982163    18A     -0.929110
      19A     -0.841024    20A     -0.811657    21A     -0.776161
      22A     -0.708760    23A     -0.688599    24A     -0.676277
      25A     -0.667021    26A     -0.628100    27A     -0.624087
      28A     -0.596514    29A     -0.577105    30A     -0.568403
      31A     -0.561468    32A     -0.549040    33A     -0.540788
      34A     -0.491643    35A     -0.487141    36A     -0.482116
      37A     -0.481481    38A     -0.457958    39A     -0.333836
      40A     -0.323701

  @DF-RHF Final Energy:  -496.56196398522445

   => Energetics <=

    Nuclear Repulsion Energy =            583.2773430241359165
    One-Electron Energy =               -1832.9550085735586435
    Two-Electron Energy =                 753.1157015641982753
    Total Energy =                       -496.5619639852244518
  Basis Set: (AUG-CC-PVTZ AUX)
    Blend: AUG-CC-PVTZ-RI
    Molecular point group: c1

    Geometry (in Angstrom), charge = 0, multiplicity = 1:

       Center              X                  Y                   Z               Mass
    ------------   -----------------  -----------------  -----------------  -----------------
         O            3.382920234986    -0.511142492181    -0.157876964145    15.994914619570
         O            1.874344234986     0.265704507819     1.342131035855    15.994914619570
         C           -0.298000765014    -0.314975492181    -0.452897964145    12.000000000000
         C           -0.908145765014     0.934657507819    -0.228657964145    12.000000000000
         C            1.137907234986    -0.413884492181    -0.889531964145    12.000000000000
         C           -1.034402765014    -1.490371492181    -0.267895964145    12.000000000000
         C           -2.247412765014     0.961018507819     0.177604035855    12.000000000000
         C           -0.148093765014     2.222168507819    -0.414235964145    12.000000000000
         C           -2.367261765014    -1.448186492181     0.141010035855    12.000000000000
         C           -2.976619765014    -0.214092492181     0.364765035855    12.000000000000
         C            2.122293234986    -0.174703492181     0.234238035855    12.000000000000
         H            1.375143234986     0.306167507819    -1.683289964145     1.007825032230
         H            1.349755234986    -1.402711492181    -1.311072964145     1.007825032230
         H           -0.554994765014    -2.451952492181    -0.446205964145     1.007825032230
         H           -2.726823765014     1.922838507819     0.351945035855     1.007825032230
         H            0.691246234986     2.283538507819     0.283984035855     1.007825032230
         H            0.250430234986     2.315259507819    -1.431014964145     1.007825032230
         H           -0.801580765014     3.080350507819    -0.236396964145     1.007825032230
         H           -2.949939465014    -2.413931292181     0.286865435855     1.007825032230
         H           -4.015763765014    -0.164121492181     0.681455035855     1.007825032230
         H            3.956681234986    -0.313983492181     0.611552035855     1.007825032230

  Basis Set: AUG-CC-PVTZ
    Blend: AUG-CC-PVTZ
  Basis Set: (AUG-CC-PVTZ AUX)
    Blend: AUG-CC-PVTZ-JKFIT
	 Reference Energy          =    -496.5619639852244518 [Eh]
	 Singles Energy            =      -0.0000000000000000 [Eh]
	 Same-Spin Energy          =      -0.5237405653791670 [Eh]
	 Opposite-Spin Energy      =      -1.6290856741894846 [Eh]
	 Correlation Energy        =      -2.1528262395686517 [Eh]
	 Total Energy              =    -498.7147902247930915 [Eh]

	 ================> DF-SCS-MP2 Energies <==================
	-----------------------------------------------------------
	 SCS Same-Spin Scale       =       0.3333333333333333 [-]
	 SCS Opposite-Spin Scale   =       1.2000000000000000 [-]
	 SCS Same-Spin Energy      =      -0.1745801884597223 [Eh]
	 SCS Opposite-Spin Energy  =      -1.9549028090273814 [Eh]
	 SCS Correlation Energy    =      -2.1294829974871039 [Eh]
	 SCS Total Energy          =    -498.6914469827115681 [Eh]
	-----------------------------------------------------------

  Dipole Moment: [D]
     X:     0.5587      Y:    -0.0959      Z:    -1.2143     Total:     1.3401

*** Psi4 exiting successfully. Buy a developer a beer!
