                               Psi4 1.4a3.dev225

  ==> Input File <==

--------------------------------------------------------------------------
#psi4
#
memory 32 gb

molecule  {
0 1
  O        3.4036770    -0.5312700    -0.1399000
  O        1.8951010     0.2455770     1.3601080
  C       -0.2772440    -0.3351030    -0.4349210
  C       -0.8873890     0.9145300    -0.2106810
  C        1.1586640    -0.4340120    -0.8715550
  C       -1.0136460    -1.5104990    -0.2499190
  C       -2.2266560     0.9408910     0.1955810
  C       -0.1273370     2.2020410    -0.3962590
  C       -2.3465050    -1.4683140     0.1589870
  C       -2.9558630    -0.2342200     0.3827420
  C        2.1430500    -0.1948310     0.2522150
  H        1.3959000     0.2860400    -1.6653130
  H        1.3801801    -1.4679659    -1.3123338
  H       -0.5342380    -2.4720800    -0.4282290
  H       -2.7060670     1.9027110     0.3699220
  H        0.7120030     2.2634110     0.3019610
  H        0.2711870     2.2951320    -1.4130380
  H       -0.7808240     3.0602230    -0.2184200
  H       -2.9035660    -2.3916010     0.2984300
  H       -3.9950070    -0.1842490     0.6994320
  H        3.9774380    -0.3341110     0.6295290
units angstrom
no_reorient  #important for SAPT in psi4, default
symmetry c1  #important for SAPT in psi4, default
}

set PROPERTIES_ORIGIN ["COM"]
properties('MP2/aug-cc-pvtz', properties = ['dipole'])
--------------------------------------------------------------------------

    Molecular point group: c1
  Charge       = 0
  Multiplicity = 1
  Basis Set: AUG-CC-PVTZ
    Blend: AUG-CC-PVTZ
  Basis Set: (AUG-CC-PVTZ AUX)
    Blend: AUG-CC-PVTZ-JKFIT

    Orbital Energies [Eh]
    ---------------------

    Doubly Occupied:

       1A    -20.618694     2A    -20.555107     3A    -11.394980
       4A    -11.264145     5A    -11.244887     6A    -11.243706
       7A    -11.236690     8A    -11.234910     9A    -11.232455
      10A    -11.231255    11A    -11.223046    12A     -1.462836
      13A     -1.360407    14A     -1.160720    15A     -1.069097
      16A     -1.041430    17A     -0.980772    18A     -0.930437
      19A     -0.840786    20A     -0.811399    21A     -0.777275
      22A     -0.708605    23A     -0.688240    24A     -0.678199
      25A     -0.664688    26A     -0.627954    27A     -0.625275
      28A     -0.596449    29A     -0.577930    30A     -0.567855
      31A     -0.564026    32A     -0.543919    33A     -0.540714
      34A     -0.491522    35A     -0.486827    36A     -0.484089
      37A     -0.481351    38A     -0.457682    39A     -0.333543
      40A     -0.323594

  @DF-RHF Final Energy:  -496.56209456600982

   => Energetics <=

    Nuclear Repulsion Energy =            583.2728876468064527
    One-Electron Energy =               -1832.9549735715834231
    Two-Electron Energy =                 753.1199913587670380
    Total Energy =                       -496.5620945660098187
  Basis Set: (AUG-CC-PVTZ AUX)
    Blend: AUG-CC-PVTZ-RI
    Molecular point group: c1

    Geometry (in Angstrom), charge = 0, multiplicity = 1:

       Center              X                  Y                   Z               Mass
    ------------   -----------------  -----------------  -----------------  -----------------
         O            3.382683269838    -0.511124567078    -0.157704702904    15.994914619570
         O            1.874107269838     0.265722432922     1.342303297096    15.994914619570
         C           -0.298237730162    -0.314957567078    -0.452725702904    12.000000000000
         C           -0.908382730162     0.934675432922    -0.228485702904    12.000000000000
         C            1.137670269838    -0.413866567078    -0.889359702904    12.000000000000
         C           -1.034639730162    -1.490353567078    -0.267723702904    12.000000000000
         C           -2.247649730162     0.961036432922     0.177776297096    12.000000000000
         C           -0.148330730162     2.222186432922    -0.414063702904    12.000000000000
         C           -2.367498730162    -1.448168567078     0.141182297096    12.000000000000
         C           -2.976856730162    -0.214074567078     0.364937297096    12.000000000000
         C            2.122056269838    -0.174685567078     0.234410297096    12.000000000000
         H            1.374906269838     0.306185432922    -1.683117702904     1.007825032230
         H            1.359186369838    -1.447820467078    -1.330138502904     1.007825032230
         H           -0.555231730162    -2.451934567078    -0.446033702904     1.007825032230
         H           -2.727060730162     1.922856432922     0.352117297096     1.007825032230
         H            0.691009269838     2.283556432922     0.284156297096     1.007825032230
         H            0.250193269838     2.315277432922    -1.430842702904     1.007825032230
         H           -0.801817730162     3.080368432922    -0.236224702904     1.007825032230
         H           -2.924559730162    -2.371455567078     0.280625297096     1.007825032230
         H           -4.016000730162    -0.164103567078     0.681627297096     1.007825032230
         H            3.956444269838    -0.313965567078     0.611724297096     1.007825032230

  Basis Set: AUG-CC-PVTZ
    Blend: AUG-CC-PVTZ
  Basis Set: (AUG-CC-PVTZ AUX)
    Blend: AUG-CC-PVTZ-JKFIT
	 Reference Energy          =    -496.5620945660098187 [Eh]
	 Singles Energy            =      -0.0000000000000000 [Eh]
	 Same-Spin Energy          =      -0.5237400582337102 [Eh]
	 Opposite-Spin Energy      =      -1.6291175288162296 [Eh]
	 Correlation Energy        =      -2.1528575870499398 [Eh]
	 Total Energy              =    -498.7149521530597553 [Eh]

	 ================> DF-SCS-MP2 Energies <==================
	-----------------------------------------------------------
	 SCS Same-Spin Scale       =       0.3333333333333333 [-]
	 SCS Opposite-Spin Scale   =       1.2000000000000000 [-]
	 SCS Same-Spin Energy      =      -0.1745800194112367 [Eh]
	 SCS Opposite-Spin Energy  =      -1.9549410345794755 [Eh]
	 SCS Correlation Energy    =      -2.1295210539907123 [Eh]
	 SCS Total Energy          =    -498.6916156200005048 [Eh]
	-----------------------------------------------------------

  Dipole Moment: [D]
     X:     0.5330      Y:    -0.1071      Z:    -1.2037     Total:     1.3208

*** Psi4 exiting successfully. Buy a developer a beer!
