                               Psi4 1.4a3.dev225

  ==> Input File <==

--------------------------------------------------------------------------
#psi4
#
memory 32 gb

molecule  {
0 1
  O        3.4036770    -0.5312700    -0.1399000
  O        1.8951010     0.2455770     1.3601080
  C       -0.2772440    -0.3351030    -0.4349210
  C       -0.8873890     0.9145300    -0.2106810
  C        1.1586640    -0.4340120    -0.8715550
  C       -1.0136460    -1.5104990    -0.2499190
  C       -2.2266560     0.9408910     0.1955810
  C       -0.1273370     2.2020410    -0.3962590
  C       -2.3465050    -1.4683140     0.1589870
  C       -2.9558630    -0.2342200     0.3827420
  C        2.1430500    -0.1948310     0.2522150
  H        1.3959000     0.2860400    -1.6653130
  H        1.3705120    -1.4228390    -1.2930960
  H       -0.5562462    -2.4279367    -0.4200433
  H       -2.7060670     1.9027110     0.3699220
  H        0.7120030     2.2634110     0.3019610
  H        0.2711870     2.2951320    -1.4130380
  H       -0.7808240     3.0602230    -0.2184200
  H       -2.9035660    -2.3916010     0.2984300
  H       -3.9950070    -0.1842490     0.6994320
  H        3.9774380    -0.3341110     0.6295290
units angstrom
no_reorient  #important for SAPT in psi4, default
symmetry c1  #important for SAPT in psi4, default
}

set PROPERTIES_ORIGIN ["COM"]
properties('MP2/aug-cc-pvtz', properties = ['dipole'])
--------------------------------------------------------------------------

    Molecular point group: c1
  Charge       = 0
  Multiplicity = 1
  Basis Set: AUG-CC-PVTZ
    Blend: AUG-CC-PVTZ
  Basis Set: (AUG-CC-PVTZ AUX)
    Blend: AUG-CC-PVTZ-JKFIT

    Orbital Energies [Eh]
    ---------------------

    Doubly Occupied:

       1A    -20.618916     2A    -20.554922     3A    -11.394704
       4A    -11.258711     5A    -11.244130     6A    -11.242975
       7A    -11.234451     8A    -11.232243     9A    -11.230915
      10A    -11.230343    11A    -11.222646    12A     -1.462926
      13A     -1.360359    14A     -1.160854    15A     -1.070521
      16A     -1.042413    17A     -0.982844    18A     -0.930090
      19A     -0.841836    20A     -0.815017    21A     -0.777904
      22A     -0.708950    23A     -0.689323    24A     -0.680020
      25A     -0.667632    26A     -0.630273    27A     -0.627735
      28A     -0.596378    29A     -0.579132    30A     -0.568727
      31A     -0.564727    32A     -0.549624    33A     -0.540382
      34A     -0.491267    35A     -0.488297    36A     -0.483769
      37A     -0.481403    38A     -0.457851    39A     -0.333252
      40A     -0.323114

  @DF-RHF Final Energy:  -496.56369877971764

   => Energetics <=

    Nuclear Repulsion Energy =            583.7957141094161670
    One-Electron Energy =               -1833.9756756506203601
    Two-Electron Energy =                 753.6162627614866096
    Total Energy =                       -496.5636987797175834
  Basis Set: (AUG-CC-PVTZ AUX)
    Blend: AUG-CC-PVTZ-RI
    Molecular point group: c1

    Geometry (in Angstrom), charge = 0, multiplicity = 1:

       Center              X                  Y                   Z               Mass
    ------------   -----------------  -----------------  -----------------  -----------------
         O            3.382896001074    -0.511724086592    -0.157888873247    15.994914619570
         O            1.874320001074     0.265122913408     1.342119126753    15.994914619570
         C           -0.298024998926    -0.315557086592    -0.452909873247    12.000000000000
         C           -0.908169998926     0.934075913408    -0.228669873247    12.000000000000
         C            1.137883001074    -0.414466086592    -0.889543873247    12.000000000000
         C           -1.034426998926    -1.490953086592    -0.267907873247    12.000000000000
         C           -2.247436998926     0.960436913408     0.177592126753    12.000000000000
         C           -0.148117998926     2.221586913408    -0.414247873247    12.000000000000
         C           -2.367285998926    -1.448768086592     0.140998126753    12.000000000000
         C           -2.976643998926    -0.214674086592     0.364753126753    12.000000000000
         C            2.122269001074    -0.175285086592     0.234226126753    12.000000000000
         H            1.375119001074     0.305585913408    -1.683301873247     1.007825032230
         H            1.349731001074    -1.403293086592    -1.311084873247     1.007825032230
         H           -0.577027198926    -2.408390786592    -0.438032173247     1.007825032230
         H           -2.726847998926     1.922256913408     0.351933126753     1.007825032230
         H            0.691222001074     2.282956913408     0.283972126753     1.007825032230
         H            0.250406001074     2.314677913408    -1.431026873247     1.007825032230
         H           -0.801604998926     3.079768913408    -0.236408873247     1.007825032230
         H           -2.924346998926    -2.372055086592     0.280441126753     1.007825032230
         H           -4.015787998926    -0.164703086592     0.681443126753     1.007825032230
         H            3.956657001074    -0.314565086592     0.611540126753     1.007825032230

  Basis Set: AUG-CC-PVTZ
    Blend: AUG-CC-PVTZ
  Basis Set: (AUG-CC-PVTZ AUX)
    Blend: AUG-CC-PVTZ-JKFIT
	 Reference Energy          =    -496.5636987797176403 [Eh]
	 Singles Energy            =      -0.0000000000000000 [Eh]
	 Same-Spin Energy          =      -0.5235412868739371 [Eh]
	 Opposite-Spin Energy      =      -1.6283306100297537 [Eh]
	 Correlation Energy        =      -2.1518718969036907 [Eh]
	 Total Energy              =    -498.7155706766213257 [Eh]

	 ================> DF-SCS-MP2 Energies <==================
	-----------------------------------------------------------
	 SCS Same-Spin Scale       =       0.3333333333333333 [-]
	 SCS Opposite-Spin Scale   =       1.2000000000000000 [-]
	 SCS Same-Spin Energy      =      -0.1745137622913124 [Eh]
	 SCS Opposite-Spin Energy  =      -1.9539967320357043 [Eh]
	 SCS Correlation Energy    =      -2.1285104943270166 [Eh]
	 SCS Total Energy          =    -498.6922092740446715 [Eh]
	-----------------------------------------------------------

  Dipole Moment: [D]
     X:     0.5549      Y:    -0.1336      Z:    -1.2154     Total:     1.3428

*** Psi4 exiting successfully. Buy a developer a beer!
