                               Psi4 1.4a3.dev225

  ==> Input File <==

--------------------------------------------------------------------------
#psi4
#
memory 32 gb

molecule  {
0 1
  O        3.4036770    -0.5312700    -0.1399000
  O        1.8951010     0.2455770     1.3601080
  C       -0.2772440    -0.3351030    -0.4349210
  C       -0.8873890     0.9145300    -0.2106810
  C        1.1586640    -0.4340120    -0.8715550
  C       -1.0136460    -1.5104990    -0.2499190
  C       -2.2260889     0.8432538     0.1920374
  C       -0.1273370     2.2020410    -0.3962590
  C       -2.3465050    -1.4683140     0.1589870
  C       -2.9558630    -0.2342200     0.3827420
  C        2.1430500    -0.1948310     0.2522150
  H        1.3959000     0.2860400    -1.6653130
  H        1.3705120    -1.4228390    -1.2930960
  H       -0.5342380    -2.4720800    -0.4282290
  H       -2.7060670     1.9027110     0.3699220
  H        0.7120030     2.2634110     0.3019610
  H        0.2711870     2.2951320    -1.4130380
  H       -0.7808240     3.0602230    -0.2184200
  H       -2.9035660    -2.3916010     0.2984300
  H       -3.9950070    -0.1842490     0.6994320
  H        3.9774380    -0.3341110     0.6295290
units angstrom
no_reorient  #important for SAPT in psi4, default
symmetry c1  #important for SAPT in psi4, default
}

set PROPERTIES_ORIGIN ["COM"]
properties('MP2/aug-cc-pvtz', properties = ['dipole'])
--------------------------------------------------------------------------

    Molecular point group: c1
  Charge       = 0
  Multiplicity = 1
  Basis Set: AUG-CC-PVTZ
    Blend: AUG-CC-PVTZ
  Basis Set: (AUG-CC-PVTZ AUX)
    Blend: AUG-CC-PVTZ-JKFIT

    Orbital Energies [Eh]
    ---------------------

    Doubly Occupied:

       1A    -20.619042     2A    -20.555119     3A    -11.394968
       4A    -11.258121     5A    -11.244381     6A    -11.243222
       7A    -11.234856     8A    -11.232871     9A    -11.230290
      10A    -11.225606    11A    -11.224615    12A     -1.463080
      13A     -1.360547    14A     -1.167746    15A     -1.077532
      16A     -1.039088    17A     -0.988481    18A     -0.932243
      19A     -0.840234    20A     -0.810969    21A     -0.777981
      22A     -0.708665    23A     -0.690803    24A     -0.681577
      25A     -0.667467    26A     -0.631349    27A     -0.614223
      28A     -0.596878    29A     -0.578964    30A     -0.568736
      31A     -0.565393    32A     -0.549940    33A     -0.537586
      34A     -0.498058    35A     -0.493626    36A     -0.483219
      37A     -0.466628    38A     -0.458409    39A     -0.341914
      40A     -0.321281

  @DF-RHF Final Energy:  -496.55191289115527

   => Energetics <=

    Nuclear Repulsion Energy =            584.8699651132615145
    One-Electron Energy =               -1836.0923392624686130
    Two-Electron Energy =                 754.6704612580517733
    Total Energy =                       -496.5519128911553253
  Basis Set: (AUG-CC-PVTZ AUX)
    Blend: AUG-CC-PVTZ-RI
    Molecular point group: c1

    Geometry (in Angstrom), charge = 0, multiplicity = 1:

       Center              X                  Y                   Z               Mass
    ------------   -----------------  -----------------  -----------------  -----------------
         O            3.382702851306    -0.503620197169    -0.157550540449    15.994914619570
         O            1.874126851306     0.273226802831     1.342457459551    15.994914619570
         C           -0.298218148694    -0.307453197169    -0.452571540449    12.000000000000
         C           -0.908363148694     0.942179802831    -0.228331540449    12.000000000000
         C            1.137689851306    -0.406362197169    -0.889205540449    12.000000000000
         C           -1.034620148694    -1.482849197169    -0.267569540449    12.000000000000
         C           -2.247063048694     0.870903602831     0.174386859551    12.000000000000
         C           -0.148311148694     2.229690802831    -0.413909540449    12.000000000000
         C           -2.367479148694    -1.440664197169     0.141336459551    12.000000000000
         C           -2.976837148694    -0.206570197169     0.365091459551    12.000000000000
         C            2.122075851306    -0.167181197169     0.234564459551    12.000000000000
         H            1.374925851306     0.313689802831    -1.682963540449     1.007825032230
         H            1.349537851306    -1.395189197169    -1.310746540449     1.007825032230
         H           -0.555212148694    -2.444430197169    -0.445879540449     1.007825032230
         H           -2.727041148694     1.930360802831     0.352271459551     1.007825032230
         H            0.691028851306     2.291060802831     0.284310459551     1.007825032230
         H            0.250212851306     2.322781802831    -1.430688540449     1.007825032230
         H           -0.801798148694     3.087872802831    -0.236070540449     1.007825032230
         H           -2.924540148694    -2.363951197169     0.280779459551     1.007825032230
         H           -4.015981148694    -0.156599197169     0.681781459551     1.007825032230
         H            3.956463851306    -0.306461197169     0.611878459551     1.007825032230

  Basis Set: AUG-CC-PVTZ
    Blend: AUG-CC-PVTZ
  Basis Set: (AUG-CC-PVTZ AUX)
    Blend: AUG-CC-PVTZ-JKFIT
	 Reference Energy          =    -496.5519128911552684 [Eh]
	 Singles Energy            =      -0.0000000000000000 [Eh]
	 Same-Spin Energy          =      -0.5240369850886391 [Eh]
	 Opposite-Spin Energy      =      -1.6289992870150372 [Eh]
	 Correlation Energy        =      -2.1530362721036762 [Eh]
	 Total Energy              =    -498.7049491632589593 [Eh]

	 ================> DF-SCS-MP2 Energies <==================
	-----------------------------------------------------------
	 SCS Same-Spin Scale       =       0.3333333333333333 [-]
	 SCS Opposite-Spin Scale   =       1.2000000000000000 [-]
	 SCS Same-Spin Energy      =      -0.1746789950295463 [Eh]
	 SCS Opposite-Spin Energy  =      -1.9547991444180446 [Eh]
	 SCS Correlation Energy    =      -2.1294781394475910 [Eh]
	 SCS Total Energy          =    -498.6813910306028674 [Eh]
	-----------------------------------------------------------

  Dipole Moment: [D]
     X:     0.5828      Y:    -0.1425      Z:    -1.2263     Total:     1.3652

*** Psi4 exiting successfully. Buy a developer a beer!
