                               Psi4 1.4a3.dev225

  ==> Input File <==

--------------------------------------------------------------------------
#psi4
#
memory 32 gb

molecule  {
0 1
  O        3.4036770    -0.5312700    -0.1399000
  O        1.8951010     0.2455770     1.3601080
  C       -0.2772440    -0.3351030    -0.4349210
  C       -0.8873890     0.9145300    -0.2106810
  C        1.1586640    -0.4340120    -0.8715550
  C       -1.0136460    -1.5104990    -0.2499190
  C       -2.2266560     0.9408910     0.1955810
  C       -0.1273370     2.2020410    -0.3962590
  C       -2.3465050    -1.4683140     0.1589870
  C       -2.9558630    -0.2342200     0.3827420
  C        2.1430500    -0.1948310     0.2522150
  H        1.3742867     0.2204398    -1.5929979
  H        1.3705120    -1.4228390    -1.2930960
  H       -0.5342380    -2.4720800    -0.4282290
  H       -2.7060670     1.9027110     0.3699220
  H        0.7120030     2.2634110     0.3019610
  H        0.2711870     2.2951320    -1.4130380
  H       -0.7808240     3.0602230    -0.2184200
  H       -2.9035660    -2.3916010     0.2984300
  H       -3.9950070    -0.1842490     0.6994320
  H        3.9774380    -0.3341110     0.6295290
units angstrom
no_reorient  #important for SAPT in psi4, default
symmetry c1  #important for SAPT in psi4, default
}

set PROPERTIES_ORIGIN ["COM"]
properties('MP2/aug-cc-pvtz', properties = ['dipole'])
--------------------------------------------------------------------------

    Molecular point group: c1
  Charge       = 0
  Multiplicity = 1
  Basis Set: AUG-CC-PVTZ
    Blend: AUG-CC-PVTZ
  Basis Set: (AUG-CC-PVTZ AUX)
    Blend: AUG-CC-PVTZ-JKFIT

    Orbital Energies [Eh]
    ---------------------

    Doubly Occupied:

       1A    -20.619221     2A    -20.554777     3A    -11.394273
       4A    -11.247215     5A    -11.244188     6A    -11.243042
       7A    -11.236200     8A    -11.234558     9A    -11.232157
      10A    -11.230977    11A    -11.223030    12A     -1.463075
      13A     -1.360346    14A     -1.161198    15A     -1.075247
      16A     -1.041810    17A     -0.984805    18A     -0.930618
      19A     -0.841674    20A     -0.812135    21A     -0.782181
      22A     -0.709180    23A     -0.691651    24A     -0.683431
      25A     -0.669002    26A     -0.628053    27A     -0.625889
      28A     -0.597710    29A     -0.579523    30A     -0.568713
      31A     -0.564744    32A     -0.555712    33A     -0.540530
      34A     -0.491523    35A     -0.486594    36A     -0.484894
      37A     -0.481519    38A     -0.457860    39A     -0.333370
      40A     -0.323341

  @DF-RHF Final Energy:  -496.55892281554355

   => Energetics <=

    Nuclear Repulsion Energy =            584.0702277447743427
    One-Electron Energy =               -1834.4863709703365657
    Two-Electron Energy =                 753.8572204100187264
    Total Energy =                       -496.5589228155436103
  Basis Set: (AUG-CC-PVTZ AUX)
    Blend: AUG-CC-PVTZ-RI
    Molecular point group: c1

    Geometry (in Angstrom), charge = 0, multiplicity = 1:

       Center              X                  Y                   Z               Mass
    ------------   -----------------  -----------------  -----------------  -----------------
         O            3.382893349011    -0.510987072787    -0.158319552542    15.994914619570
         O            1.874317349011     0.265859927213     1.341688447458    15.994914619570
         C           -0.298027650989    -0.314820072787    -0.453340552542    12.000000000000
         C           -0.908172650989     0.934812927213    -0.229100552542    12.000000000000
         C            1.137880349011    -0.413729072787    -0.889974552542    12.000000000000
         C           -1.034429650989    -1.490216072787    -0.268338552542    12.000000000000
         C           -2.247439650989     0.961173927213     0.177161447458    12.000000000000
         C           -0.148120650989     2.222323927213    -0.414678552542    12.000000000000
         C           -2.367288650989    -1.448031072787     0.140567447458    12.000000000000
         C           -2.976646650989    -0.213937072787     0.364322447458    12.000000000000
         C            2.122266349011    -0.174548072787     0.233795447458    12.000000000000
         H            1.353503049011     0.240722727213    -1.611417452542     1.007825032230
         H            1.349728349011    -1.402556072787    -1.311515552542     1.007825032230
         H           -0.555021650989    -2.451797072787    -0.446648552542     1.007825032230
         H           -2.726850650989     1.922993927213     0.351502447458     1.007825032230
         H            0.691219349011     2.283693927213     0.283541447458     1.007825032230
         H            0.250403349011     2.315414927213    -1.431457552542     1.007825032230
         H           -0.801607650989     3.080505927213    -0.236839552542     1.007825032230
         H           -2.924349650989    -2.371318072787     0.280010447458     1.007825032230
         H           -4.015790650989    -0.163966072787     0.681012447458     1.007825032230
         H            3.956654349011    -0.313828072787     0.611109447458     1.007825032230

  Basis Set: AUG-CC-PVTZ
    Blend: AUG-CC-PVTZ
  Basis Set: (AUG-CC-PVTZ AUX)
    Blend: AUG-CC-PVTZ-JKFIT
	 Reference Energy          =    -496.5589228155435535 [Eh]
	 Singles Energy            =      -0.0000000000000000 [Eh]
	 Same-Spin Energy          =      -0.5234846040855152 [Eh]
	 Opposite-Spin Energy      =      -1.6280584933045170 [Eh]
	 Correlation Energy        =      -2.1515430973900322 [Eh]
	 Total Energy              =    -498.7104659129336142 [Eh]

	 ================> DF-SCS-MP2 Energies <==================
	-----------------------------------------------------------
	 SCS Same-Spin Scale       =       0.3333333333333333 [-]
	 SCS Opposite-Spin Scale   =       1.2000000000000000 [-]
	 SCS Same-Spin Energy      =      -0.1744948680285051 [Eh]
	 SCS Opposite-Spin Energy  =      -1.9536701919654202 [Eh]
	 SCS Correlation Energy    =      -2.1281650599939255 [Eh]
	 SCS Total Energy          =    -498.6870878755374861 [Eh]
	-----------------------------------------------------------

  Dipole Moment: [D]
     X:     0.5691      Y:    -0.1143      Z:    -1.2187     Total:     1.3498

*** Psi4 exiting successfully. Buy a developer a beer!
