                               Psi4 1.4a3.dev225

  ==> Input File <==

--------------------------------------------------------------------------
#psi4
#
memory 32 gb

molecule  {
0 1
  O        3.4036770    -0.5312700    -0.1399000
  O        1.8951010     0.2455770     1.3601080
  C       -0.2772440    -0.3351030    -0.4349210
  C       -0.8873890     0.9145300    -0.2106810
  C        1.1586640    -0.4340120    -0.8715550
  C       -1.0136460    -1.5104990    -0.2499190
  C       -2.2266560     0.9408910     0.1955810
  C       -0.1273370     2.2020410    -0.3962590
  C       -2.3465050    -1.4683140     0.1589870
  C       -2.9558630    -0.2342200     0.3827420
  C        2.1430500    -0.1948310     0.2522150
  H        1.3959000     0.2860400    -1.6653130
  H        1.3705120    -1.4228390    -1.2930960
  H       -0.5430413    -2.4544227    -0.4249547
  H       -2.7060670     1.9027110     0.3699220
  H        0.7120030     2.2634110     0.3019610
  H        0.2711870     2.2951320    -1.4130380
  H       -0.7808240     3.0602230    -0.2184200
  H       -2.9035660    -2.3916010     0.2984300
  H       -3.9950070    -0.1842490     0.6994320
  H        3.9774380    -0.3341110     0.6295290
units angstrom
no_reorient  #important for SAPT in psi4, default
symmetry c1  #important for SAPT in psi4, default
}

set PROPERTIES_ORIGIN ["COM"]
properties('MP2/aug-cc-pvtz', properties = ['dipole'])
--------------------------------------------------------------------------

    Molecular point group: c1
  Charge       = 0
  Multiplicity = 1
  Basis Set: AUG-CC-PVTZ
    Blend: AUG-CC-PVTZ
  Basis Set: (AUG-CC-PVTZ AUX)
    Blend: AUG-CC-PVTZ-JKFIT

    Orbital Energies [Eh]
    ---------------------

    Doubly Occupied:

       1A    -20.618892     2A    -20.554896     3A    -11.394681
       4A    -11.258669     5A    -11.244397     6A    -11.243232
       7A    -11.234727     8A    -11.234300     9A    -11.232142
      10A    -11.231034    11A    -11.222765    12A     -1.462901
      13A     -1.360336    14A     -1.160809    15A     -1.070607
      16A     -1.041919    17A     -0.982228    18A     -0.930238
      19A     -0.841162    20A     -0.813263    21A     -0.778028
      22A     -0.708890    23A     -0.689237    24A     -0.679058
      25A     -0.667150    26A     -0.627958    27A     -0.627451
      28A     -0.596379    29A     -0.578389    30A     -0.568518
      31A     -0.564800    32A     -0.549177    33A     -0.540499
      34A     -0.491363    35A     -0.487442    36A     -0.483908
      37A     -0.481429    38A     -0.457835    39A     -0.333397
      40A     -0.323303

  @DF-RHF Final Energy:  -496.56457153549030

   => Energetics <=

    Nuclear Repulsion Energy =            583.6353878853523156
    One-Electron Energy =               -1833.6651042569005767
    Two-Electron Energy =                 753.4651448360577888
    Total Energy =                       -496.5645715354903587
  Basis Set: (AUG-CC-PVTZ AUX)
    Blend: AUG-CC-PVTZ-RI
    Molecular point group: c1

    Geometry (in Angstrom), charge = 0, multiplicity = 1:

       Center              X                  Y                   Z               Mass
    ------------   -----------------  -----------------  -----------------  -----------------
         O            3.382807319799    -0.511546212298    -0.157855889338    15.994914619570
         O            1.874231319799     0.265300787702     1.342152110662    15.994914619570
         C           -0.298113680201    -0.315379212298    -0.452876889338    12.000000000000
         C           -0.908258680201     0.934253787702    -0.228636889338    12.000000000000
         C            1.137794319799    -0.414288212298    -0.889510889338    12.000000000000
         C           -1.034515680201    -1.490775212298    -0.267874889338    12.000000000000
         C           -2.247525680201     0.960614787702     0.177625110662    12.000000000000
         C           -0.148206680201     2.221764787702    -0.414214889338    12.000000000000
         C           -2.367374680201    -1.448590212298     0.141031110662    12.000000000000
         C           -2.976732680201    -0.214496212298     0.364786110662    12.000000000000
         C            2.122180319799    -0.175107212298     0.234259110662    12.000000000000
         H            1.375030319799     0.305763787702    -1.683268889338     1.007825032230
         H            1.349642319799    -1.403115212298    -1.311051889338     1.007825032230
         H           -0.563910980201    -2.434698912298    -0.442910589338     1.007825032230
         H           -2.726936680201     1.922434787702     0.351966110662     1.007825032230
         H            0.691133319799     2.283134787702     0.284005110662     1.007825032230
         H            0.250317319799     2.314855787702    -1.430993889338     1.007825032230
         H           -0.801693680201     3.079946787702    -0.236375889338     1.007825032230
         H           -2.924435680201    -2.371877212298     0.280474110662     1.007825032230
         H           -4.015876680201    -0.164525212298     0.681476110662     1.007825032230
         H            3.956568319799    -0.314387212298     0.611573110662     1.007825032230

  Basis Set: AUG-CC-PVTZ
    Blend: AUG-CC-PVTZ
  Basis Set: (AUG-CC-PVTZ AUX)
    Blend: AUG-CC-PVTZ-JKFIT
	 Reference Energy          =    -496.5645715354903018 [Eh]
	 Singles Energy            =      -0.0000000000000000 [Eh]
	 Same-Spin Energy          =      -0.5236010693188634 [Eh]
	 Opposite-Spin Energy      =      -1.6285138283302609 [Eh]
	 Correlation Energy        =      -2.1521148976491244 [Eh]
	 Total Energy              =    -498.7166864331394436 [Eh]

	 ================> DF-SCS-MP2 Energies <==================
	-----------------------------------------------------------
	 SCS Same-Spin Scale       =       0.3333333333333333 [-]
	 SCS Opposite-Spin Scale   =       1.2000000000000000 [-]
	 SCS Same-Spin Energy      =      -0.1745336897729545 [Eh]
	 SCS Opposite-Spin Energy  =      -1.9542165939963130 [Eh]
	 SCS Correlation Energy    =      -2.1287502837692673 [Eh]
	 SCS Total Energy          =    -498.6933218192595518 [Eh]
	-----------------------------------------------------------

  Dipole Moment: [D]
     X:     0.5486      Y:    -0.1230      Z:    -1.2131     Total:     1.3371

*** Psi4 exiting successfully. Buy a developer a beer!
