                               Psi4 1.4a3.dev225

  ==> Input File <==

--------------------------------------------------------------------------
#psi4
#
memory 32 gb

molecule  {
0 1
  O        3.4036770    -0.5312700    -0.1399000
  O        1.8951010     0.2455770     1.3601080
  C       -0.2772440    -0.3351030    -0.4349210
  C       -0.8873890     0.9145300    -0.2106810
  C        1.1586640    -0.4340120    -0.8715550
  C       -1.0136460    -1.5104990    -0.2499190
  C       -2.2266560     0.9408910     0.1955810
  C       -0.1273370     2.2020410    -0.3962590
  C       -2.3465050    -1.4683140     0.1589870
  C       -2.9558630    -0.2342200     0.3827420
  C        2.1430500    -0.1948310     0.2522150
  H        1.3959000     0.2860400    -1.6653130
  H        1.3705120    -1.4228390    -1.2930960
  H       -0.5342380    -2.4720800    -0.4282290
  H       -2.7060670     1.9027110     0.3699220
  H        0.7120030     2.2634110     0.3019610
  H        0.2711870     2.2951320    -1.4130380
  H       -0.7688688     3.0445230    -0.2216735
  H       -2.9035660    -2.3916010     0.2984300
  H       -3.9950070    -0.1842490     0.6994320
  H        3.9774380    -0.3341110     0.6295290
units angstrom
no_reorient  #important for SAPT in psi4, default
symmetry c1  #important for SAPT in psi4, default
}

set PROPERTIES_ORIGIN ["COM"]
properties('MP2/aug-cc-pvtz', properties = ['dipole'])
--------------------------------------------------------------------------

    Molecular point group: c1
  Charge       = 0
  Multiplicity = 1
  Basis Set: AUG-CC-PVTZ
    Blend: AUG-CC-PVTZ
  Basis Set: (AUG-CC-PVTZ AUX)
    Blend: AUG-CC-PVTZ-JKFIT

    Orbital Energies [Eh]
    ---------------------

    Doubly Occupied:

       1A    -20.618802     2A    -20.554786     3A    -11.394578
       4A    -11.258529     5A    -11.244439     6A    -11.243261
       7A    -11.236601     8A    -11.234784     9A    -11.232363
      10A    -11.231103    11A    -11.220420    12A     -1.462804
      13A     -1.360235    14A     -1.160759    15A     -1.070587
      16A     -1.042107    17A     -0.981875    18A     -0.931515
      19A     -0.840725    20A     -0.812495    21A     -0.778144
      22A     -0.708774    23A     -0.689106    24A     -0.678509
      25A     -0.667127    26A     -0.628025    27A     -0.625892
      28A     -0.596263    29A     -0.577849    30A     -0.568208
      31A     -0.564764    32A     -0.548890    33A     -0.543815
      34A     -0.491372    35A     -0.487007    36A     -0.483848
      37A     -0.481406    38A     -0.457741    39A     -0.333465
      40A     -0.323342

  @DF-RHF Final Energy:  -496.56448778870970

   => Energetics <=

    Nuclear Repulsion Energy =            583.6292145241726530
    One-Electron Energy =               -1833.6547757595246821
    Two-Electron Energy =                 753.4610734466424447
    Total Energy =                       -496.5644877887096982
  Basis Set: (AUG-CC-PVTZ AUX)
    Blend: AUG-CC-PVTZ-RI
    Molecular point group: c1

    Geometry (in Angstrom), charge = 0, multiplicity = 1:

       Center              X                  Y                   Z               Mass
    ------------   -----------------  -----------------  -----------------  -----------------
         O            3.382667910165    -0.511322191826    -0.157812050034    15.994914619570
         O            1.874091910165     0.265524808174     1.342195949966    15.994914619570
         C           -0.298253089835    -0.315155191826    -0.452833050034    12.000000000000
         C           -0.908398089835     0.934477808174    -0.228593050034    12.000000000000
         C            1.137654910165    -0.414064191826    -0.889467050034    12.000000000000
         C           -1.034655089835    -1.490551191826    -0.267831050034    12.000000000000
         C           -2.247665089835     0.960838808174     0.177668949966    12.000000000000
         C           -0.148346089835     2.221988808174    -0.414171050034    12.000000000000
         C           -2.367514089835    -1.448366191826     0.141074949966    12.000000000000
         C           -2.976872089835    -0.214272191826     0.364829949966    12.000000000000
         C            2.122040910165    -0.174883191826     0.234302949966    12.000000000000
         H            1.374890910165     0.305987808174    -1.683225050034     1.007825032230
         H            1.349502910165    -1.402891191826    -1.311008050034     1.007825032230
         H           -0.555247089835    -2.452132191826    -0.446141050034     1.007825032230
         H           -2.727076089835     1.922658808174     0.352009949966     1.007825032230
         H            0.690993910165     2.283358808174     0.284048949966     1.007825032230
         H            0.250177910165     2.315079808174    -1.430950050034     1.007825032230
         H           -0.789877889835     3.064470808174    -0.239585550034     1.007825032230
         H           -2.924575089835    -2.371653191826     0.280517949966     1.007825032230
         H           -4.016016089835    -0.164301191826     0.681519949966     1.007825032230
         H            3.956428910165    -0.314163191826     0.611616949966     1.007825032230

  Basis Set: AUG-CC-PVTZ
    Blend: AUG-CC-PVTZ
  Basis Set: (AUG-CC-PVTZ AUX)
    Blend: AUG-CC-PVTZ-JKFIT
	 Reference Energy          =    -496.5644877887096982 [Eh]
	 Singles Energy            =      -0.0000000000000000 [Eh]
	 Same-Spin Energy          =      -0.5236351928838417 [Eh]
	 Opposite-Spin Energy      =      -1.6285114552800601 [Eh]
	 Correlation Energy        =      -2.1521466481639018 [Eh]
	 Total Energy              =    -498.7166344368736191 [Eh]

	 ================> DF-SCS-MP2 Energies <==================
	-----------------------------------------------------------
	 SCS Same-Spin Scale       =       0.3333333333333333 [-]
	 SCS Opposite-Spin Scale   =       1.2000000000000000 [-]
	 SCS Same-Spin Energy      =      -0.1745450642946139 [Eh]
	 SCS Opposite-Spin Energy  =      -1.9542137463360720 [Eh]
	 SCS Correlation Energy    =      -2.1287588106306861 [Eh]
	 SCS Total Energy          =    -498.6932465993403980 [Eh]
	-----------------------------------------------------------

  Dipole Moment: [D]
     X:     0.5407      Y:    -0.1034      Z:    -1.2112     Total:     1.3305

*** Psi4 exiting successfully. Buy a developer a beer!
