                               Psi4 1.4a3.dev225

  ==> Input File <==

--------------------------------------------------------------------------
#psi4
#
memory 32 gb

molecule  {
0 1
  O        3.4036770    -0.5312700    -0.1399000
  O        1.8951010     0.2455770     1.3601080
  C       -0.2772440    -0.3351030    -0.4349210
  C       -0.8873890     0.9145300    -0.2106810
  C        1.1586640    -0.4340120    -0.8715550
  C       -1.0136460    -1.5104990    -0.2499190
  C       -2.2266560     0.9408910     0.1955810
  C       -0.1273370     2.2020410    -0.3962590
  C       -2.3465050    -1.4683140     0.1589870
  C       -2.9558630    -0.2342200     0.3827420
  C        2.1430500    -0.1948310     0.2522150
  H        1.3959000     0.2860400    -1.6653130
  H        1.3705120    -1.4228390    -1.2930960
  H       -0.5342380    -2.4720800    -0.4282290
  H       -2.7060670     1.9027110     0.3699220
  H        0.7120030     2.2634110     0.3019610
  H        0.2711870     2.2951320    -1.4130380
  H       -0.7210481     2.9817232    -0.2346873
  H       -2.9035660    -2.3916010     0.2984300
  H       -3.9950070    -0.1842490     0.6994320
  H        3.9774380    -0.3341110     0.6295290
units angstrom
no_reorient  #important for SAPT in psi4, default
symmetry c1  #important for SAPT in psi4, default
}

set PROPERTIES_ORIGIN ["COM"]
properties('MP2/aug-cc-pvtz', properties = ['dipole'])
--------------------------------------------------------------------------

    Molecular point group: c1
  Charge       = 0
  Multiplicity = 1
  Basis Set: AUG-CC-PVTZ
    Blend: AUG-CC-PVTZ
  Basis Set: (AUG-CC-PVTZ AUX)
    Blend: AUG-CC-PVTZ-JKFIT

    Orbital Energies [Eh]
    ---------------------

    Doubly Occupied:

       1A    -20.618543     2A    -20.554460     3A    -11.394263
       4A    -11.258132     5A    -11.243911     6A    -11.242718
       7A    -11.236343     8A    -11.234711     9A    -11.232160
      10A    -11.231048    11A    -11.210540    12A     -1.462521
      13A     -1.359933    14A     -1.160672    15A     -1.070316
      16A     -1.044583    17A     -0.982074    18A     -0.937004
      19A     -0.840466    20A     -0.814091    21A     -0.778334
      22A     -0.708492    23A     -0.688806    24A     -0.678594
      25A     -0.668582    26A     -0.628974    27A     -0.626184
      28A     -0.595869    29A     -0.577946    30A     -0.568117
      31A     -0.564884    32A     -0.556807    33A     -0.547838
      34A     -0.491129    35A     -0.487494    36A     -0.483388
      37A     -0.481231    38A     -0.457444    39A     -0.333326
      40A     -0.323019

  @DF-RHF Final Energy:  -496.55852814606715

   => Energetics <=

    Nuclear Repulsion Energy =            584.0441908875752688
    One-Electron Energy =               -1834.4555475493853010
    Two-Electron Energy =                 753.8528285157428854
    Total Energy =                       -496.5585281460671467
  Basis Set: (AUG-CC-PVTZ AUX)
    Blend: AUG-CC-PVTZ-RI
    Molecular point group: c1

    Geometry (in Angstrom), charge = 0, multiplicity = 1:

       Center              X                  Y                   Z               Mass
    ------------   -----------------  -----------------  -----------------  -----------------
         O            3.382346756602    -0.510900441840    -0.157724652145    15.994914619570
         O            1.873770756602     0.265946558160     1.342283347855    15.994914619570
         C           -0.298574243398    -0.314733441840    -0.452745652145    12.000000000000
         C           -0.908719243398     0.934899558160    -0.228505652145    12.000000000000
         C            1.137333756602    -0.413642441840    -0.889379652145    12.000000000000
         C           -1.034976243398    -1.490129441840    -0.267743652145    12.000000000000
         C           -2.247986243398     0.961260558160     0.177756347855    12.000000000000
         C           -0.148667243398     2.222410558160    -0.414083652145    12.000000000000
         C           -2.367835243398    -1.447944441840     0.141162347855    12.000000000000
         C           -2.977193243398    -0.213850441840     0.364917347855    12.000000000000
         C            2.121719756602    -0.174461441840     0.234390347855    12.000000000000
         H            1.374569756602     0.306409558160    -1.683137652145     1.007825032230
         H            1.349181756602    -1.402469441840    -1.310920652145     1.007825032230
         H           -0.555568243398    -2.451710441840    -0.446053652145     1.007825032230
         H           -2.727397243398     1.923080558160     0.352097347855     1.007825032230
         H            0.690672756602     2.283780558160     0.284136347855     1.007825032230
         H            0.249856756602     2.315501558160    -1.430862652145     1.007825032230
         H           -0.742378343398     3.002092758160    -0.252511952145     1.007825032230
         H           -2.924896243398    -2.371231441840     0.280605347855     1.007825032230
         H           -4.016337243398    -0.163879441840     0.681607347855     1.007825032230
         H            3.956107756602    -0.313741441840     0.611704347855     1.007825032230

  Basis Set: AUG-CC-PVTZ
    Blend: AUG-CC-PVTZ
  Basis Set: (AUG-CC-PVTZ AUX)
    Blend: AUG-CC-PVTZ-JKFIT
	 Reference Energy          =    -496.5585281460671467 [Eh]
	 Singles Energy            =      -0.0000000000000000 [Eh]
	 Same-Spin Energy          =      -0.5236131510702653 [Eh]
	 Opposite-Spin Energy      =      -1.6280402780687848 [Eh]
	 Correlation Energy        =      -2.1516534291390501 [Eh]
	 Total Energy              =    -498.7101815752062066 [Eh]

	 ================> DF-SCS-MP2 Energies <==================
	-----------------------------------------------------------
	 SCS Same-Spin Scale       =       0.3333333333333333 [-]
	 SCS Opposite-Spin Scale   =       1.2000000000000000 [-]
	 SCS Same-Spin Energy      =      -0.1745377170234217 [Eh]
	 SCS Opposite-Spin Energy  =      -1.9536483336825416 [Eh]
	 SCS Correlation Energy    =      -2.1281860507059633 [Eh]
	 SCS Total Energy          =    -498.6867141967730959 [Eh]
	-----------------------------------------------------------

  Dipole Moment: [D]
     X:     0.5291      Y:    -0.0623      Z:    -1.2105     Total:     1.3226

*** Psi4 exiting successfully. Buy a developer a beer!
