                               Psi4 1.4a3.dev225

  ==> Input File <==

--------------------------------------------------------------------------
#psi4
#
memory 32 gb

molecule  {
0 1
  O        3.4036770    -0.5312700    -0.1399000
  O        1.8951010     0.2455770     1.3601080
  C       -0.2772440    -0.3351030    -0.4349210
  C       -0.8873890     0.9145300    -0.2106810
  C        1.1586640    -0.4340120    -0.8715550
  C       -1.0136460    -1.5104990    -0.2499190
  C       -2.2266560     0.9408910     0.1955810
  C       -0.1273370     2.2020410    -0.3962590
  C       -2.3465050    -1.4683140     0.1589870
  C       -2.9558630    -0.2342200     0.3827420
  C        2.1430500    -0.1948310     0.2522150
  H        1.3850933     0.2532399    -1.6291554
  H        1.3705120    -1.4228390    -1.2930960
  H       -0.5342380    -2.4720800    -0.4282290
  H       -2.7060670     1.9027110     0.3699220
  H        0.7120030     2.2634110     0.3019610
  H        0.2711870     2.2951320    -1.4130380
  H       -0.7808240     3.0602230    -0.2184200
  H       -2.9035660    -2.3916010     0.2984300
  H       -3.9950070    -0.1842490     0.6994320
  H        3.9774380    -0.3341110     0.6295290
units angstrom
no_reorient  #important for SAPT in psi4, default
symmetry c1  #important for SAPT in psi4, default
}

set PROPERTIES_ORIGIN ["COM"]
properties('MP2/aug-cc-pvtz', properties = ['dipole'])
--------------------------------------------------------------------------

    Molecular point group: c1
  Charge       = 0
  Multiplicity = 1
  Basis Set: AUG-CC-PVTZ
    Blend: AUG-CC-PVTZ
  Basis Set: (AUG-CC-PVTZ AUX)
    Blend: AUG-CC-PVTZ-JKFIT

    Orbital Energies [Eh]
    ---------------------

    Doubly Occupied:

       1A    -20.619042     2A    -20.554808     3A    -11.394447
       4A    -11.252992     5A    -11.244368     6A    -11.243225
       7A    -11.236419     8A    -11.234670     9A    -11.232280
      10A    -11.231044    11A    -11.222945    12A     -1.462969
      13A     -1.360321    14A     -1.160952    15A     -1.072707
      16A     -1.041709    17A     -0.983232    18A     -0.930472
      19A     -0.841173    20A     -0.812115    21A     -0.779966
      22A     -0.708980    23A     -0.689925    24A     -0.681023
      25A     -0.668188    26A     -0.627976    27A     -0.625822
      28A     -0.596995    29A     -0.578619    30A     -0.568505
      31A     -0.564758    32A     -0.552643    33A     -0.540559
      34A     -0.491473    35A     -0.486698    36A     -0.484492
      37A     -0.481491    38A     -0.457831    39A     -0.333430
      40A     -0.323380

  @DF-RHF Final Energy:  -496.56367713642334

   => Energetics <=

    Nuclear Repulsion Energy =            583.7936066862098414
    One-Electron Energy =               -1833.9652735675895201
    Two-Electron Energy =                 753.6079897449562850
    Total Energy =                       -496.5636771364233937
  Basis Set: (AUG-CC-PVTZ AUX)
    Blend: AUG-CC-PVTZ-RI
    Molecular point group: c1

    Geometry (in Angstrom), charge = 0, multiplicity = 1:

       Center              X                  Y                   Z               Mass
    ------------   -----------------  -----------------  -----------------  -----------------
         O            3.382820774203    -0.511207351223    -0.158076726528    15.994914619570
         O            1.874244774203     0.265639648777     1.341931273472    15.994914619570
         C           -0.298100225797    -0.315040351223    -0.453097726528    12.000000000000
         C           -0.908245225797     0.934592648777    -0.228857726528    12.000000000000
         C            1.137807774203    -0.413949351223    -0.889731726528    12.000000000000
         C           -1.034502225797    -1.490436351223    -0.268095726528    12.000000000000
         C           -2.247512225797     0.960953648777     0.177404273472    12.000000000000
         C           -0.148193225797     2.222103648777    -0.414435726528    12.000000000000
         C           -2.367361225797    -1.448251351223     0.140810273472    12.000000000000
         C           -2.976719225797    -0.214157351223     0.364565273472    12.000000000000
         C            2.122193774203    -0.174768351223     0.234038273472    12.000000000000
         H            1.364237074203     0.273302548777    -1.647332126528     1.007825032230
         H            1.349655774203    -1.402776351223    -1.311272726528     1.007825032230
         H           -0.555094225797    -2.452017351223    -0.446405726528     1.007825032230
         H           -2.726923225797     1.922773648777     0.351745273472     1.007825032230
         H            0.691146774203     2.283473648777     0.283784273472     1.007825032230
         H            0.250330774203     2.315194648777    -1.431214726528     1.007825032230
         H           -0.801680225797     3.080285648777    -0.236596726528     1.007825032230
         H           -2.924422225797    -2.371538351223     0.280253273472     1.007825032230
         H           -4.015863225797    -0.164186351223     0.681255273472     1.007825032230
         H            3.956581774203    -0.314048351223     0.611352273472     1.007825032230

  Basis Set: AUG-CC-PVTZ
    Blend: AUG-CC-PVTZ
  Basis Set: (AUG-CC-PVTZ AUX)
    Blend: AUG-CC-PVTZ-JKFIT
	 Reference Energy          =    -496.5636771364233368 [Eh]
	 Singles Energy            =      -0.0000000000000000 [Eh]
	 Same-Spin Energy          =      -0.5235565150679999 [Eh]
	 Opposite-Spin Energy      =      -1.6283149583760119 [Eh]
	 Correlation Energy        =      -2.1518714734440119 [Eh]
	 Total Energy              =    -498.7155486098673691 [Eh]

	 ================> DF-SCS-MP2 Energies <==================
	-----------------------------------------------------------
	 SCS Same-Spin Scale       =       0.3333333333333333 [-]
	 SCS Opposite-Spin Scale   =       1.2000000000000000 [-]
	 SCS Same-Spin Energy      =      -0.1745188383560000 [Eh]
	 SCS Opposite-Spin Energy  =      -1.9539779500512142 [Eh]
	 SCS Correlation Energy    =      -2.1284967884072143 [Eh]
	 SCS Total Energy          =    -498.6921739248305698 [Eh]
	-----------------------------------------------------------

  Dipole Moment: [D]
     X:     0.5573      Y:    -0.1142      Z:    -1.2164     Total:     1.3429

*** Psi4 exiting successfully. Buy a developer a beer!
