                               Psi4 1.4a3.dev225

  ==> Input File <==

--------------------------------------------------------------------------
#psi4
#
memory 32 gb

molecule  {
0 1
  O        3.4036770    -0.5312700    -0.1399000
  O        1.8951010     0.2455770     1.3601080
  C       -0.2772440    -0.3351030    -0.4349210
  C       -0.8873890     0.9145300    -0.2106810
  C        1.1586640    -0.4340120    -0.8715550
  C       -1.0136460    -1.5104990    -0.2499190
  C       -2.2266560     0.9408910     0.1955810
  C       -0.1273370     2.2020410    -0.3962590
  C       -2.3465050    -1.4683140     0.1589870
  C       -2.9558630    -0.2342200     0.3827420
  C        2.1430500    -0.1948310     0.2522150
  H        1.4067067     0.3188401    -1.7014706
  H        1.3705120    -1.4228390    -1.2930960
  H       -0.5342380    -2.4720800    -0.4282290
  H       -2.7060670     1.9027110     0.3699220
  H        0.7120030     2.2634110     0.3019610
  H        0.2711870     2.2951320    -1.4130380
  H       -0.7808240     3.0602230    -0.2184200
  H       -2.9035660    -2.3916010     0.2984300
  H       -3.9950070    -0.1842490     0.6994320
  H        3.9774380    -0.3341110     0.6295290
units angstrom
no_reorient  #important for SAPT in psi4, default
symmetry c1  #important for SAPT in psi4, default
}

set PROPERTIES_ORIGIN ["COM"]
properties('MP2/aug-cc-pvtz', properties = ['dipole'])
--------------------------------------------------------------------------

    Molecular point group: c1
  Charge       = 0
  Multiplicity = 1
  Basis Set: AUG-CC-PVTZ
    Blend: AUG-CC-PVTZ
  Basis Set: (AUG-CC-PVTZ AUX)
    Blend: AUG-CC-PVTZ-JKFIT

    Orbital Energies [Eh]
    ---------------------

    Doubly Occupied:

       1A    -20.618726     2A    -20.554991     3A    -11.394931
       4A    -11.264095     5A    -11.244864     6A    -11.243622
       7A    -11.236971     8A    -11.234978     9A    -11.232588
      10A    -11.231223    11A    -11.222743    12A     -1.462824
      13A     -1.360350    14A     -1.160740    15A     -1.069057
      16A     -1.041604    17A     -0.980702    18A     -0.930235
      19A     -0.840535    20A     -0.812230    21A     -0.776602
      22A     -0.708786    23A     -0.688933    24A     -0.676702
      25A     -0.664856    26A     -0.627881    27A     -0.625739
      28A     -0.595868    29A     -0.577294    30A     -0.568271
      31A     -0.564974    32A     -0.544398    33A     -0.540594
      34A     -0.491441    35A     -0.487003    36A     -0.483379
      37A     -0.481320    38A     -0.457832    39A     -0.333602
      40A     -0.323512

  @DF-RHF Final Energy:  -496.56214658191732

   => Energetics <=

    Nuclear Repulsion Energy =            583.2822662105912741
    One-Electron Energy =               -1832.9748336095615286
    Two-Electron Energy =                 753.1304208170530501
    Total Energy =                       -496.5621465819173181
  Basis Set: (AUG-CC-PVTZ AUX)
    Blend: AUG-CC-PVTZ-RI
    Molecular point group: c1

    Geometry (in Angstrom), charge = 0, multiplicity = 1:

       Center              X                  Y                   Z               Mass
    ------------   -----------------  -----------------  -----------------  -----------------
         O            3.382675623245    -0.511647908094    -0.157591073156    15.994914619570
         O            1.874099623245     0.265199091906     1.342416926844    15.994914619570
         C           -0.298245376755    -0.315480908094    -0.452612073156    12.000000000000
         C           -0.908390376755     0.934152091906    -0.228372073156    12.000000000000
         C            1.137662623245    -0.414389908094    -0.889246073156    12.000000000000
         C           -1.034647376755    -1.490876908094    -0.267610073156    12.000000000000
         C           -2.247657376755     0.960513091906     0.177889926844    12.000000000000
         C           -0.148338376755     2.221663091906    -0.413950073156    12.000000000000
         C           -2.367506376755    -1.448691908094     0.141295926844    12.000000000000
         C           -2.976864376755    -0.214597908094     0.365050926844    12.000000000000
         C            2.122048623245    -0.175208908094     0.234523926844    12.000000000000
         H            1.385705323245     0.338462191906    -1.719161673156     1.007825032230
         H            1.349510623245    -1.403216908094    -1.310787073156     1.007825032230
         H           -0.555239376755    -2.452457908094    -0.445920073156     1.007825032230
         H           -2.727068376755     1.922333091906     0.352230926844     1.007825032230
         H            0.691001623245     2.283033091906     0.284269926844     1.007825032230
         H            0.250185623245     2.314754091906    -1.430729073156     1.007825032230
         H           -0.801825376755     3.079845091906    -0.236111073156     1.007825032230
         H           -2.924567376755    -2.371978908094     0.280738926844     1.007825032230
         H           -4.016008376755    -0.164626908094     0.681740926844     1.007825032230
         H            3.956436623245    -0.314488908094     0.611837926844     1.007825032230

  Basis Set: AUG-CC-PVTZ
    Blend: AUG-CC-PVTZ
  Basis Set: (AUG-CC-PVTZ AUX)
    Blend: AUG-CC-PVTZ-JKFIT
	 Reference Energy          =    -496.5621465819173181 [Eh]
	 Singles Energy            =      -0.0000000000000000 [Eh]
	 Same-Spin Energy          =      -0.5237464994284725 [Eh]
	 Opposite-Spin Energy      =      -1.6290746253358177 [Eh]
	 Correlation Energy        =      -2.1528211247642903 [Eh]
	 Total Energy              =    -498.7149677066815912 [Eh]

	 ================> DF-SCS-MP2 Energies <==================
	-----------------------------------------------------------
	 SCS Same-Spin Scale       =       0.3333333333333333 [-]
	 SCS Opposite-Spin Scale   =       1.2000000000000000 [-]
	 SCS Same-Spin Energy      =      -0.1745821664761575 [Eh]
	 SCS Opposite-Spin Energy  =      -1.9548895504029811 [Eh]
	 SCS Correlation Energy    =      -2.1294717168791384 [Eh]
	 SCS Total Energy          =    -498.6916182987964703 [Eh]
	-----------------------------------------------------------

  Dipole Moment: [D]
     X:     0.5293      Y:    -0.1173      Z:    -1.2037     Total:     1.3202

*** Psi4 exiting successfully. Buy a developer a beer!
