                               Psi4 1.4a3.dev225

  ==> Input File <==

--------------------------------------------------------------------------
#psi4
#
memory 32 gb

molecule  {
0 1
  O        3.3951748    -0.5374184    -0.1612378
  O        1.8951010     0.2455770     1.3601080
  C       -0.2772440    -0.3351030    -0.4349210
  C       -0.8873890     0.9145300    -0.2106810
  C        1.1586640    -0.4340120    -0.8715550
  C       -1.0136460    -1.5104990    -0.2499190
  C       -2.2266560     0.9408910     0.1955810
  C       -0.1273370     2.2020410    -0.3962590
  C       -2.3465050    -1.4683140     0.1589870
  C       -2.9558630    -0.2342200     0.3827420
  C        2.1430500    -0.1948310     0.2522150
  H        1.3959000     0.2860400    -1.6653130
  H        1.3705120    -1.4228390    -1.2930960
  H       -0.5342380    -2.4720800    -0.4282290
  H       -2.7060670     1.9027110     0.3699220
  H        0.7120030     2.2634110     0.3019610
  H        0.2711870     2.2951320    -1.4130380
  H       -0.7808240     3.0602230    -0.2184200
  H       -2.9035660    -2.3916010     0.2984300
  H       -3.9950070    -0.1842490     0.6994320
  H        3.9774380    -0.3341110     0.6295290
units angstrom
no_reorient  #important for SAPT in psi4, default
symmetry c1  #important for SAPT in psi4, default
}

set PROPERTIES_ORIGIN ["COM"]
properties('MP2/aug-cc-pvtz', properties = ['dipole'])
--------------------------------------------------------------------------

    Molecular point group: c1
  Charge       = 0
  Multiplicity = 1
  Basis Set: AUG-CC-PVTZ
    Blend: AUG-CC-PVTZ
  Basis Set: (AUG-CC-PVTZ AUX)
    Blend: AUG-CC-PVTZ-JKFIT

    Orbital Energies [Eh]
    ---------------------

    Doubly Occupied:

       1A    -20.621970     2A    -20.556081     3A    -11.394796
       4A    -11.257561     5A    -11.244165     6A    -11.243017
       7A    -11.236310     8A    -11.234514     9A    -11.232177
      10A    -11.230895    11A    -11.222700    12A     -1.460891
      13A     -1.360347    14A     -1.160454    15A     -1.070015
      16A     -1.041333    17A     -0.981054    18A     -0.929978
      19A     -0.837849    20A     -0.811222    21A     -0.776152
      22A     -0.708628    23A     -0.688461    24A     -0.678138
      25A     -0.666684    26A     -0.627929    27A     -0.625240
      28A     -0.596801    29A     -0.577270    30A     -0.568309
      31A     -0.564196    32A     -0.548037    33A     -0.540368
      34A     -0.491637    35A     -0.486450    36A     -0.483645
      37A     -0.482047    38A     -0.458069    39A     -0.333170
      40A     -0.323128

  @DF-RHF Final Energy:  -496.56198119537220

   => Energetics <=

    Nuclear Repulsion Energy =            583.5151724745624051
    One-Electron Energy =               -1833.4509282171259201
    Two-Electron Energy =                 753.3737745471912604
    Total Energy =                       -496.5619811953722547
  Basis Set: (AUG-CC-PVTZ AUX)
    Blend: AUG-CC-PVTZ-RI
    Molecular point group: c1

    Geometry (in Angstrom), charge = 0, multiplicity = 1:

       Center              X                  Y                   Z               Mass
    ------------   -----------------  -----------------  -----------------  -----------------
         O            3.375152200519    -0.516920706199    -0.176897423459    15.994914619570
         O            1.875078400519     0.266074693801     1.344448376541    15.994914619570
         C           -0.297266599481    -0.314605306199    -0.450580623459    12.000000000000
         C           -0.907411599481     0.935027693801    -0.226340623459    12.000000000000
         C            1.138641400519    -0.413514306199    -0.887214623459    12.000000000000
         C           -1.033668599481    -1.490001306199    -0.265578623459    12.000000000000
         C           -2.246678599481     0.961388693801     0.179921376541    12.000000000000
         C           -0.147359599481     2.222538693801    -0.411918623459    12.000000000000
         C           -2.366527599481    -1.447816306199     0.143327376541    12.000000000000
         C           -2.975885599481    -0.213722306199     0.367082376541    12.000000000000
         C            2.123027400519    -0.174333306199     0.236555376541    12.000000000000
         H            1.375877400519     0.306537693801    -1.680972623459     1.007825032230
         H            1.350489400519    -1.402341306199    -1.308755623459     1.007825032230
         H           -0.554260599481    -2.451582306199    -0.443888623459     1.007825032230
         H           -2.726089599481     1.923208693801     0.354262376541     1.007825032230
         H            0.691980400519     2.283908693801     0.286301376541     1.007825032230
         H            0.251164400519     2.315629693801    -1.428697623459     1.007825032230
         H           -0.800846599481     3.080720693801    -0.234079623459     1.007825032230
         H           -2.923588599481    -2.371103306199     0.282770376541     1.007825032230
         H           -4.015029599481    -0.163751306199     0.683772376541     1.007825032230
         H            3.957415400519    -0.313613306199     0.613869376541     1.007825032230

  Basis Set: AUG-CC-PVTZ
    Blend: AUG-CC-PVTZ
  Basis Set: (AUG-CC-PVTZ AUX)
    Blend: AUG-CC-PVTZ-JKFIT
	 Reference Energy          =    -496.5619811953721978 [Eh]
	 Singles Energy            =      -0.0000000000000000 [Eh]
	 Same-Spin Energy          =      -0.5241022222778766 [Eh]
	 Opposite-Spin Energy      =      -1.6296487033910041 [Eh]
	 Correlation Energy        =      -2.1537509256688807 [Eh]
	 Total Energy              =    -498.7157321210410714 [Eh]

	 ================> DF-SCS-MP2 Energies <==================
	-----------------------------------------------------------
	 SCS Same-Spin Scale       =       0.3333333333333333 [-]
	 SCS Opposite-Spin Scale   =       1.2000000000000000 [-]
	 SCS Same-Spin Energy      =      -0.1747007407592922 [Eh]
	 SCS Opposite-Spin Energy  =      -1.9555784440692048 [Eh]
	 SCS Correlation Energy    =      -2.1302791848284968 [Eh]
	 SCS Total Energy          =    -498.6922603802007075 [Eh]
	-----------------------------------------------------------

  Dipole Moment: [D]
     X:     0.5901      Y:    -0.1111      Z:    -1.1829     Total:     1.3266

*** Psi4 exiting successfully. Buy a developer a beer!
