                               Psi4 1.4a3.dev225

  ==> Input File <==

--------------------------------------------------------------------------
#psi4
#
memory 32 gb

molecule  {
0 1
  O        3.4036770    -0.5312700    -0.1399000
  O        1.8951010     0.2455770     1.3601080
  C       -0.2772440    -0.3351030    -0.4349210
  C       -0.8873890     0.9145300    -0.2106810
  C        1.1586640    -0.4340120    -0.8715550
  C       -1.0264005    -1.6559374    -0.2504253
  C       -2.2266560     0.9408910     0.1955810
  C       -0.1273370     2.2020410    -0.3962590
  C       -2.3465050    -1.4683140     0.1589870
  C       -2.9558630    -0.2342200     0.3827420
  C        2.1430500    -0.1948310     0.2522150
  H        1.3959000     0.2860400    -1.6653130
  H        1.3705120    -1.4228390    -1.2930960
  H       -0.5342380    -2.4720800    -0.4282290
  H       -2.7060670     1.9027110     0.3699220
  H        0.7120030     2.2634110     0.3019610
  H        0.2711870     2.2951320    -1.4130380
  H       -0.7808240     3.0602230    -0.2184200
  H       -2.9035660    -2.3916010     0.2984300
  H       -3.9950070    -0.1842490     0.6994320
  H        3.9774380    -0.3341110     0.6295290
units angstrom
no_reorient  #important for SAPT in psi4, default
symmetry c1  #important for SAPT in psi4, default
}

set PROPERTIES_ORIGIN ["COM"]
properties('MP2/aug-cc-pvtz', properties = ['dipole'])
--------------------------------------------------------------------------

    Molecular point group: c1
  Charge       = 0
  Multiplicity = 1
  Basis Set: AUG-CC-PVTZ
    Blend: AUG-CC-PVTZ
  Basis Set: (AUG-CC-PVTZ AUX)
    Blend: AUG-CC-PVTZ-JKFIT

    Orbital Energies [Eh]
    ---------------------

    Doubly Occupied:

       1A    -20.618477     2A    -20.554324     3A    -11.394122
       4A    -11.257925     5A    -11.256357     6A    -11.243111
       7A    -11.240040     8A    -11.236593     9A    -11.235793
      10A    -11.234478    11A    -11.223257    12A     -1.462429
      13A     -1.359789    14A     -1.150850    15A     -1.068774
      16A     -1.042212    17A     -0.979374    18A     -0.925640
      19A     -0.847503    20A     -0.819319    21A     -0.770656
      22A     -0.707992    23A     -0.687721    24A     -0.683380
      25A     -0.666483    26A     -0.647550    27A     -0.621563
      28A     -0.595382    29A     -0.581738    30A     -0.569827
      31A     -0.560700    32A     -0.550118    33A     -0.538420
      34A     -0.500320    35A     -0.487208    36A     -0.478469
      37A     -0.464821    38A     -0.456115    39A     -0.331704
      40A     -0.318074

  @DF-RHF Final Energy:  -496.53512327939023

   => Energetics <=

    Nuclear Repulsion Energy =            580.9525986107996687
    One-Electron Energy =               -1828.2382287588013696
    Two-Electron Energy =                 750.7505068686114100
    Total Energy =                       -496.5351232793902909
  Basis Set: (AUG-CC-PVTZ AUX)
    Blend: AUG-CC-PVTZ-RI
    Molecular point group: c1

    Geometry (in Angstrom), charge = 0, multiplicity = 1:

       Center              X                  Y                   Z               Mass
    ------------   -----------------  -----------------  -----------------  -----------------
         O            3.383768095830    -0.499797836000    -0.157793414217    15.994914619570
         O            1.875192095830     0.277049164000     1.342214585783    15.994914619570
         C           -0.297152904170    -0.303630836000    -0.452814414217    12.000000000000
         C           -0.907297904170     0.946002164000    -0.228574414217    12.000000000000
         C            1.138755095830    -0.402539836000    -0.889448414217    12.000000000000
         C           -1.046309404170    -1.624465236000    -0.268318714217    12.000000000000
         C           -2.246564904170     0.972363164000     0.177687585783    12.000000000000
         C           -0.147245904170     2.233513164000    -0.414152414217    12.000000000000
         C           -2.366413904170    -1.436841836000     0.141093585783    12.000000000000
         C           -2.975771904170    -0.202747836000     0.364848585783    12.000000000000
         C            2.123141095830    -0.163358836000     0.234321585783    12.000000000000
         H            1.375991095830     0.317512164000    -1.683206414217     1.007825032230
         H            1.350603095830    -1.391366836000    -1.310989414217     1.007825032230
         H           -0.554146904170    -2.440607836000    -0.446122414217     1.007825032230
         H           -2.725975904170     1.934183164000     0.352028585783     1.007825032230
         H            0.692094095830     2.294883164000     0.284067585783     1.007825032230
         H            0.251278095830     2.326604164000    -1.430931414217     1.007825032230
         H           -0.800732904170     3.091695164000    -0.236313414217     1.007825032230
         H           -2.923474904170    -2.360128836000     0.280536585783     1.007825032230
         H           -4.014915904170    -0.152776836000     0.681538585783     1.007825032230
         H            3.957529095830    -0.302638836000     0.611635585783     1.007825032230

  Basis Set: AUG-CC-PVTZ
    Blend: AUG-CC-PVTZ
  Basis Set: (AUG-CC-PVTZ AUX)
    Blend: AUG-CC-PVTZ-JKFIT
	 Reference Energy          =    -496.5351232793902341 [Eh]
	 Singles Energy            =      -0.0000000000000000 [Eh]
	 Same-Spin Energy          =      -0.5240335214703442 [Eh]
	 Opposite-Spin Energy      =      -1.6308749595675072 [Eh]
	 Correlation Energy        =      -2.1549084810378512 [Eh]
	 Total Energy              =    -498.6900317604280986 [Eh]

	 ================> DF-SCS-MP2 Energies <==================
	-----------------------------------------------------------
	 SCS Same-Spin Scale       =       0.3333333333333333 [-]
	 SCS Opposite-Spin Scale   =       1.2000000000000000 [-]
	 SCS Same-Spin Energy      =      -0.1746778404901147 [Eh]
	 SCS Opposite-Spin Energy  =      -1.9570499514810085 [Eh]
	 SCS Correlation Energy    =      -2.1317277919711231 [Eh]
	 SCS Total Energy          =    -498.6668510713613500 [Eh]
	-----------------------------------------------------------

  Dipole Moment: [D]
     X:     0.5506      Y:    -0.0942      Z:    -1.2154     Total:     1.3377

*** Psi4 exiting successfully. Buy a developer a beer!
