                               Psi4 1.4a3.dev225

  ==> Input File <==

--------------------------------------------------------------------------
#psi4
#
memory 32 gb

molecule  {
0 1
  O        3.4036770    -0.5312700    -0.1399000
  O        1.8951010     0.2455770     1.3601080
  C       -0.2772440    -0.3351030    -0.4349210
  C       -0.8873890     0.9145300    -0.2106810
  C        1.1586640    -0.4340120    -0.8715550
  C       -1.0136460    -1.5104990    -0.2499190
  C       -2.2266560     0.9408910     0.1955810
  C       -0.1273370     2.2020410    -0.3962590
  C       -2.3465050    -1.4683140     0.1589870
  C       -2.9558630    -0.2342200     0.3827420
  C        2.1430500    -0.1948310     0.2522150
  H        1.3959000     0.2860400    -1.6653130
  H        1.3705120    -1.4228390    -1.2930960
  H       -0.5342380    -2.4720800    -0.4282290
  H       -2.6840500     1.8585392     0.3619154
  H        0.7120030     2.2634110     0.3019610
  H        0.2711870     2.2951320    -1.4130380
  H       -0.7808240     3.0602230    -0.2184200
  H       -2.9035660    -2.3916010     0.2984300
  H       -3.9950070    -0.1842490     0.6994320
  H        3.9774380    -0.3341110     0.6295290
units angstrom
no_reorient  #important for SAPT in psi4, default
symmetry c1  #important for SAPT in psi4, default
}

set PROPERTIES_ORIGIN ["COM"]
properties('MP2/aug-cc-pvtz', properties = ['dipole'])
--------------------------------------------------------------------------

    Molecular point group: c1
  Charge       = 0
  Multiplicity = 1
  Basis Set: AUG-CC-PVTZ
    Blend: AUG-CC-PVTZ
  Basis Set: (AUG-CC-PVTZ AUX)
    Blend: AUG-CC-PVTZ-JKFIT

    Orbital Energies [Eh]
    ---------------------

    Doubly Occupied:

       1A    -20.618792     2A    -20.554790     3A    -11.394562
       4A    -11.258446     5A    -11.244168     6A    -11.242966
       7A    -11.236474     8A    -11.234301     9A    -11.232042
      10A    -11.225194    11A    -11.222922    12A     -1.462798
      13A     -1.360236    14A     -1.160783    15A     -1.070737
      16A     -1.042173    17A     -0.982500    18A     -0.930677
      19A     -0.841423    20A     -0.814728    21A     -0.778317
      22A     -0.709061    23A     -0.689300    24A     -0.679561
      25A     -0.667227    26A     -0.630356    27A     -0.627642
      28A     -0.596323    29A     -0.579083    30A     -0.568587
      31A     -0.564692    32A     -0.548743    33A     -0.542050
      34A     -0.491245    35A     -0.488373    36A     -0.483814
      37A     -0.481349    38A     -0.457720    39A     -0.333265
      40A     -0.323126

  @DF-RHF Final Energy:  -496.56369885629499

   => Energetics <=

    Nuclear Repulsion Energy =            583.8015146184949344
    One-Electron Energy =               -1833.9893371143780314
    Two-Electron Energy =                 753.6241236395882197
    Total Energy =                       -496.5636988562949909
  Basis Set: (AUG-CC-PVTZ AUX)
    Blend: AUG-CC-PVTZ-RI
    Molecular point group: c1

    Geometry (in Angstrom), charge = 0, multiplicity = 1:

       Center              X                  Y                   Z               Mass
    ------------   -----------------  -----------------  -----------------  -----------------
         O            3.382600337275    -0.511130981325    -0.157780129234    15.994914619570
         O            1.874024337275     0.265716018675     1.342227870766    15.994914619570
         C           -0.298320662725    -0.314963981325    -0.452801129234    12.000000000000
         C           -0.908465662725     0.934669018675    -0.228561129234    12.000000000000
         C            1.137587337275    -0.413872981325    -0.889435129234    12.000000000000
         C           -1.034722662725    -1.490359981325    -0.267799129234    12.000000000000
         C           -2.247732662725     0.961030018675     0.177700870766    12.000000000000
         C           -0.148413662725     2.222180018675    -0.414139129234    12.000000000000
         C           -2.367581662725    -1.448174981325     0.141106870766    12.000000000000
         C           -2.976939662725    -0.214080981325     0.364861870766    12.000000000000
         C            2.121973337275    -0.174691981325     0.234334870766    12.000000000000
         H            1.374823337275     0.306179018675    -1.683193129234     1.007825032230
         H            1.349435337275    -1.402699981325    -1.310976129234     1.007825032230
         H           -0.555314662725    -2.451940981325    -0.446109129234     1.007825032230
         H           -2.705126662725     1.878678218675     0.344035270766     1.007825032230
         H            0.690926337275     2.283550018675     0.284080870766     1.007825032230
         H            0.250110337275     2.315271018675    -1.430918129234     1.007825032230
         H           -0.801900662725     3.080362018675    -0.236300129234     1.007825032230
         H           -2.924642662725    -2.371461981325     0.280549870766     1.007825032230
         H           -4.016083662725    -0.164109981325     0.681551870766     1.007825032230
         H            3.956361337275    -0.313971981325     0.611648870766     1.007825032230

  Basis Set: AUG-CC-PVTZ
    Blend: AUG-CC-PVTZ
  Basis Set: (AUG-CC-PVTZ AUX)
    Blend: AUG-CC-PVTZ-JKFIT
	 Reference Energy          =    -496.5636988562949909 [Eh]
	 Singles Energy            =      -0.0000000000000000 [Eh]
	 Same-Spin Energy          =      -0.5235396594573497 [Eh]
	 Opposite-Spin Energy      =      -1.6283305334311051 [Eh]
	 Correlation Energy        =      -2.1518701928884547 [Eh]
	 Total Energy              =    -498.7155690491834434 [Eh]

	 ================> DF-SCS-MP2 Energies <==================
	-----------------------------------------------------------
	 SCS Same-Spin Scale       =       0.3333333333333333 [-]
	 SCS Opposite-Spin Scale   =       1.2000000000000000 [-]
	 SCS Same-Spin Energy      =      -0.1745132198191165 [Eh]
	 SCS Opposite-Spin Energy  =      -1.9539966401173261 [Eh]
	 SCS Correlation Energy    =      -2.1285098599364427 [Eh]
	 SCS Total Energy          =    -498.6922087162314483 [Eh]
	-----------------------------------------------------------

  Dipole Moment: [D]
     X:     0.5341      Y:    -0.0968      Z:    -1.2091     Total:     1.3254

*** Psi4 exiting successfully. Buy a developer a beer!
