                               Psi4 1.4a3.dev225

  ==> Input File <==

--------------------------------------------------------------------------
#psi4
#
memory 32 gb

molecule  {
0 1
  O        3.4036770    -0.5312700    -0.1399000
  O        1.8951010     0.2455770     1.3601080
  C       -0.2772440    -0.3351030    -0.4349210
  C       -0.8873890     0.9145300    -0.2106810
  C        1.1586640    -0.4340120    -0.8715550
  C       -1.0136460    -1.5104990    -0.2499190
  C       -2.2266560     0.9408910     0.1955810
  C       -0.1273370     2.2020410    -0.3962590
  C       -2.3465050    -1.4683140     0.1589870
  C       -2.9558630    -0.2342200     0.3827420
  C        2.1430500    -0.1948310     0.2522150
  H        1.3959000     0.2860400    -1.6653130
  H        1.3705120    -1.4228390    -1.2930960
  H       -0.5342380    -2.4720800    -0.4282290
  H       -2.7060670     1.9027110     0.3699220
  H        0.7120030     2.2634110     0.3019610
  H        0.2711870     2.2951320    -1.4130380
  H       -0.7808240     3.0602230    -0.2184200
  H       -2.9035660    -2.3916010     0.2984300
  H       -3.9950070    -0.1842490     0.6994320
  H        3.9481598    -0.3441717     0.5902662
units angstrom
no_reorient  #important for SAPT in psi4, default
symmetry c1  #important for SAPT in psi4, default
}

set PROPERTIES_ORIGIN ["COM"]
properties('MP2/aug-cc-pvtz', properties = ['dipole'])
--------------------------------------------------------------------------

    Molecular point group: c1
  Charge       = 0
  Multiplicity = 1
  Basis Set: AUG-CC-PVTZ
    Blend: AUG-CC-PVTZ
  Basis Set: (AUG-CC-PVTZ AUX)
    Blend: AUG-CC-PVTZ-JKFIT

    Orbital Energies [Eh]
    ---------------------

    Doubly Occupied:

       1A    -20.615459     2A    -20.555866     3A    -11.395620
       4A    -11.258878     5A    -11.244780     6A    -11.243608
       7A    -11.236871     8A    -11.234984     9A    -11.232597
      10A    -11.231300    11A    -11.223055    12A     -1.470933
      13A     -1.365327    14A     -1.161040    15A     -1.071483
      16A     -1.041926    17A     -0.983393    18A     -0.930925
      19A     -0.847018    20A     -0.813318    21A     -0.780554
      22A     -0.713458    23A     -0.690353    24A     -0.679394
      25A     -0.667538    26A     -0.629015    27A     -0.626222
      28A     -0.599133    29A     -0.578529    30A     -0.568983
      31A     -0.565208    32A     -0.549696    33A     -0.540842
      34A     -0.492084    35A     -0.487156    36A     -0.484206
      37A     -0.482368    38A     -0.458679    39A     -0.333707
      40A     -0.323640

  @DF-RHF Final Energy:  -496.56519070057641

   => Energetics <=

    Nuclear Repulsion Energy =            583.8518860855356252
    One-Electron Energy =               -1834.0158569779844129
    Two-Electron Energy =                 753.5987801918723790
    Total Energy =                       -496.5651907005764087
  Basis Set: (AUG-CC-PVTZ AUX)
    Blend: AUG-CC-PVTZ-RI
    Molecular point group: c1

    Geometry (in Angstrom), charge = 0, multiplicity = 1:

       Center              X                  Y                   Z               Mass
    ------------   -----------------  -----------------  -----------------  -----------------
         O            3.382944824835    -0.511360064155    -0.157570219299    15.994914619570
         O            1.874368824835     0.265486935845     1.342437780701    15.994914619570
         C           -0.297976175165    -0.315193064155    -0.452591219299    12.000000000000
         C           -0.908121175165     0.934439935845    -0.228351219299    12.000000000000
         C            1.137931824835    -0.414102064155    -0.889225219299    12.000000000000
         C           -1.034378175165    -1.490589064155    -0.267589219299    12.000000000000
         C           -2.247388175165     0.960800935845     0.177910780701    12.000000000000
         C           -0.148069175165     2.221950935845    -0.413929219299    12.000000000000
         C           -2.367237175165    -1.448404064155     0.141316780701    12.000000000000
         C           -2.976595175165    -0.214310064155     0.365071780701    12.000000000000
         C            2.122317824835    -0.174921064155     0.234544780701    12.000000000000
         H            1.375167824835     0.305949935845    -1.682983219299     1.007825032230
         H            1.349779824835    -1.402929064155    -1.310766219299     1.007825032230
         H           -0.554970175165    -2.452170064155    -0.445899219299     1.007825032230
         H           -2.726799175165     1.922620935845     0.352251780701     1.007825032230
         H            0.691270824835     2.283320935845     0.284290780701     1.007825032230
         H            0.250454824835     2.315041935845    -1.430708219299     1.007825032230
         H           -0.801556175165     3.080132935845    -0.236090219299     1.007825032230
         H           -2.924298175165    -2.371691064155     0.280759780701     1.007825032230
         H           -4.015739175165    -0.164339064155     0.681761780701     1.007825032230
         H            3.927427624835    -0.324261764155     0.572595980701     1.007825032230

  Basis Set: AUG-CC-PVTZ
    Blend: AUG-CC-PVTZ
  Basis Set: (AUG-CC-PVTZ AUX)
    Blend: AUG-CC-PVTZ-JKFIT
	 Reference Energy          =    -496.5651907005764087 [Eh]
	 Singles Energy            =      -0.0000000000000000 [Eh]
	 Same-Spin Energy          =      -0.5230012436701985 [Eh]
	 Opposite-Spin Energy      =      -1.6271993314079891 [Eh]
	 Correlation Energy        =      -2.1502005750781876 [Eh]
	 Total Energy              =    -498.7153912756546106 [Eh]

	 ================> DF-SCS-MP2 Energies <==================
	-----------------------------------------------------------
	 SCS Same-Spin Scale       =       0.3333333333333333 [-]
	 SCS Opposite-Spin Scale   =       1.2000000000000000 [-]
	 SCS Same-Spin Energy      =      -0.1743337478900662 [Eh]
	 SCS Opposite-Spin Energy  =      -1.9526391976895869 [Eh]
	 SCS Correlation Energy    =      -2.1269729455796531 [Eh]
	 SCS Total Energy          =    -498.6921636461560752 [Eh]
	-----------------------------------------------------------

  Dipole Moment: [D]
     X:     0.4925      Y:    -0.1206      Z:    -1.2481     Total:     1.3472

*** Psi4 exiting successfully. Buy a developer a beer!
