                               Psi4 1.4a3.dev225

  ==> Input File <==

--------------------------------------------------------------------------
#psi4
#
memory 32 gb

molecule  {
0 1
  O        3.4036770    -0.5312700    -0.1399000
  O        1.8951010     0.2455770     1.3601080
  C       -0.2772440    -0.3351030    -0.4349210
  C       -0.8873890     0.9145300    -0.2106810
  C        1.1586640    -0.4340120    -0.8715550
  C       -1.0136460    -1.5104990    -0.2499190
  C       -2.2266560     0.9408910     0.1955810
  C       -0.1273370     2.2020410    -0.3962590
  C       -2.3465050    -1.4683140     0.1589870
  C       -2.9362321    -0.2471619     0.3763851
  C        2.1430500    -0.1948310     0.2522150
  H        1.3959000     0.2860400    -1.6653130
  H        1.3705120    -1.4228390    -1.2930960
  H       -0.5342380    -2.4720800    -0.4282290
  H       -2.7060670     1.9027110     0.3699220
  H        0.7120030     2.2634110     0.3019610
  H        0.2711870     2.2951320    -1.4130380
  H       -0.7808240     3.0602230    -0.2184200
  H       -2.9035660    -2.3916010     0.2984300
  H       -3.9950070    -0.1842490     0.6994320
  H        3.9774380    -0.3341110     0.6295290
units angstrom
no_reorient  #important for SAPT in psi4, default
symmetry c1  #important for SAPT in psi4, default
}

set PROPERTIES_ORIGIN ["COM"]
properties('MP2/aug-cc-pvtz', properties = ['dipole'])
--------------------------------------------------------------------------

    Molecular point group: c1
  Charge       = 0
  Multiplicity = 1
  Basis Set: AUG-CC-PVTZ
    Blend: AUG-CC-PVTZ
  Basis Set: (AUG-CC-PVTZ AUX)
    Blend: AUG-CC-PVTZ-JKFIT

    Orbital Energies [Eh]
    ---------------------

    Doubly Occupied:

       1A    -20.618830     2A    -20.554834     3A    -11.394580
       4A    -11.258556     5A    -11.244410     6A    -11.243270
       7A    -11.236736     8A    -11.234126     9A    -11.230829
      10A    -11.230002    11A    -11.222801    12A     -1.462838
      13A     -1.360280    14A     -1.162311    15A     -1.071960
      16A     -1.042485    17A     -0.981127    18A     -0.931537
      19A     -0.840516    20A     -0.812813    21A     -0.776774
      22A     -0.708882    23A     -0.689235    24A     -0.678195
      25A     -0.667483    26A     -0.628417    27A     -0.624317
      28A     -0.596375    29A     -0.575895    30A     -0.568345
      31A     -0.565403    32A     -0.548802    33A     -0.541443
      34A     -0.492650    35A     -0.488260    36A     -0.481948
      37A     -0.480939    38A     -0.457880    39A     -0.332862
      40A     -0.325513

  @DF-RHF Final Energy:  -496.56388377340397

   => Energetics <=

    Nuclear Repulsion Energy =            583.9504384141254150
    One-Electron Energy =               -1834.2997291491008127
    Two-Electron Energy =                 753.7854069615715389
    Total Energy =                       -496.5638837734039726
  Basis Set: (AUG-CC-PVTZ AUX)
    Blend: AUG-CC-PVTZ-RI
    Molecular point group: c1

    Geometry (in Angstrom), charge = 0, multiplicity = 1:

       Center              X                  Y                   Z               Mass
    ------------   -----------------  -----------------  -----------------  -----------------
         O            3.381178439181    -0.510392747354    -0.157325578551    15.994914619570
         O            1.872602439181     0.266454252646     1.342682421449    15.994914619570
         C           -0.299742560819    -0.314225747354    -0.452346578551    12.000000000000
         C           -0.909887560819     0.935407252646    -0.228106578551    12.000000000000
         C            1.136165439181    -0.413134747354    -0.888980578551    12.000000000000
         C           -1.036144560819    -1.489621747354    -0.267344578551    12.000000000000
         C           -2.249154560819     0.961768252646     0.178155421449    12.000000000000
         C           -0.149835560819     2.222918252646    -0.413684578551    12.000000000000
         C           -2.369003560819    -1.447436747354     0.141561421449    12.000000000000
         C           -2.958730660819    -0.226284647354     0.358959521449    12.000000000000
         C            2.120551439181    -0.173953747354     0.234789421449    12.000000000000
         H            1.373401439181     0.306917252646    -1.682738578551     1.007825032230
         H            1.348013439181    -1.401961747354    -1.310521578551     1.007825032230
         H           -0.556736560819    -2.451202747354    -0.445654578551     1.007825032230
         H           -2.728565560819     1.923588252646     0.352496421449     1.007825032230
         H            0.689504439181     2.284288252646     0.284535421449     1.007825032230
         H            0.248688439181     2.316009252646    -1.430463578551     1.007825032230
         H           -0.803322560819     3.081100252646    -0.235845578551     1.007825032230
         H           -2.926064560819    -2.370723747354     0.281004421449     1.007825032230
         H           -4.017505560819    -0.163371747354     0.682006421449     1.007825032230
         H            3.954939439181    -0.313233747354     0.612103421449     1.007825032230

  Basis Set: AUG-CC-PVTZ
    Blend: AUG-CC-PVTZ
  Basis Set: (AUG-CC-PVTZ AUX)
    Blend: AUG-CC-PVTZ-JKFIT
	 Reference Energy          =    -496.5638837734039726 [Eh]
	 Singles Energy            =      -0.0000000000000000 [Eh]
	 Same-Spin Energy          =      -0.5236339213414710 [Eh]
	 Opposite-Spin Energy      =      -1.6285296700432226 [Eh]
	 Correlation Energy        =      -2.1521635913846935 [Eh]
	 Total Energy              =    -498.7160473647886647 [Eh]

	 ================> DF-SCS-MP2 Energies <==================
	-----------------------------------------------------------
	 SCS Same-Spin Scale       =       0.3333333333333333 [-]
	 SCS Opposite-Spin Scale   =       1.2000000000000000 [-]
	 SCS Same-Spin Energy      =      -0.1745446404471570 [Eh]
	 SCS Opposite-Spin Energy  =      -1.9542356040518669 [Eh]
	 SCS Correlation Energy    =      -2.1287802444990240 [Eh]
	 SCS Total Energy          =    -498.6926640179029846 [Eh]
	-----------------------------------------------------------

  Dipole Moment: [D]
     X:     0.5517      Y:    -0.1151      Z:    -1.2146     Total:     1.3390

*** Psi4 exiting successfully. Buy a developer a beer!
