                               Psi4 1.4a3.dev225

  ==> Input File <==

--------------------------------------------------------------------------
#psi4
#
memory 32 gb

molecule  {
0 1
  O        3.4036770    -0.5312700    -0.1399000
  O        1.8951010     0.2455770     1.3601080
  C       -0.2772440    -0.3351030    -0.4349210
  C       -0.8873890     0.9145300    -0.2106810
  C        1.1586640    -0.4340120    -0.8715550
  C       -1.0136460    -1.5104990    -0.2499190
  C       -2.2266560     0.9408910     0.1955810
  C       -0.1273370     2.2020410    -0.3962590
  C       -2.3273933    -1.4689189     0.1531238
  C       -2.9558630    -0.2342200     0.3827420
  C        2.1430500    -0.1948310     0.2522150
  H        1.3959000     0.2860400    -1.6653130
  H        1.3705120    -1.4228390    -1.2930960
  H       -0.5342380    -2.4720800    -0.4282290
  H       -2.7060670     1.9027110     0.3699220
  H        0.7120030     2.2634110     0.3019610
  H        0.2711870     2.2951320    -1.4130380
  H       -0.7808240     3.0602230    -0.2184200
  H       -2.9035660    -2.3916010     0.2984300
  H       -3.9950070    -0.1842490     0.6994320
  H        3.9774380    -0.3341110     0.6295290
units angstrom
no_reorient  #important for SAPT in psi4, default
symmetry c1  #important for SAPT in psi4, default
}

set PROPERTIES_ORIGIN ["COM"]
properties('MP2/aug-cc-pvtz', properties = ['dipole'])
--------------------------------------------------------------------------

    Molecular point group: c1
  Charge       = 0
  Multiplicity = 1
  Basis Set: AUG-CC-PVTZ
    Blend: AUG-CC-PVTZ
  Basis Set: (AUG-CC-PVTZ AUX)
    Blend: AUG-CC-PVTZ-JKFIT

    Orbital Energies [Eh]
    ---------------------

    Doubly Occupied:

       1A    -20.618854     2A    -20.554855     3A    -11.394648
       4A    -11.258574     5A    -11.244382     6A    -11.243181
       7A    -11.235694     8A    -11.234522     9A    -11.232094
      10A    -11.231239    11A    -11.222779    12A     -1.462861
      13A     -1.360295    14A     -1.161654    15A     -1.070152
      16A     -1.042932    17A     -0.982544    18A     -0.929799
      19A     -0.841204    20A     -0.811373    21A     -0.778258
      22A     -0.708793    23A     -0.689135    24A     -0.678446
      25A     -0.667035    26A     -0.628115    27A     -0.625073
      28A     -0.596375    29A     -0.579291    30A     -0.568677
      31A     -0.562494    32A     -0.548999    33A     -0.540598
      34A     -0.492013    35A     -0.487839    36A     -0.482599
      37A     -0.481303    38A     -0.457818    39A     -0.334959
      40A     -0.322652

  @DF-RHF Final Energy:  -496.56392122480253

   => Energetics <=

    Nuclear Repulsion Energy =            583.7835828506375719
    One-Electron Energy =               -1833.9667916199368847
    Two-Electron Energy =                 753.6192875444966148
    Total Energy =                       -496.5639212248025842
  Basis Set: (AUG-CC-PVTZ AUX)
    Blend: AUG-CC-PVTZ-RI
    Molecular point group: c1

    Geometry (in Angstrom), charge = 0, multiplicity = 1:

       Center              X                  Y                   Z               Mass
    ------------   -----------------  -----------------  -----------------  -----------------
         O            3.381219956338    -0.511379259612    -0.157365056633    15.994914619570
         O            1.872643956338     0.265467740388     1.342642943367    15.994914619570
         C           -0.299701043662    -0.315212259612    -0.452386056633    12.000000000000
         C           -0.909846043662     0.934420740388    -0.228146056633    12.000000000000
         C            1.136206956338    -0.414121259612    -0.889020056633    12.000000000000
         C           -1.036103043662    -1.490608259612    -0.267384056633    12.000000000000
         C           -2.249113043662     0.960781740388     0.178115943367    12.000000000000
         C           -0.149794043662     2.221931740388    -0.413724056633    12.000000000000
         C           -2.349850343662    -1.449028159612     0.135658743367    12.000000000000
         C           -2.978320043662    -0.214329259612     0.365276943367    12.000000000000
         C            2.120592956338    -0.174940259612     0.234749943367    12.000000000000
         H            1.373442956338     0.305930740388    -1.682778056633     1.007825032230
         H            1.348054956338    -1.402948259612    -1.310561056633     1.007825032230
         H           -0.556695043662    -2.452189259612    -0.445694056633     1.007825032230
         H           -2.728524043662     1.922601740388     0.352456943367     1.007825032230
         H            0.689545956338     2.283301740388     0.284495943367     1.007825032230
         H            0.248729956338     2.315022740388    -1.430503056633     1.007825032230
         H           -0.803281043662     3.080113740388    -0.235885056633     1.007825032230
         H           -2.926023043662    -2.371710259612     0.280964943367     1.007825032230
         H           -4.017464043662    -0.164358259612     0.681966943367     1.007825032230
         H            3.954980956338    -0.314220259612     0.612063943367     1.007825032230

  Basis Set: AUG-CC-PVTZ
    Blend: AUG-CC-PVTZ
  Basis Set: (AUG-CC-PVTZ AUX)
    Blend: AUG-CC-PVTZ-JKFIT
	 Reference Energy          =    -496.5639212248025274 [Eh]
	 Singles Energy            =      -0.0000000000000000 [Eh]
	 Same-Spin Energy          =      -0.5236941370203192 [Eh]
	 Opposite-Spin Energy      =      -1.6286754115050488 [Eh]
	 Correlation Energy        =      -2.1523695485253680 [Eh]
	 Total Energy              =    -498.7162907733278985 [Eh]

	 ================> DF-SCS-MP2 Energies <==================
	-----------------------------------------------------------
	 SCS Same-Spin Scale       =       0.3333333333333333 [-]
	 SCS Opposite-Spin Scale   =       1.2000000000000000 [-]
	 SCS Same-Spin Energy      =      -0.1745647123401064 [Eh]
	 SCS Opposite-Spin Energy  =      -1.9544104938060585 [Eh]
	 SCS Correlation Energy    =      -2.1289752061461646 [Eh]
	 SCS Total Energy          =    -498.6928964309486787 [Eh]
	-----------------------------------------------------------

  Dipole Moment: [D]
     X:     0.5416      Y:    -0.1101      Z:    -1.2109     Total:     1.3311

*** Psi4 exiting successfully. Buy a developer a beer!
