                               Psi4 1.4a3.dev225

  ==> Input File <==

--------------------------------------------------------------------------
#psi4
#
memory 32 gb

molecule  {
0 1
  O        3.4036770    -0.5312700    -0.1399000
  O        1.8951010     0.2455770     1.3601080
  C       -0.2772440    -0.3351030    -0.4349210
  C       -0.8873890     0.9145300    -0.2106810
  C        1.1586640    -0.4340120    -0.8715550
  C       -1.0136460    -1.5104990    -0.2499190
  C       -2.2266560     0.9408910     0.1955810
  C       -0.1273370     2.2020410    -0.3962590
  C       -2.2987258    -1.4698262     0.1443289
  C       -2.9558630    -0.2342200     0.3827420
  C        2.1430500    -0.1948310     0.2522150
  H        1.3959000     0.2860400    -1.6653130
  H        1.3705120    -1.4228390    -1.2930960
  H       -0.5342380    -2.4720800    -0.4282290
  H       -2.7060670     1.9027110     0.3699220
  H        0.7120030     2.2634110     0.3019610
  H        0.2711870     2.2951320    -1.4130380
  H       -0.7808240     3.0602230    -0.2184200
  H       -2.9035660    -2.3916010     0.2984300
  H       -3.9950070    -0.1842490     0.6994320
  H        3.9774380    -0.3341110     0.6295290
units angstrom
no_reorient  #important for SAPT in psi4, default
symmetry c1  #important for SAPT in psi4, default
}

set PROPERTIES_ORIGIN ["COM"]
properties('MP2/aug-cc-pvtz', properties = ['dipole'])
--------------------------------------------------------------------------

    Molecular point group: c1
  Charge       = 0
  Multiplicity = 1
  Basis Set: AUG-CC-PVTZ
    Blend: AUG-CC-PVTZ
  Basis Set: (AUG-CC-PVTZ AUX)
    Blend: AUG-CC-PVTZ-JKFIT

    Orbital Energies [Eh]
    ---------------------

    Doubly Occupied:

       1A    -20.618821     2A    -20.554820     3A    -11.394618
       4A    -11.258471     5A    -11.244084     6A    -11.242844
       7A    -11.237049     8A    -11.232217     9A    -11.231406
      10A    -11.230325    11A    -11.222684    12A     -1.462827
      13A     -1.360256    14A     -1.163102    15A     -1.069461
      16A     -1.045195    17A     -0.983485    18A     -0.929015
      19A     -0.841785    20A     -0.810147    21A     -0.778503
      22A     -0.708714    23A     -0.689032    24A     -0.678348
      25A     -0.667403    26A     -0.628593    27A     -0.624005
      28A     -0.596373    29A     -0.581674    30A     -0.569000
      31A     -0.559171    32A     -0.549006    33A     -0.540518
      34A     -0.493155    35A     -0.489966    36A     -0.482222
      37A     -0.477788    38A     -0.457809    39A     -0.338029
      40A     -0.320885

  @DF-RHF Final Energy:  -496.56113971316313

   => Energetics <=

    Nuclear Repulsion Energy =            584.1728350235592870
    One-Electron Energy =               -1834.7423377279417309
    Two-Electron Energy =                 754.0083629912194283
    Total Energy =                       -496.5611397131631293
  Basis Set: (AUG-CC-PVTZ AUX)
    Blend: AUG-CC-PVTZ-RI
    Molecular point group: c1

    Geometry (in Angstrom), charge = 0, multiplicity = 1:

       Center              X                  Y                   Z               Mass
    ------------   -----------------  -----------------  -----------------  -----------------
         O            3.378927596757    -0.511306708540    -0.156661783823    15.994914619570
         O            1.870351596757     0.265540291460     1.343346216177    15.994914619570
         C           -0.301993403243    -0.315139708540    -0.451682783823    12.000000000000
         C           -0.912138403243     0.934493291460    -0.227442783823    12.000000000000
         C            1.133914596757    -0.414048708540    -0.888316783823    12.000000000000
         C           -1.038395403243    -1.490535708540    -0.266680783823    12.000000000000
         C           -2.251405403243     0.960854291460     0.178819216177    12.000000000000
         C           -0.152086403243     2.222004291460    -0.413020783823    12.000000000000
         C           -2.323475203243    -1.449862908540     0.127567116177    12.000000000000
         C           -2.980612403243    -0.214256708540     0.365980216177    12.000000000000
         C            2.118300596757    -0.174867708540     0.235453216177    12.000000000000
         H            1.371150596757     0.306003291460    -1.682074783823     1.007825032230
         H            1.345762596757    -1.402875708540    -1.309857783823     1.007825032230
         H           -0.558987403243    -2.452116708540    -0.444990783823     1.007825032230
         H           -2.730816403243     1.922674291460     0.353160216177     1.007825032230
         H            0.687253596757     2.283374291460     0.285199216177     1.007825032230
         H            0.246437596757     2.315095291460    -1.429799783823     1.007825032230
         H           -0.805573403243     3.080186291460    -0.235181783823     1.007825032230
         H           -2.928315403243    -2.371637708540     0.281668216177     1.007825032230
         H           -4.019756403243    -0.164285708540     0.682670216177     1.007825032230
         H            3.952688596757    -0.314147708540     0.612767216177     1.007825032230

  Basis Set: AUG-CC-PVTZ
    Blend: AUG-CC-PVTZ
  Basis Set: (AUG-CC-PVTZ AUX)
    Blend: AUG-CC-PVTZ-JKFIT
	 Reference Energy          =    -496.5611397131631293 [Eh]
	 Singles Energy            =      -0.0000000000000000 [Eh]
	 Same-Spin Energy          =      -0.5237416080359403 [Eh]
	 Opposite-Spin Energy      =      -1.6287837527345173 [Eh]
	 Correlation Energy        =      -2.1525253607704578 [Eh]
	 Total Energy              =    -498.7136650739336119 [Eh]

	 ================> DF-SCS-MP2 Energies <==================
	-----------------------------------------------------------
	 SCS Same-Spin Scale       =       0.3333333333333333 [-]
	 SCS Opposite-Spin Scale   =       1.2000000000000000 [-]
	 SCS Same-Spin Energy      =      -0.1745805360119801 [Eh]
	 SCS Opposite-Spin Energy  =      -1.9545405032814207 [Eh]
	 SCS Correlation Energy    =      -2.1291210392934006 [Eh]
	 SCS Total Energy          =    -498.6902607524565383 [Eh]
	-----------------------------------------------------------

  Dipole Moment: [D]
     X:     0.5383      Y:    -0.1017      Z:    -1.2103     Total:     1.3285

*** Psi4 exiting successfully. Buy a developer a beer!
