                               Psi4 1.4a3.dev225

  ==> Input File <==

--------------------------------------------------------------------------
#psi4
#
memory 32 gb

molecule  {
0 1
  O        3.4036770    -0.5312700    -0.1399000
  O        1.8951010     0.2455770     1.3601080
  C       -0.2772440    -0.3351030    -0.4349210
  C       -0.8873890     0.9145300    -0.2106810
  C        1.1586640    -0.4340120    -0.8715550
  C       -1.0132538    -1.4131845    -0.2470902
  C       -2.2266560     0.9408910     0.1955810
  C       -0.1273370     2.2020410    -0.3962590
  C       -2.3465050    -1.4683140     0.1589870
  C       -2.9558630    -0.2342200     0.3827420
  C        2.1430500    -0.1948310     0.2522150
  H        1.3959000     0.2860400    -1.6653130
  H        1.3705120    -1.4228390    -1.2930960
  H       -0.5342380    -2.4720800    -0.4282290
  H       -2.7060670     1.9027110     0.3699220
  H        0.7120030     2.2634110     0.3019610
  H        0.2711870     2.2951320    -1.4130380
  H       -0.7808240     3.0602230    -0.2184200
  H       -2.9035660    -2.3916010     0.2984300
  H       -3.9950070    -0.1842490     0.6994320
  H        3.9774380    -0.3341110     0.6295290
units angstrom
no_reorient  #important for SAPT in psi4, default
symmetry c1  #important for SAPT in psi4, default
}

set PROPERTIES_ORIGIN ["COM"]
properties('MP2/aug-cc-pvtz', properties = ['dipole'])
--------------------------------------------------------------------------

    Molecular point group: c1
  Charge       = 0
  Multiplicity = 1
  Basis Set: AUG-CC-PVTZ
    Blend: AUG-CC-PVTZ
  Basis Set: (AUG-CC-PVTZ AUX)
    Blend: AUG-CC-PVTZ-JKFIT

    Orbital Energies [Eh]
    ---------------------

    Doubly Occupied:

       1A    -20.619301     2A    -20.555449     3A    -11.395340
       4A    -11.259598     5A    -11.244957     6A    -11.236078
       7A    -11.235038     8A    -11.234263     9A    -11.231772
      10A    -11.228895    11A    -11.222842    12A     -1.463364
      13A     -1.360869    14A     -1.170522    15A     -1.072876
      16A     -1.041671    17A     -0.986826    18A     -0.933543
      19A     -0.838839    20A     -0.808554    21A     -0.784122
      22A     -0.709593    23A     -0.690830    24A     -0.679977
      25A     -0.665383    26A     -0.632209    27A     -0.615034
      28A     -0.597472    29A     -0.577010    30A     -0.570115
      31A     -0.566358    32A     -0.545341    33A     -0.541152
      34A     -0.497026    35A     -0.492233    36A     -0.483260
      37A     -0.469154    38A     -0.458377    39A     -0.342422
      40A     -0.321826

  @DF-RHF Final Energy:  -496.55305485870980

   => Energetics <=

    Nuclear Repulsion Energy =            585.3485788791338109
    One-Electron Energy =               -1837.0442744290269275
    Two-Electron Energy =                 755.1426406911832601
    Total Energy =                       -496.5530548587098565
  Basis Set: (AUG-CC-PVTZ AUX)
    Blend: AUG-CC-PVTZ-RI
    Molecular point group: c1

    Geometry (in Angstrom), charge = 0, multiplicity = 1:

       Center              X                  Y                   Z               Mass
    ------------   -----------------  -----------------  -----------------  -----------------
         O            3.382716836958    -0.519209257860    -0.158060101177    15.994914619570
         O            1.874140836958     0.257637742140     1.341947898823    15.994914619570
         C           -0.298204163042    -0.323042257860    -0.453081101177    12.000000000000
         C           -0.908349163042     0.926590742140    -0.228841101177    12.000000000000
         C            1.137703836958    -0.421951257860    -0.889715101177    12.000000000000
         C           -1.034213963042    -1.401123757860    -0.265250301177    12.000000000000
         C           -2.247616163042     0.952951742140     0.177420898823    12.000000000000
         C           -0.148297163042     2.214101742140    -0.414419101177    12.000000000000
         C           -2.367465163042    -1.456253257860     0.140826898823    12.000000000000
         C           -2.976823163042    -0.222159257860     0.364581898823    12.000000000000
         C            2.122089836958    -0.182770257860     0.234054898823    12.000000000000
         H            1.374939836958     0.298100742140    -1.683473101177     1.007825032230
         H            1.349551836958    -1.410778257860    -1.311256101177     1.007825032230
         H           -0.555198163042    -2.460019257860    -0.446389101177     1.007825032230
         H           -2.727027163042     1.914771742140     0.351761898823     1.007825032230
         H            0.691042836958     2.275471742140     0.283800898823     1.007825032230
         H            0.250226836958     2.307192742140    -1.431198101177     1.007825032230
         H           -0.801784163042     3.072283742140    -0.236580101177     1.007825032230
         H           -2.924526163042    -2.379540257860     0.280269898823     1.007825032230
         H           -4.015967163042    -0.172188257860     0.681271898823     1.007825032230
         H            3.956477836958    -0.322050257860     0.611368898823     1.007825032230

  Basis Set: AUG-CC-PVTZ
    Blend: AUG-CC-PVTZ
  Basis Set: (AUG-CC-PVTZ AUX)
    Blend: AUG-CC-PVTZ-JKFIT
	 Reference Energy          =    -496.5530548587097996 [Eh]
	 Singles Energy            =      -0.0000000000000000 [Eh]
	 Same-Spin Energy          =      -0.5236889285157401 [Eh]
	 Opposite-Spin Energy      =      -1.6288113511888449 [Eh]
	 Correlation Energy        =      -2.1525002797045851 [Eh]
	 Total Energy              =    -498.7055551384144110 [Eh]

	 ================> DF-SCS-MP2 Energies <==================
	-----------------------------------------------------------
	 SCS Same-Spin Scale       =       0.3333333333333333 [-]
	 SCS Opposite-Spin Scale   =       1.2000000000000000 [-]
	 SCS Same-Spin Energy      =      -0.1745629761719134 [Eh]
	 SCS Opposite-Spin Energy  =      -1.9545736214266138 [Eh]
	 SCS Correlation Energy    =      -2.1291365975985270 [Eh]
	 SCS Total Energy          =    -498.6821914563083169 [Eh]
	-----------------------------------------------------------

  Dipole Moment: [D]
     X:     0.5166      Y:    -0.0788      Z:    -1.1990     Total:     1.3079

*** Psi4 exiting successfully. Buy a developer a beer!
