                               Psi4 1.4a3.dev225

  ==> Input File <==

--------------------------------------------------------------------------
#psi4
#
memory 32 gb

molecule  {
0 1
  O        3.4338218    -0.5056708    -0.0534198
  O        1.8951010     0.2455770     1.3601080
  C       -0.2772440    -0.3351030    -0.4349210
  C       -0.8873890     0.9145300    -0.2106810
  C        1.1586640    -0.4340120    -0.8715550
  C       -1.0136460    -1.5104990    -0.2499190
  C       -2.2266560     0.9408910     0.1955810
  C       -0.1273370     2.2020410    -0.3962590
  C       -2.3465050    -1.4683140     0.1589870
  C       -2.9558630    -0.2342200     0.3827420
  C        2.1430500    -0.1948310     0.2522150
  H        1.3959000     0.2860400    -1.6653130
  H        1.3705120    -1.4228390    -1.2930960
  H       -0.5342380    -2.4720800    -0.4282290
  H       -2.7060670     1.9027110     0.3699220
  H        0.7120030     2.2634110     0.3019610
  H        0.2711870     2.2951320    -1.4130380
  H       -0.7808240     3.0602230    -0.2184200
  H       -2.9035660    -2.3916010     0.2984300
  H       -3.9950070    -0.1842490     0.6994320
  H        3.9774380    -0.3341110     0.6295290
units angstrom
no_reorient  #important for SAPT in psi4, default
symmetry c1  #important for SAPT in psi4, default
}

set PROPERTIES_ORIGIN ["COM"]
properties('MP2/aug-cc-pvtz', properties = ['dipole'])
--------------------------------------------------------------------------

    Molecular point group: c1
  Charge       = 0
  Multiplicity = 1
  Basis Set: AUG-CC-PVTZ
    Blend: AUG-CC-PVTZ
  Basis Set: (AUG-CC-PVTZ AUX)
    Blend: AUG-CC-PVTZ-JKFIT

    Orbital Energies [Eh]
    ---------------------

    Doubly Occupied:

       1A    -20.605014     2A    -20.550195     3A    -11.394798
       4A    -11.263111     5A    -11.246392     6A    -11.244958
       7A    -11.238169     8A    -11.236021     9A    -11.233436
      10A    -11.232074    11A    -11.223479    12A     -1.472915
      13A     -1.361110    14A     -1.162234    15A     -1.073364
      16A     -1.042894    17A     -0.985439    18A     -0.931993
      19A     -0.857326    20A     -0.815715    21A     -0.785616
      22A     -0.708969    23A     -0.691857    24A     -0.679546
      25A     -0.667566    26A     -0.628309    27A     -0.627609
      28A     -0.593359    29A     -0.580161    30A     -0.568752
      31A     -0.566511    32A     -0.551867    33A     -0.541450
      34A     -0.491305    35A     -0.488389    36A     -0.485379
      37A     -0.478420    38A     -0.456213    39A     -0.334892
      40A     -0.324681

  @DF-RHF Final Energy:  -496.56095337888206

   => Energetics <=

    Nuclear Repulsion Energy =            583.7033789905910908
    One-Electron Energy =               -1833.6856905284137156
    Two-Electron Energy =                 753.4213581589406203
    Total Energy =                       -496.5609533788820045
  Basis Set: (AUG-CC-PVTZ AUX)
    Blend: AUG-CC-PVTZ-RI
    Molecular point group: c1

    Geometry (in Angstrom), charge = 0, multiplicity = 1:

       Center              X                  Y                   Z               Mass
    ------------   -----------------  -----------------  -----------------  -----------------
         O            3.409680033624    -0.488556904758    -0.080571139149    15.994914619570
         O            1.870959233624     0.262690895242     1.332956660851    15.994914619570
         C           -0.301385766376    -0.317989104758    -0.462072339149    12.000000000000
         C           -0.911530766376     0.931643895242    -0.237832339149    12.000000000000
         C            1.134522233624    -0.416898104758    -0.898706339149    12.000000000000
         C           -1.037787766376    -1.493385104758    -0.277070339149    12.000000000000
         C           -2.250797766376     0.958004895242     0.168429660851    12.000000000000
         C           -0.151478766376     2.219154895242    -0.423410339149    12.000000000000
         C           -2.370646766376    -1.451200104758     0.131835660851    12.000000000000
         C           -2.980004766376    -0.217106104758     0.355590660851    12.000000000000
         C            2.118908233624    -0.177717104758     0.225063660851    12.000000000000
         H            1.371758233624     0.303153895242    -1.692464339149     1.007825032230
         H            1.346370233624    -1.405725104758    -1.320247339149     1.007825032230
         H           -0.558379766376    -2.454966104758    -0.455380339149     1.007825032230
         H           -2.730208766376     1.919824895242     0.342770660851     1.007825032230
         H            0.687861233624     2.280524895242     0.274809660851     1.007825032230
         H            0.247045233624     2.312245895242    -1.440189339149     1.007825032230
         H           -0.804965766376     3.077336895242    -0.245571339149     1.007825032230
         H           -2.927707766376    -2.374487104758     0.271278660851     1.007825032230
         H           -4.019148766376    -0.167135104758     0.672280660851     1.007825032230
         H            3.953296233624    -0.316997104758     0.602377660851     1.007825032230

  Basis Set: AUG-CC-PVTZ
    Blend: AUG-CC-PVTZ
  Basis Set: (AUG-CC-PVTZ AUX)
    Blend: AUG-CC-PVTZ-JKFIT
	 Reference Energy          =    -496.5609533788820613 [Eh]
	 Singles Energy            =      -0.0000000000000000 [Eh]
	 Same-Spin Energy          =      -0.5220097235348258 [Eh]
	 Opposite-Spin Energy      =      -1.6252113078540402 [Eh]
	 Correlation Energy        =      -2.1472210313888658 [Eh]
	 Total Energy              =    -498.7081744102709422 [Eh]

	 ================> DF-SCS-MP2 Energies <==================
	-----------------------------------------------------------
	 SCS Same-Spin Scale       =       0.3333333333333333 [-]
	 SCS Opposite-Spin Scale   =       1.2000000000000000 [-]
	 SCS Same-Spin Energy      =      -0.1740032411782753 [Eh]
	 SCS Opposite-Spin Energy  =      -1.9502535694248482 [Eh]
	 SCS Correlation Energy    =      -2.1242568106031232 [Eh]
	 SCS Total Energy          =    -498.6852101894851899 [Eh]
	-----------------------------------------------------------

  Dipole Moment: [D]
     X:     0.3458      Y:    -0.1319      Z:    -1.3336     Total:     1.3840

*** Psi4 exiting successfully. Buy a developer a beer!
