                               Psi4 1.4a3.dev225

  ==> Input File <==

--------------------------------------------------------------------------
#psi4
#
memory 32 gb

molecule  {
0 1
  O        3.4036770    -0.5312700    -0.1399000
  O        1.8951010     0.2455770     1.3601080
  C       -0.2772440    -0.3351030    -0.4349210
  C       -0.8873890     0.9145300    -0.2106810
  C        1.1586640    -0.4340120    -0.8715550
  C       -1.0136460    -1.5104990    -0.2499190
  C       -2.2271264     0.9164752     0.1948802
  C       -0.1273370     2.2020410    -0.3962590
  C       -2.3465050    -1.4683140     0.1589870
  C       -2.9558630    -0.2342200     0.3827420
  C        2.1430500    -0.1948310     0.2522150
  H        1.3959000     0.2860400    -1.6653130
  H        1.3705120    -1.4228390    -1.2930960
  H       -0.5342380    -2.4720800    -0.4282290
  H       -2.7060670     1.9027110     0.3699220
  H        0.7120030     2.2634110     0.3019610
  H        0.2711870     2.2951320    -1.4130380
  H       -0.7808240     3.0602230    -0.2184200
  H       -2.9035660    -2.3916010     0.2984300
  H       -3.9950070    -0.1842490     0.6994320
  H        3.9774380    -0.3341110     0.6295290
units angstrom
no_reorient  #important for SAPT in psi4, default
symmetry c1  #important for SAPT in psi4, default
}

set PROPERTIES_ORIGIN ["COM"]
properties('MP2/aug-cc-pvtz', properties = ['dipole'])
--------------------------------------------------------------------------

    Molecular point group: c1
  Charge       = 0
  Multiplicity = 1
  Basis Set: AUG-CC-PVTZ
    Blend: AUG-CC-PVTZ
  Basis Set: (AUG-CC-PVTZ AUX)
    Blend: AUG-CC-PVTZ-JKFIT

    Orbital Energies [Eh]
    ---------------------

    Doubly Occupied:

       1A    -20.618903     2A    -20.554922     3A    -11.394724
       4A    -11.258487     5A    -11.244447     6A    -11.243261
       7A    -11.236151     8A    -11.233068     9A    -11.231960
      10A    -11.230563    11A    -11.223532    12A     -1.462918
      13A     -1.360362    14A     -1.162279    15A     -1.072215
      16A     -1.040938    17A     -0.983474    18A     -0.930810
      19A     -0.840453    20A     -0.811538    21A     -0.778354
      22A     -0.708781    23A     -0.689481    24A     -0.679214
      25A     -0.666887    26A     -0.628707    27A     -0.622275
      28A     -0.596485    29A     -0.578087    30A     -0.568401
      31A     -0.565031    32A     -0.549074    33A     -0.540099
      34A     -0.492810    35A     -0.486749    36A     -0.483313
      37A     -0.481123    38A     -0.457973    39A     -0.335448
      40A     -0.322888

  @DF-RHF Final Energy:  -496.56373282524879

   => Energetics <=

    Nuclear Repulsion Energy =            583.8509600837018070
    One-Electron Energy =               -1834.0970150544876560
    Two-Electron Energy =                 753.6823221455370003
    Total Energy =                       -496.5637328252487350
  Basis Set: (AUG-CC-PVTZ AUX)
    Blend: AUG-CC-PVTZ-RI
    Molecular point group: c1

    Geometry (in Angstrom), charge = 0, multiplicity = 1:

       Center              X                  Y                   Z               Mass
    ------------   -----------------  -----------------  -----------------  -----------------
         O            3.382785813652    -0.509475251772    -0.157777861276    15.994914619570
         O            1.874209813652     0.267371748228     1.342230138724    15.994914619570
         C           -0.298135186348    -0.313308251772    -0.452798861276    12.000000000000
         C           -0.908280186348     0.936324748228    -0.228558861276    12.000000000000
         C            1.137772813652    -0.412217251772    -0.889432861276    12.000000000000
         C           -1.034537186348    -1.488704251772    -0.267796861276    12.000000000000
         C           -2.248017586348     0.938269948228     0.177002338724    12.000000000000
         C           -0.148228186348     2.223835748228    -0.414136861276    12.000000000000
         C           -2.367396186348    -1.446519251772     0.141109138724    12.000000000000
         C           -2.976754186348    -0.212425251772     0.364864138724    12.000000000000
         C            2.122158813652    -0.173036251772     0.234337138724    12.000000000000
         H            1.375008813652     0.307834748228    -1.683190861276     1.007825032230
         H            1.349620813652    -1.401044251772    -1.310973861276     1.007825032230
         H           -0.555129186348    -2.450285251772    -0.446106861276     1.007825032230
         H           -2.726958186348     1.924505748228     0.352044138724     1.007825032230
         H            0.691111813652     2.285205748228     0.284083138724     1.007825032230
         H            0.250295813652     2.316926748228    -1.430915861276     1.007825032230
         H           -0.801715186348     3.082017748228    -0.236297861276     1.007825032230
         H           -2.924457186348    -2.369806251772     0.280552138724     1.007825032230
         H           -4.015898186348    -0.162454251772     0.681554138724     1.007825032230
         H            3.956546813652    -0.312316251772     0.611651138724     1.007825032230

  Basis Set: AUG-CC-PVTZ
    Blend: AUG-CC-PVTZ
  Basis Set: (AUG-CC-PVTZ AUX)
    Blend: AUG-CC-PVTZ-JKFIT
	 Reference Energy          =    -496.5637328252487919 [Eh]
	 Singles Energy            =      -0.0000000000000000 [Eh]
	 Same-Spin Energy          =      -0.5237162859617026 [Eh]
	 Opposite-Spin Energy      =      -1.6286198322680452 [Eh]
	 Correlation Energy        =      -2.1523361182297478 [Eh]
	 Total Energy              =    -498.7160689434785468 [Eh]

	 ================> DF-SCS-MP2 Energies <==================
	-----------------------------------------------------------
	 SCS Same-Spin Scale       =       0.3333333333333333 [-]
	 SCS Opposite-Spin Scale   =       1.2000000000000000 [-]
	 SCS Same-Spin Energy      =      -0.1745720953205675 [Eh]
	 SCS Opposite-Spin Energy  =      -1.9543437987216541 [Eh]
	 SCS Correlation Energy    =      -2.1289158940422217 [Eh]
	 SCS Total Energy          =    -498.6926487192910145 [Eh]
	-----------------------------------------------------------

  Dipole Moment: [D]
     X:     0.5509      Y:    -0.1172      Z:    -1.2144     Total:     1.3386

*** Psi4 exiting successfully. Buy a developer a beer!
