                               Psi4 1.4a3.dev225

  ==> Input File <==

--------------------------------------------------------------------------
#psi4
#
memory 32 gb

molecule  {
0 1
  O        3.4036770    -0.5312700    -0.1399000
  O        1.8951010     0.2455770     1.3601080
  C       -0.2772440    -0.3351030    -0.4349210
  C       -0.8873890     0.9145300    -0.2106810
  C        1.1586640    -0.4340120    -0.8715550
  C       -1.0136460    -1.5104990    -0.2499190
  C       -2.2266560     0.9408910     0.1955810
  C       -0.1273370     2.2020410    -0.3962590
  C       -2.3465050    -1.4683140     0.1589870
  C       -2.9752718    -0.2209202     0.3890419
  C        2.1430500    -0.1948310     0.2522150
  H        1.3959000     0.2860400    -1.6653130
  H        1.3705120    -1.4228390    -1.2930960
  H       -0.5342380    -2.4720800    -0.4282290
  H       -2.7060670     1.9027110     0.3699220
  H        0.7120030     2.2634110     0.3019610
  H        0.2711870     2.2951320    -1.4130380
  H       -0.7808240     3.0602230    -0.2184200
  H       -2.9035660    -2.3916010     0.2984300
  H       -3.9950070    -0.1842490     0.6994320
  H        3.9774380    -0.3341110     0.6295290
units angstrom
no_reorient  #important for SAPT in psi4, default
symmetry c1  #important for SAPT in psi4, default
}

set PROPERTIES_ORIGIN ["COM"]
properties('MP2/aug-cc-pvtz', properties = ['dipole'])
--------------------------------------------------------------------------

    Molecular point group: c1
  Charge       = 0
  Multiplicity = 1
  Basis Set: AUG-CC-PVTZ
    Blend: AUG-CC-PVTZ
  Basis Set: (AUG-CC-PVTZ AUX)
    Blend: AUG-CC-PVTZ-JKFIT

    Orbital Energies [Eh]
    ---------------------

    Doubly Occupied:

       1A    -20.618935     2A    -20.554938     3A    -11.394769
       4A    -11.258747     5A    -11.244841     6A    -11.243556
       7A    -11.236764     8A    -11.235641     9A    -11.234539
      10A    -11.231546    11A    -11.222910    12A     -1.462945
      13A     -1.360377    14A     -1.159454    15A     -1.069520
      16A     -1.040799    17A     -0.982632    18A     -0.929226
      19A     -0.841285    20A     -0.811413    21A     -0.779512
      22A     -0.708848    23A     -0.689206    24A     -0.679062
      25A     -0.666211    26A     -0.628775    27A     -0.626172
      28A     -0.596404    29A     -0.580411    30A     -0.568482
      31A     -0.563589    32A     -0.548873    33A     -0.539600
      34A     -0.490858    35A     -0.488289    36A     -0.483069
      37A     -0.480878    38A     -0.457773    39A     -0.334261
      40A     -0.321376

  @DF-RHF Final Energy:  -496.56336532378782

   => Energetics <=

    Nuclear Repulsion Energy =            583.1226352257141343
    One-Electron Energy =               -1832.6390328831141687
    Two-Electron Energy =                 752.9530323336121000
    Total Energy =                       -496.5633653237878207
  Basis Set: (AUG-CC-PVTZ AUX)
    Blend: AUG-CC-PVTZ-RI
    Molecular point group: c1

    Geometry (in Angstrom), charge = 0, multiplicity = 1:

       Center              X                  Y                   Z               Mass
    ------------   -----------------  -----------------  -----------------  -----------------
         O            3.384300198328    -0.512491130974    -0.158337663202    15.994914619570
         O            1.875724198328     0.264355869026     1.341670336798    15.994914619570
         C           -0.296620801672    -0.316324130974    -0.453358663202    12.000000000000
         C           -0.906765801672     0.933308869026    -0.229118663202    12.000000000000
         C            1.139287198328    -0.415233130974    -0.889992663202    12.000000000000
         C           -1.033022801672    -1.491720130974    -0.268356663202    12.000000000000
         C           -2.246032801672     0.959669869026     0.177143336798    12.000000000000
         C           -0.146713801672     2.220819869026    -0.414696663202    12.000000000000
         C           -2.365881801672    -1.449535130974     0.140549336798    12.000000000000
         C           -2.994648601672    -0.202141330974     0.370604236798    12.000000000000
         C            2.123673198328    -0.176052130974     0.233777336798    12.000000000000
         H            1.376523198328     0.304818869026    -1.683750663202     1.007825032230
         H            1.351135198328    -1.404060130974    -1.311533663202     1.007825032230
         H           -0.553614801672    -2.453301130974    -0.446666663202     1.007825032230
         H           -2.725443801672     1.921489869026     0.351484336798     1.007825032230
         H            0.692626198328     2.282189869026     0.283523336798     1.007825032230
         H            0.251810198328     2.313910869026    -1.431475663202     1.007825032230
         H           -0.800200801672     3.079001869026    -0.236857663202     1.007825032230
         H           -2.922942801672    -2.372822130974     0.279992336798     1.007825032230
         H           -4.014383801672    -0.165470130974     0.680994336798     1.007825032230
         H            3.958061198328    -0.315332130974     0.611091336798     1.007825032230

  Basis Set: AUG-CC-PVTZ
    Blend: AUG-CC-PVTZ
  Basis Set: (AUG-CC-PVTZ AUX)
    Blend: AUG-CC-PVTZ-JKFIT
	 Reference Energy          =    -496.5633653237878207 [Eh]
	 Singles Energy            =      -0.0000000000000000 [Eh]
	 Same-Spin Energy          =      -0.5236717816501362 [Eh]
	 Opposite-Spin Energy      =      -1.6288723501824496 [Eh]
	 Correlation Energy        =      -2.1525441318325855 [Eh]
	 Total Energy              =    -498.7159094556204195 [Eh]

	 ================> DF-SCS-MP2 Energies <==================
	-----------------------------------------------------------
	 SCS Same-Spin Scale       =       0.3333333333333333 [-]
	 SCS Opposite-Spin Scale   =       1.2000000000000000 [-]
	 SCS Same-Spin Energy      =      -0.1745572605500454 [Eh]
	 SCS Opposite-Spin Energy  =      -1.9546468202189393 [Eh]
	 SCS Correlation Energy    =      -2.1292040807689845 [Eh]
	 SCS Total Energy          =    -498.6925694045568207 [Eh]
	-----------------------------------------------------------

  Dipole Moment: [D]
     X:     0.5398      Y:    -0.1151      Z:    -1.2093     Total:     1.3293

*** Psi4 exiting successfully. Buy a developer a beer!
