                               Psi4 1.4a3.dev225

  ==> Input File <==

--------------------------------------------------------------------------
#psi4
#
memory 32 gb

molecule  {
0 1
  O        3.4036770    -0.5312700    -0.1399000
  O        1.8951010     0.2455770     1.3601080
  C       -0.2772440    -0.3351030    -0.4349210
  C       -0.8873890     0.9145300    -0.2106810
  C        1.1586640    -0.4340120    -0.8715550
  C       -1.0136460    -1.5104990    -0.2499190
  C       -2.2744945     0.9418326     0.2100927
  C       -0.1273370     2.2020410    -0.3962590
  C       -2.3465050    -1.4683140     0.1589870
  C       -2.9558630    -0.2342200     0.3827420
  C        2.1430500    -0.1948310     0.2522150
  H        1.3959000     0.2860400    -1.6653130
  H        1.3705120    -1.4228390    -1.2930960
  H       -0.5342380    -2.4720800    -0.4282290
  H       -2.7060670     1.9027110     0.3699220
  H        0.7120030     2.2634110     0.3019610
  H        0.2711870     2.2951320    -1.4130380
  H       -0.7808240     3.0602230    -0.2184200
  H       -2.9035660    -2.3916010     0.2984300
  H       -3.9950070    -0.1842490     0.6994320
  H        3.9774380    -0.3341110     0.6295290
units angstrom
no_reorient  #important for SAPT in psi4, default
symmetry c1  #important for SAPT in psi4, default
}

set PROPERTIES_ORIGIN ["COM"]
properties('MP2/aug-cc-pvtz', properties = ['dipole'])
--------------------------------------------------------------------------

    Molecular point group: c1
  Charge       = 0
  Multiplicity = 1
  Basis Set: AUG-CC-PVTZ
    Blend: AUG-CC-PVTZ
  Basis Set: (AUG-CC-PVTZ AUX)
    Blend: AUG-CC-PVTZ-JKFIT

    Orbital Energies [Eh]
    ---------------------

    Doubly Occupied:

       1A    -20.618797     2A    -20.554762     3A    -11.394528
       4A    -11.258531     5A    -11.249246     6A    -11.243147
       7A    -11.237192     8A    -11.233017     9A    -11.232159
      10A    -11.231118    11A    -11.223579    12A     -1.462790
      13A     -1.360205    14A     -1.158283    15A     -1.072220
      16A     -1.037753    17A     -0.985314    18A     -0.929035
      19A     -0.838674    20A     -0.814716    21A     -0.776015
      22A     -0.708888    23A     -0.689192    24A     -0.679065
      25A     -0.666498    26A     -0.630102    27A     -0.625690
      28A     -0.596192    29A     -0.580112    30A     -0.568064
      31A     -0.563166    32A     -0.548000    33A     -0.543384
      34A     -0.492374    35A     -0.489374    36A     -0.481682
      37A     -0.477924    38A     -0.457714    39A     -0.336586
      40A     -0.318622

  @DF-RHF Final Energy:  -496.56122745804862

   => Energetics <=

    Nuclear Repulsion Energy =            582.8306700310745327
    One-Electron Energy =               -1832.0563751113638773
    Two-Electron Energy =                 752.6644776222407245
    Total Energy =                       -496.5612274580486201
  Basis Set: (AUG-CC-PVTZ AUX)
    Blend: AUG-CC-PVTZ-RI
    Molecular point group: c1

    Geometry (in Angstrom), charge = 0, multiplicity = 1:

       Center              X                  Y                   Z               Mass
    ------------   -----------------  -----------------  -----------------  -----------------
         O            3.386573542539    -0.511502923485    -0.158994309174    15.994914619570
         O            1.877997542539     0.265344076515     1.341013690826    15.994914619570
         C           -0.294347457461    -0.315335923485    -0.454015309174    12.000000000000
         C           -0.904492457461     0.934297076515    -0.229775309174    12.000000000000
         C            1.141560542539    -0.414244923485    -0.890649309174    12.000000000000
         C           -1.030749457461    -1.490731923485    -0.269013309174    12.000000000000
         C           -2.291597957461     0.961599676515     0.190998390826    12.000000000000
         C           -0.144440457461     2.221808076515    -0.415353309174    12.000000000000
         C           -2.363608457461    -1.448546923485     0.139892690826    12.000000000000
         C           -2.972966457461    -0.214452923485     0.363647690826    12.000000000000
         C            2.125946542539    -0.175063923485     0.233120690826    12.000000000000
         H            1.378796542539     0.305807076515    -1.684407309174     1.007825032230
         H            1.353408542539    -1.403071923485    -1.312190309174     1.007825032230
         H           -0.551341457461    -2.452312923485    -0.447323309174     1.007825032230
         H           -2.723170457461     1.922478076515     0.350827690826     1.007825032230
         H            0.694899542539     2.283178076515     0.282866690826     1.007825032230
         H            0.254083542539     2.314899076515    -1.432132309174     1.007825032230
         H           -0.797927457461     3.079990076515    -0.237514309174     1.007825032230
         H           -2.920669457461    -2.371833923485     0.279335690826     1.007825032230
         H           -4.012110457461    -0.164481923485     0.680337690826     1.007825032230
         H            3.960334542539    -0.314343923485     0.610434690826     1.007825032230

  Basis Set: AUG-CC-PVTZ
    Blend: AUG-CC-PVTZ
  Basis Set: (AUG-CC-PVTZ AUX)
    Blend: AUG-CC-PVTZ-JKFIT
	 Reference Energy          =    -496.5612274580486201 [Eh]
	 Singles Energy            =      -0.0000000000000000 [Eh]
	 Same-Spin Energy          =      -0.5236390873255863 [Eh]
	 Opposite-Spin Energy      =      -1.6288018129091275 [Eh]
	 Correlation Energy        =      -2.1524409002347138 [Eh]
	 Total Energy              =    -498.7136683582833143 [Eh]

	 ================> DF-SCS-MP2 Energies <==================
	-----------------------------------------------------------
	 SCS Same-Spin Scale       =       0.3333333333333333 [-]
	 SCS Opposite-Spin Scale   =       1.2000000000000000 [-]
	 SCS Same-Spin Energy      =      -0.1745463624418621 [Eh]
	 SCS Opposite-Spin Energy  =      -1.9545621754909530 [Eh]
	 SCS Correlation Energy    =      -2.1291085379328152 [Eh]
	 SCS Total Energy          =    -498.6903359959814566 [Eh]
	-----------------------------------------------------------

  Dipole Moment: [D]
     X:     0.5548      Y:    -0.0878      Z:    -1.2124     Total:     1.3361

*** Psi4 exiting successfully. Buy a developer a beer!
