                               Psi4 1.4a3.dev225

  ==> Input File <==

--------------------------------------------------------------------------
#psi4
#
memory 32 gb

molecule  {
0 1
  O        3.4036770    -0.5312700    -0.1399000
  O        1.8951010     0.2455770     1.3601080
  C       -0.2772440    -0.3351030    -0.4349210
  C       -0.8655557     0.9010737    -0.2164811
  C        1.1586640    -0.4340120    -0.8715550
  C       -1.0136460    -1.5104990    -0.2499190
  C       -2.2266560     0.9408910     0.1955810
  C       -0.1273370     2.2020410    -0.3962590
  C       -2.3465050    -1.4683140     0.1589870
  C       -2.9558630    -0.2342200     0.3827420
  C        2.1430500    -0.1948310     0.2522150
  H        1.3959000     0.2860400    -1.6653130
  H        1.3705120    -1.4228390    -1.2930960
  H       -0.5342380    -2.4720800    -0.4282290
  H       -2.7060670     1.9027110     0.3699220
  H        0.7120030     2.2634110     0.3019610
  H        0.2711870     2.2951320    -1.4130380
  H       -0.7808240     3.0602230    -0.2184200
  H       -2.9035660    -2.3916010     0.2984300
  H       -3.9950070    -0.1842490     0.6994320
  H        3.9774380    -0.3341110     0.6295290
units angstrom
no_reorient  #important for SAPT in psi4, default
symmetry c1  #important for SAPT in psi4, default
}

set PROPERTIES_ORIGIN ["COM"]
properties('MP2/aug-cc-pvtz', properties = ['dipole'])
--------------------------------------------------------------------------

    Molecular point group: c1
  Charge       = 0
  Multiplicity = 1
  Basis Set: AUG-CC-PVTZ
    Blend: AUG-CC-PVTZ
  Basis Set: (AUG-CC-PVTZ AUX)
    Blend: AUG-CC-PVTZ-JKFIT

    Orbital Energies [Eh]
    ---------------------

    Doubly Occupied:

       1A    -20.618759     2A    -20.554810     3A    -11.394537
       4A    -11.258093     5A    -11.244073     6A    -11.241547
       7A    -11.236846     8A    -11.234885     9A    -11.233400
      10A    -11.232428    11A    -11.222986    12A     -1.462784
      13A     -1.360245    14A     -1.161514    15A     -1.071040
      16A     -1.039916    17A     -0.982177    18A     -0.930493
      19A     -0.839930    20A     -0.815338    21A     -0.776119
      22A     -0.708774    23A     -0.689041    24A     -0.678426
      25A     -0.666966    26A     -0.627773    27A     -0.626069
      28A     -0.596547    29A     -0.577154    30A     -0.567920
      31A     -0.565744    32A     -0.547973    33A     -0.541275
      34A     -0.491557    35A     -0.489965    36A     -0.481808
      37A     -0.480153    38A     -0.457686    39A     -0.333102
      40A     -0.323826

  @DF-RHF Final Energy:  -496.56355984435373

   => Energetics <=

    Nuclear Repulsion Energy =            583.7227125322496022
    One-Electron Energy =               -1833.8451820276166018
    Two-Electron Energy =                 753.5589096510133231
    Total Energy =                       -496.5635598443537901
  Basis Set: (AUG-CC-PVTZ AUX)
    Blend: AUG-CC-PVTZ-RI
    Molecular point group: c1

    Geometry (in Angstrom), charge = 0, multiplicity = 1:

       Center              X                  Y                   Z               Mass
    ------------   -----------------  -----------------  -----------------  -----------------
         O            3.381002327112    -0.510351614023    -0.157370102343    15.994914619570
         O            1.872426327112     0.266495385977     1.342637897657    15.994914619570
         C           -0.299918672888    -0.314184614023    -0.452391102343    12.000000000000
         C           -0.888230372888     0.921992085977    -0.233951202343    12.000000000000
         C            1.135989327112    -0.413093614023    -0.889025102343    12.000000000000
         C           -1.036320672888    -1.489580614023    -0.267389102343    12.000000000000
         C           -2.249330672888     0.961809385977     0.178110897657    12.000000000000
         C           -0.150011672888     2.222959385977    -0.413729102343    12.000000000000
         C           -2.369179672888    -1.447395614023     0.141516897657    12.000000000000
         C           -2.978537672888    -0.213301614023     0.365271897657    12.000000000000
         C            2.120375327112    -0.173912614023     0.234744897657    12.000000000000
         H            1.373225327112     0.306958385977    -1.682783102343     1.007825032230
         H            1.347837327112    -1.401920614023    -1.310566102343     1.007825032230
         H           -0.556912672888    -2.451161614023    -0.445699102343     1.007825032230
         H           -2.728741672888     1.923629385977     0.352451897657     1.007825032230
         H            0.689328327112     2.284329385977     0.284490897657     1.007825032230
         H            0.248512327112     2.316050385977    -1.430508102343     1.007825032230
         H           -0.803498672888     3.081141385977    -0.235890102343     1.007825032230
         H           -2.926240672888    -2.370682614023     0.280959897657     1.007825032230
         H           -4.017681672888    -0.163330614023     0.681961897657     1.007825032230
         H            3.954763327112    -0.313192614023     0.612058897657     1.007825032230

  Basis Set: AUG-CC-PVTZ
    Blend: AUG-CC-PVTZ
  Basis Set: (AUG-CC-PVTZ AUX)
    Blend: AUG-CC-PVTZ-JKFIT
	 Reference Energy          =    -496.5635598443537333 [Eh]
	 Singles Energy            =      -0.0000000000000000 [Eh]
	 Same-Spin Energy          =      -0.5236695651034782 [Eh]
	 Opposite-Spin Energy      =      -1.6287169222070013 [Eh]
	 Correlation Energy        =      -2.1523864873104794 [Eh]
	 Total Energy              =    -498.7159463316642132 [Eh]

	 ================> DF-SCS-MP2 Energies <==================
	-----------------------------------------------------------
	 SCS Same-Spin Scale       =       0.3333333333333333 [-]
	 SCS Opposite-Spin Scale   =       1.2000000000000000 [-]
	 SCS Same-Spin Energy      =      -0.1745565217011594 [Eh]
	 SCS Opposite-Spin Energy  =      -1.9544603066484014 [Eh]
	 SCS Correlation Energy    =      -2.1290168283495610 [Eh]
	 SCS Total Energy          =    -498.6925766727032965 [Eh]
	-----------------------------------------------------------

  Dipole Moment: [D]
     X:     0.5325      Y:    -0.1058      Z:    -1.2086     Total:     1.3249

*** Psi4 exiting successfully. Buy a developer a beer!
