                               Psi4 1.4a3.dev225

  ==> Input File <==

--------------------------------------------------------------------------
#psi4
#
memory 32 gb

molecule  {
0 1
  O        3.4036770    -0.5312700    -0.1399000
  O        1.8951010     0.2455770     1.3601080
  C       -0.2772440    -0.3351030    -0.4349210
  C       -0.8873890     0.9145300    -0.2106810
  C        1.1586640    -0.4340120    -0.8715550
  C       -1.0136460    -1.5104990    -0.2499190
  C       -2.2266560     0.9408910     0.1955810
  C       -0.1273370     2.2020410    -0.3962590
  C       -2.3465050    -1.4683140     0.1589870
  C       -2.9558630    -0.2342200     0.3827420
  C        2.1837732    -0.2671637     0.0702545
  H        1.3959000     0.2860400    -1.6653130
  H        1.3705120    -1.4228390    -1.2930960
  H       -0.5342380    -2.4720800    -0.4282290
  H       -2.7060670     1.9027110     0.3699220
  H        0.7120030     2.2634110     0.3019610
  H        0.2711870     2.2951320    -1.4130380
  H       -0.7808240     3.0602230    -0.2184200
  H       -2.9035660    -2.3916010     0.2984300
  H       -3.9950070    -0.1842490     0.6994320
  H        3.9774380    -0.3341110     0.6295290
units angstrom
no_reorient  #important for SAPT in psi4, default
symmetry c1  #important for SAPT in psi4, default
}

set PROPERTIES_ORIGIN ["COM"]
properties('MP2/aug-cc-pvtz', properties = ['dipole'])
--------------------------------------------------------------------------

    Molecular point group: c1
  Charge       = 0
  Multiplicity = 1
  Basis Set: AUG-CC-PVTZ
    Blend: AUG-CC-PVTZ
  Basis Set: (AUG-CC-PVTZ AUX)
    Blend: AUG-CC-PVTZ-JKFIT

    Orbital Energies [Eh]
    ---------------------

    Doubly Occupied:

       1A    -20.649047     2A    -20.515293     3A    -11.407179
       4A    -11.265276     5A    -11.249487     6A    -11.244717
       7A    -11.238862     8A    -11.235423     9A    -11.232557
      10A    -11.230586    11A    -11.219454    12A     -1.503339
      13A     -1.249479    14A     -1.162711    15A     -1.092523
      16A     -1.042853    17A     -1.000782    18A     -0.932202
      19A     -0.875939    20A     -0.818071    21A     -0.793828
      22A     -0.711707    23A     -0.702751    24A     -0.686081
      25A     -0.676577    26A     -0.638888    27A     -0.631019
      28A     -0.584683    29A     -0.575461    30A     -0.570378
      31A     -0.560960    32A     -0.539009    33A     -0.518060
      34A     -0.491807    35A     -0.485988    36A     -0.483685
      37A     -0.425335    38A     -0.416621    39A     -0.334692
      40A     -0.323175

  @DF-RHF Final Energy:  -496.49812995601906

   => Energetics <=

    Nuclear Repulsion Energy =            582.9498941049431551
    One-Electron Energy =               -1832.2630814999563427
    Two-Electron Energy =                 752.8150574389942449
    Total Energy =                       -496.4981299560190564
  Basis Set: (AUG-CC-PVTZ AUX)
    Blend: AUG-CC-PVTZ-RI
    Molecular point group: c1

    Geometry (in Angstrom), charge = 0, multiplicity = 1:

       Center              X                  Y                   Z               Mass
    ------------   -----------------  -----------------  -----------------  -----------------
         O            3.379491820676    -0.505643638802    -0.143283663667    15.994914619570
         O            1.870915820676     0.271203361198     1.356724336333    15.994914619570
         C           -0.301429179324    -0.309476638802    -0.438304663667    12.000000000000
         C           -0.911574179324     0.940156361198    -0.214064663667    12.000000000000
         C            1.134478820676    -0.408385638802    -0.874938663667    12.000000000000
         C           -1.037831179324    -1.484872638802    -0.253302663667    12.000000000000
         C           -2.250841179324     0.966517361198     0.192197336333    12.000000000000
         C           -0.151522179324     2.227667361198    -0.399642663667    12.000000000000
         C           -2.370690179324    -1.442687638802     0.155603336333    12.000000000000
         C           -2.980048179324    -0.208593638802     0.379358336333    12.000000000000
         C            2.159588020676    -0.241537338802     0.066870836333    12.000000000000
         H            1.371714820676     0.311666361198    -1.668696663667     1.007825032230
         H            1.346326820676    -1.397212638802    -1.296479663667     1.007825032230
         H           -0.558423179324    -2.446453638802    -0.431612663667     1.007825032230
         H           -2.730252179324     1.928337361198     0.366538336333     1.007825032230
         H            0.687817820676     2.289037361198     0.298577336333     1.007825032230
         H            0.247001820676     2.320758361198    -1.416421663667     1.007825032230
         H           -0.805009179324     3.085849361198    -0.221803663667     1.007825032230
         H           -2.927751179324    -2.365974638802     0.295046336333     1.007825032230
         H           -4.019192179324    -0.158622638802     0.696048336333     1.007825032230
         H            3.953252820676    -0.308484638802     0.626145336333     1.007825032230

  Basis Set: AUG-CC-PVTZ
    Blend: AUG-CC-PVTZ
  Basis Set: (AUG-CC-PVTZ AUX)
    Blend: AUG-CC-PVTZ-JKFIT
	 Reference Energy          =    -496.4981299560190564 [Eh]
	 Singles Energy            =      -0.0000000000000000 [Eh]
	 Same-Spin Energy          =      -0.5279623362377270 [Eh]
	 Opposite-Spin Energy      =      -1.6359208390396134 [Eh]
	 Correlation Energy        =      -2.1638831752773404 [Eh]
	 Total Energy              =    -498.6620131312964190 [Eh]

	 ================> DF-SCS-MP2 Energies <==================
	-----------------------------------------------------------
	 SCS Same-Spin Scale       =       0.3333333333333333 [-]
	 SCS Opposite-Spin Scale   =       1.2000000000000000 [-]
	 SCS Same-Spin Energy      =      -0.1759874454125757 [Eh]
	 SCS Opposite-Spin Energy  =      -1.9631050068475360 [Eh]
	 SCS Correlation Energy    =      -2.1390924522601118 [Eh]
	 SCS Total Energy          =    -498.6372224082791718 [Eh]
	-----------------------------------------------------------

  Dipole Moment: [D]
     X:     1.0061      Y:    -0.5333      Z:    -2.1791     Total:     2.4587

*** Psi4 exiting successfully. Buy a developer a beer!
