                               Psi4 1.4a3.dev225

  ==> Input File <==

--------------------------------------------------------------------------
#psi4
#
memory 32 gb

molecule  {
0 1
  O        3.4036770    -0.5312700    -0.1399000
  O        1.8951010     0.2455770     1.3601080
  C       -0.2772440    -0.3351030    -0.4349210
  C       -0.8873890     0.9145300    -0.2106810
  C        1.1109303    -0.4307240    -0.8570400
  C       -1.0136460    -1.5104990    -0.2499190
  C       -2.2266560     0.9408910     0.1955810
  C       -0.1273370     2.2020410    -0.3962590
  C       -2.3465050    -1.4683140     0.1589870
  C       -2.9558630    -0.2342200     0.3827420
  C        2.1430500    -0.1948310     0.2522150
  H        1.3959000     0.2860400    -1.6653130
  H        1.3705120    -1.4228390    -1.2930960
  H       -0.5342380    -2.4720800    -0.4282290
  H       -2.7060670     1.9027110     0.3699220
  H        0.7120030     2.2634110     0.3019610
  H        0.2711870     2.2951320    -1.4130380
  H       -0.7808240     3.0602230    -0.2184200
  H       -2.9035660    -2.3916010     0.2984300
  H       -3.9950070    -0.1842490     0.6994320
  H        3.9774380    -0.3341110     0.6295290
units angstrom
no_reorient  #important for SAPT in psi4, default
symmetry c1  #important for SAPT in psi4, default
}

set PROPERTIES_ORIGIN ["COM"]
properties('MP2/aug-cc-pvtz', properties = ['dipole'])
--------------------------------------------------------------------------

    Molecular point group: c1
  Charge       = 0
  Multiplicity = 1
  Basis Set: AUG-CC-PVTZ
    Blend: AUG-CC-PVTZ
  Basis Set: (AUG-CC-PVTZ AUX)
    Blend: AUG-CC-PVTZ-JKFIT

    Orbital Energies [Eh]
    ---------------------

    Doubly Occupied:

       1A    -20.619985     2A    -20.553399     3A    -11.394738
       4A    -11.260310     5A    -11.244507     6A    -11.241005
       7A    -11.237079     8A    -11.235442     9A    -11.232675
      10A    -11.231402    11A    -11.222948    12A     -1.462382
      13A     -1.359788    14A     -1.163620    15A     -1.073372
      16A     -1.042165    17A     -0.978542    18A     -0.930380
      19A     -0.843413    20A     -0.812977    21A     -0.777385
      22A     -0.708366    23A     -0.688792    24A     -0.678039
      25A     -0.665503    26A     -0.630014    27A     -0.627544
      28A     -0.595152    29A     -0.580367    30A     -0.568596
      31A     -0.566329    32A     -0.542373    33A     -0.541436
      34A     -0.491614    35A     -0.490151    36A     -0.483876
      37A     -0.480634    38A     -0.454604    39A     -0.333397
      40A     -0.323557

  @DF-RHF Final Energy:  -496.56121191460261

   => Energetics <=

    Nuclear Repulsion Energy =            584.0506493240968666
    One-Electron Energy =               -1834.4880051087582160
    Two-Electron Energy =                 753.8761438700587405
    Total Energy =                       -496.5612119146026089
  Basis Set: (AUG-CC-PVTZ AUX)
    Blend: AUG-CC-PVTZ-RI
    Molecular point group: c1

    Geometry (in Angstrom), charge = 0, multiplicity = 1:

       Center              X                  Y                   Z               Mass
    ------------   -----------------  -----------------  -----------------  -----------------
         O            3.386565162343    -0.511690550328    -0.158994573055    15.994914619570
         O            1.877989162343     0.265156449672     1.341013426945    15.994914619570
         C           -0.294355837657    -0.315523550328    -0.454015573055    12.000000000000
         C           -0.904500837657     0.934109449672    -0.229775573055    12.000000000000
         C            1.093818462343    -0.411144550328    -0.876134573055    12.000000000000
         C           -1.030757837657    -1.490919550328    -0.269013573055    12.000000000000
         C           -2.243767837657     0.960470449672     0.176486426945    12.000000000000
         C           -0.144448837657     2.221620449672    -0.415353573055    12.000000000000
         C           -2.363616837657    -1.448734550328     0.139892426945    12.000000000000
         C           -2.972974837657    -0.214640550328     0.363647426945    12.000000000000
         C            2.125938162343    -0.175251550328     0.233120426945    12.000000000000
         H            1.378788162343     0.305619449672    -1.684407573055     1.007825032230
         H            1.353400162343    -1.403259550328    -1.312190573055     1.007825032230
         H           -0.551349837657    -2.452500550328    -0.447323573055     1.007825032230
         H           -2.723178837657     1.922290449672     0.350827426945     1.007825032230
         H            0.694891162343     2.282990449672     0.282866426945     1.007825032230
         H            0.254075162343     2.314711449672    -1.432132573055     1.007825032230
         H           -0.797935837657     3.079802449672    -0.237514573055     1.007825032230
         H           -2.920677837657    -2.372021550328     0.279335426945     1.007825032230
         H           -4.012118837657    -0.164669550328     0.680337426945     1.007825032230
         H            3.960326162343    -0.314531550328     0.610434426945     1.007825032230

  Basis Set: AUG-CC-PVTZ
    Blend: AUG-CC-PVTZ
  Basis Set: (AUG-CC-PVTZ AUX)
    Blend: AUG-CC-PVTZ-JKFIT
	 Reference Energy          =    -496.5612119146026089 [Eh]
	 Singles Energy            =      -0.0000000000000000 [Eh]
	 Same-Spin Energy          =      -0.5241210438562496 [Eh]
	 Opposite-Spin Energy      =      -1.6291316878476023 [Eh]
	 Correlation Energy        =      -2.1532527317038519 [Eh]
	 Total Energy              =    -498.7144646463064532 [Eh]

	 ================> DF-SCS-MP2 Energies <==================
	-----------------------------------------------------------
	 SCS Same-Spin Scale       =       0.3333333333333333 [-]
	 SCS Opposite-Spin Scale   =       1.2000000000000000 [-]
	 SCS Same-Spin Energy      =      -0.1747070146187499 [Eh]
	 SCS Opposite-Spin Energy  =      -1.9549580254171226 [Eh]
	 SCS Correlation Energy    =      -2.1296650400358725 [Eh]
	 SCS Total Energy          =    -498.6908769546384974 [Eh]
	-----------------------------------------------------------

  Dipole Moment: [D]
     X:     0.5187      Y:    -0.1156      Z:    -1.2001     Total:     1.3125

*** Psi4 exiting successfully. Buy a developer a beer!
