                               Psi4 1.4a3.dev225

  ==> Input File <==

--------------------------------------------------------------------------
#psi4
#
memory 32 gb

molecule  {
0 1
  O        3.4036770    -0.5312700    -0.1399000
  O        1.8951010     0.2455770     1.3601080
  C       -0.2772440    -0.3351030    -0.4349210
  C       -0.8873890     0.9145300    -0.2106810
  C        1.1586640    -0.4340120    -0.8715550
  C       -1.0136460    -1.5104990    -0.2499190
  C       -2.2266560     0.9408910     0.1955810
  C       -0.1273370     2.2020410    -0.3962590
  C       -2.3465050    -1.4683140     0.1589870
  C       -2.9558630    -0.2342200     0.3827420
  C        2.1430500    -0.1948310     0.2522150
  H        1.3959000     0.2860400    -1.6653130
  H        1.3705120    -1.4228390    -1.2930960
  H       -0.5342380    -2.4720800    -0.4282290
  H       -2.7060670     1.9027110     0.3699220
  H        0.7120030     2.2634110     0.3019610
  H        0.2711870     2.2951320    -1.4130380
  H       -0.7808240     3.0602230    -0.2184200
  H       -2.8933193    -2.3746179     0.2958651
  H       -3.9950070    -0.1842490     0.6994320
  H        3.9774380    -0.3341110     0.6295290
units angstrom
no_reorient  #important for SAPT in psi4, default
symmetry c1  #important for SAPT in psi4, default
}

set PROPERTIES_ORIGIN ["COM"]
properties('MP2/aug-cc-pvtz', properties = ['dipole'])
--------------------------------------------------------------------------

    Molecular point group: c1
  Charge       = 0
  Multiplicity = 1
  Basis Set: AUG-CC-PVTZ
    Blend: AUG-CC-PVTZ
  Basis Set: (AUG-CC-PVTZ AUX)
    Blend: AUG-CC-PVTZ-JKFIT

    Orbital Energies [Eh]
    ---------------------

    Doubly Occupied:

       1A    -20.618837     2A    -20.554835     3A    -11.394618
       4A    -11.258563     5A    -11.244482     6A    -11.243322
       7A    -11.236460     8A    -11.234556     9A    -11.231010
      10A    -11.230136    11A    -11.222795    12A     -1.462843
      13A     -1.360279    14A     -1.160765    15A     -1.070753
      16A     -1.041847    17A     -0.981756    18A     -0.930925
      19A     -0.840718    20A     -0.812425    21A     -0.779007
      22A     -0.708920    23A     -0.689573    24A     -0.679423
      25A     -0.666768    26A     -0.627870    27A     -0.626480
      28A     -0.596334    29A     -0.578332    30A     -0.568434
      31A     -0.565839    32A     -0.548762    33A     -0.540512
      34A     -0.491388    35A     -0.486747    36A     -0.484647
      37A     -0.481383    38A     -0.457778    39A     -0.333387
      40A     -0.323349

  @DF-RHF Final Energy:  -496.56455503357796

   => Energetics <=

    Nuclear Repulsion Energy =            583.6373972672205355
    One-Electron Energy =               -1833.6701817730754556
    Two-Electron Energy =                 753.4682294722770166
    Total Energy =                       -496.5645550335780172
  Basis Set: (AUG-CC-PVTZ AUX)
    Blend: AUG-CC-PVTZ-RI
    Molecular point group: c1

    Geometry (in Angstrom), charge = 0, multiplicity = 1:

       Center              X                  Y                   Z               Mass
    ------------   -----------------  -----------------  -----------------  -----------------
         O            3.382679384085    -0.511541684515    -0.157816674524    15.994914619570
         O            1.874103384085     0.265305315485     1.342191325476    15.994914619570
         C           -0.298241615915    -0.315374684515    -0.452837674524    12.000000000000
         C           -0.908386615915     0.934258315485    -0.228597674524    12.000000000000
         C            1.137666384085    -0.414283684515    -0.889471674524    12.000000000000
         C           -1.034643615915    -1.490770684515    -0.267835674524    12.000000000000
         C           -2.247653615915     0.960619315485     0.177664325476    12.000000000000
         C           -0.148334615915     2.221769315485    -0.414175674524    12.000000000000
         C           -2.367502615915    -1.448585684515     0.141070325476    12.000000000000
         C           -2.976860615915    -0.214491684515     0.364825325476    12.000000000000
         C            2.122052384085    -0.175102684515     0.234298325476    12.000000000000
         H            1.374902384085     0.305768315485    -1.683229674524     1.007825032230
         H            1.349514384085    -1.403110684515    -1.311012674524     1.007825032230
         H           -0.555235615915    -2.452351684515    -0.446145674524     1.007825032230
         H           -2.727064615915     1.922439315485     0.352005325476     1.007825032230
         H            0.691005384085     2.283139315485     0.284044325476     1.007825032230
         H            0.250189384085     2.314860315485    -1.430954674524     1.007825032230
         H           -0.801821615915     3.079951315485    -0.236336674524     1.007825032230
         H           -2.914316915915    -2.354889584515     0.277948425476     1.007825032230
         H           -4.016004615915    -0.164520684515     0.681515325476     1.007825032230
         H            3.956440384085    -0.314382684515     0.611612325476     1.007825032230

  Basis Set: AUG-CC-PVTZ
    Blend: AUG-CC-PVTZ
  Basis Set: (AUG-CC-PVTZ AUX)
    Blend: AUG-CC-PVTZ-JKFIT
	 Reference Energy          =    -496.5645550335779603 [Eh]
	 Singles Energy            =      -0.0000000000000000 [Eh]
	 Same-Spin Energy          =      -0.5236118433808826 [Eh]
	 Opposite-Spin Energy      =      -1.6285179954194753 [Eh]
	 Correlation Energy        =      -2.1521298388003580 [Eh]
	 Total Energy              =    -498.7166848723783232 [Eh]

	 ================> DF-SCS-MP2 Energies <==================
	-----------------------------------------------------------
	 SCS Same-Spin Scale       =       0.3333333333333333 [-]
	 SCS Opposite-Spin Scale   =       1.2000000000000000 [-]
	 SCS Same-Spin Energy      =      -0.1745372811269609 [Eh]
	 SCS Opposite-Spin Energy  =      -1.9542215945033703 [Eh]
	 SCS Correlation Energy    =      -2.1287588756303313 [Eh]
	 SCS Total Energy          =    -498.6933139092083138 [Eh]
	-----------------------------------------------------------

  Dipole Moment: [D]
     X:     0.5390      Y:    -0.1218      Z:    -1.2106     Total:     1.3307

*** Psi4 exiting successfully. Buy a developer a beer!
