                               Psi4 1.4a3.dev225

  ==> Input File <==

--------------------------------------------------------------------------
#psi4
#
memory 32 gb

molecule  {
0 1
  O        3.4036770    -0.5312700    -0.1399000
  O        1.8951010     0.2455770     1.3601080
  C       -0.2772440    -0.3351030    -0.4349210
  C       -0.8873890     0.9145300    -0.2106810
  C        1.1586640    -0.4340120    -0.8715550
  C       -1.0154945    -1.3645984    -0.2449326
  C       -2.2266560     0.9408910     0.1955810
  C       -0.1273370     2.2020410    -0.3962590
  C       -2.3465050    -1.4683140     0.1589870
  C       -2.9558630    -0.2342200     0.3827420
  C        2.1430500    -0.1948310     0.2522150
  H        1.3959000     0.2860400    -1.6653130
  H        1.3705120    -1.4228390    -1.2930960
  H       -0.5342380    -2.4720800    -0.4282290
  H       -2.7060670     1.9027110     0.3699220
  H        0.7120030     2.2634110     0.3019610
  H        0.2711870     2.2951320    -1.4130380
  H       -0.7808240     3.0602230    -0.2184200
  H       -2.9035660    -2.3916010     0.2984300
  H       -3.9950070    -0.1842490     0.6994320
  H        3.9774380    -0.3341110     0.6295290
units angstrom
no_reorient  #important for SAPT in psi4, default
symmetry c1  #important for SAPT in psi4, default
}

set PROPERTIES_ORIGIN ["COM"]
properties('MP2/aug-cc-pvtz', properties = ['dipole'])
--------------------------------------------------------------------------

    Molecular point group: c1
  Charge       = 0
  Multiplicity = 1
  Basis Set: AUG-CC-PVTZ
    Blend: AUG-CC-PVTZ
  Basis Set: (AUG-CC-PVTZ AUX)
    Blend: AUG-CC-PVTZ-JKFIT

    Orbital Energies [Eh]
    ---------------------

    Doubly Occupied:

       1A    -20.619584     2A    -20.555821     3A    -11.395802
       4A    -11.260264     5A    -11.245776     6A    -11.235473
       7A    -11.235233     8A    -11.232045     9A    -11.230349
      10A    -11.228010    11A    -11.222986    12A     -1.463681
      13A     -1.361225    14A     -1.176456    15A     -1.074346
      16A     -1.041826    17A     -0.990302    18A     -0.935042
      19A     -0.838398    20A     -0.807697    21A     -0.786466
      22A     -0.710048    23A     -0.691960    24A     -0.681555
      25A     -0.664484    26A     -0.634506    27A     -0.611455
      28A     -0.598220    29A     -0.578775    30A     -0.571657
      31A     -0.565415    32A     -0.543480    33A     -0.541156
      34A     -0.500753    35A     -0.495392    36A     -0.483899
      37A     -0.460114    38A     -0.455823    39A     -0.347516
      40A     -0.321101

  @DF-RHF Final Energy:  -496.53795021502634

   => Energetics <=

    Nuclear Repulsion Energy =            586.2789160585080026
    One-Electron Energy =               -1838.8455494810591517
    Two-Electron Energy =                 756.0286832075248640
    Total Energy =                       -496.5379502150262852
  Basis Set: (AUG-CC-PVTZ AUX)
    Blend: AUG-CC-PVTZ-RI
    Molecular point group: c1

    Geometry (in Angstrom), charge = 0, multiplicity = 1:

       Center              X                  Y                   Z               Mass
    ------------   -----------------  -----------------  -----------------  -----------------
         O            3.382896011637    -0.523094382542    -0.158232630872    15.994914619570
         O            1.874320011637     0.253752617458     1.341775369128    15.994914619570
         C           -0.298024988363    -0.326927382542    -0.453253630872    12.000000000000
         C           -0.908169988363     0.922705617458    -0.229013630872    12.000000000000
         C            1.137883011637    -0.425836382542    -0.889887630872    12.000000000000
         C           -1.036275488363    -1.356422782542    -0.263265230872    12.000000000000
         C           -2.247436988363     0.949066617458     0.177248369128    12.000000000000
         C           -0.148117988363     2.210216617458    -0.414591630872    12.000000000000
         C           -2.367285988363    -1.460138382542     0.140654369128    12.000000000000
         C           -2.976643988363    -0.226044382542     0.364409369128    12.000000000000
         C            2.122269011637    -0.186655382542     0.233882369128    12.000000000000
         H            1.375119011637     0.294215617458    -1.683645630872     1.007825032230
         H            1.349731011637    -1.414663382542    -1.311428630872     1.007825032230
         H           -0.555018988363    -2.463904382542    -0.446561630872     1.007825032230
         H           -2.726847988363     1.910886617458     0.351589369128     1.007825032230
         H            0.691222011637     2.271586617458     0.283628369128     1.007825032230
         H            0.250406011637     2.303307617458    -1.431370630872     1.007825032230
         H           -0.801604988363     3.068398617458    -0.236752630872     1.007825032230
         H           -2.924346988363    -2.383425382542     0.280097369128     1.007825032230
         H           -4.015787988363    -0.176073382542     0.681099369128     1.007825032230
         H            3.956657011637    -0.325935382542     0.611196369128     1.007825032230

  Basis Set: AUG-CC-PVTZ
    Blend: AUG-CC-PVTZ
  Basis Set: (AUG-CC-PVTZ AUX)
    Blend: AUG-CC-PVTZ-JKFIT
	 Reference Energy          =    -496.5379502150263420 [Eh]
	 Singles Energy            =      -0.0000000000000000 [Eh]
	 Same-Spin Energy          =      -0.5238190636627386 [Eh]
	 Opposite-Spin Energy      =      -1.6293239004509859 [Eh]
	 Correlation Energy        =      -2.1531429641137243 [Eh]
	 Total Energy              =    -498.6910931791400685 [Eh]

	 ================> DF-SCS-MP2 Energies <==================
	-----------------------------------------------------------
	 SCS Same-Spin Scale       =       0.3333333333333333 [-]
	 SCS Opposite-Spin Scale   =       1.2000000000000000 [-]
	 SCS Same-Spin Energy      =      -0.1746063545542462 [Eh]
	 SCS Opposite-Spin Energy  =      -1.9551886805411829 [Eh]
	 SCS Correlation Energy    =      -2.1297950350954289 [Eh]
	 SCS Total Energy          =    -498.6677452501217545 [Eh]
	-----------------------------------------------------------

  Dipole Moment: [D]
     X:     0.4955      Y:    -0.0371      Z:    -1.1892     Total:     1.2888

*** Psi4 exiting successfully. Buy a developer a beer!
