                               Psi4 1.4a3.dev225

  ==> Input File <==

--------------------------------------------------------------------------
#psi4
#
memory 32 gb

molecule  {
0 1
  O        3.4036770    -0.5312700    -0.1399000
  O        1.8951010     0.2455770     1.3601080
  C       -0.2772440    -0.3351030    -0.4349210
  C       -0.8873890     0.9145300    -0.2106810
  C        1.1586640    -0.4340120    -0.8715550
  C       -1.0136460    -1.5104990    -0.2499190
  C       -2.2266560     0.9408910     0.1955810
  C       -0.1273370     2.2020410    -0.3962590
  C       -2.3465050    -1.4683140     0.1589870
  C       -2.9558630    -0.2342200     0.3827420
  C        2.1430500    -0.1948310     0.2522150
  H        1.3959000     0.2860400    -1.6653130
  H        1.3705120    -1.4228390    -1.2930960
  H       -0.5342380    -2.4720800    -0.4282290
  H       -2.7060670     1.9027110     0.3699220
  H        0.7120030     2.2634110     0.3019610
  H        0.2711870     2.2951320    -1.4130380
  H       -0.7927792     3.0759230    -0.2151665
  H       -2.9035660    -2.3916010     0.2984300
  H       -3.9950070    -0.1842490     0.6994320
  H        3.9774380    -0.3341110     0.6295290
units angstrom
no_reorient  #important for SAPT in psi4, default
symmetry c1  #important for SAPT in psi4, default
}

set PROPERTIES_ORIGIN ["COM"]
properties('MP2/aug-cc-pvtz', properties = ['dipole'])
--------------------------------------------------------------------------

    Molecular point group: c1
  Charge       = 0
  Multiplicity = 1
  Basis Set: AUG-CC-PVTZ
    Blend: AUG-CC-PVTZ
  Basis Set: (AUG-CC-PVTZ AUX)
    Blend: AUG-CC-PVTZ-JKFIT

    Orbital Energies [Eh]
    ---------------------

    Doubly Occupied:

       1A    -20.618954     2A    -20.554977     3A    -11.394761
       4A    -11.258760     5A    -11.244751     6A    -11.243581
       7A    -11.236754     8A    -11.234838     9A    -11.232488
      10A    -11.231151    11A    -11.225255    12A     -1.462970
      13A     -1.360412    14A     -1.160859    15A     -1.070759
      16A     -1.041224    17A     -0.981868    18A     -0.929253
      19A     -0.840877    20A     -0.811825    21A     -0.778100
      22A     -0.708940    23A     -0.689289    24A     -0.678566
      25A     -0.666573    26A     -0.627853    27A     -0.625641
      28A     -0.596506    29A     -0.577914    30A     -0.568533
      31A     -0.564929    32A     -0.548888    33A     -0.537211
      34A     -0.491521    35A     -0.486637    36A     -0.484127
      37A     -0.481471    38A     -0.457913    39A     -0.333554
      40A     -0.323538

  @DF-RHF Final Energy:  -496.56387217113598

   => Energetics <=

    Nuclear Repulsion Energy =            583.4360368178660110
    One-Electron Energy =               -1833.2717832872428971
    Two-Electron Energy =                 753.2718742982408457
    Total Energy =                       -496.5638721711359267
  Basis Set: (AUG-CC-PVTZ AUX)
    Blend: AUG-CC-PVTZ-RI
    Molecular point group: c1

    Geometry (in Angstrom), charge = 0, multiplicity = 1:

       Center              X                  Y                   Z               Mass
    ------------   -----------------  -----------------  -----------------  -----------------
         O            3.382828487283    -0.511533067491    -0.157855749650    15.994914619570
         O            1.874252487283     0.265313932509     1.342152250350    15.994914619570
         C           -0.298092512717    -0.315366067491    -0.452876749650    12.000000000000
         C           -0.908237512717     0.934266932509    -0.228636749650    12.000000000000
         C            1.137815487283    -0.414275067491    -0.889510749650    12.000000000000
         C           -1.034494512717    -1.490762067491    -0.267874749650    12.000000000000
         C           -2.247504512717     0.960627932509     0.177625250350    12.000000000000
         C           -0.148185512717     2.221777932509    -0.414214749650    12.000000000000
         C           -2.367353512717    -1.448577067491     0.141031250350    12.000000000000
         C           -2.976711512717    -0.214483067491     0.364786250350    12.000000000000
         C            2.122201487283    -0.175094067491     0.234259250350    12.000000000000
         H            1.375051487283     0.305776932509    -1.683268749650     1.007825032230
         H            1.349663487283    -1.403102067491    -1.311051749650     1.007825032230
         H           -0.555086512717    -2.452343067491    -0.446184749650     1.007825032230
         H           -2.726915512717     1.922447932509     0.351966250350     1.007825032230
         H            0.691154487283     2.283147932509     0.284005250350     1.007825032230
         H            0.250338487283     2.314868932509    -1.430993749650     1.007825032230
         H           -0.813627712717     3.095659932509    -0.233122249650     1.007825032230
         H           -2.924414512717    -2.371864067491     0.280474250350     1.007825032230
         H           -4.015855512717    -0.164512067491     0.681476250350     1.007825032230
         H            3.956589487283    -0.314374067491     0.611573250350     1.007825032230

  Basis Set: AUG-CC-PVTZ
    Blend: AUG-CC-PVTZ
  Basis Set: (AUG-CC-PVTZ AUX)
    Blend: AUG-CC-PVTZ-JKFIT
	 Reference Energy          =    -496.5638721711359835 [Eh]
	 Singles Energy            =      -0.0000000000000000 [Eh]
	 Same-Spin Energy          =      -0.5236563075136408 [Eh]
	 Opposite-Spin Energy      =      -1.6288154329859728 [Eh]
	 Correlation Energy        =      -2.1524717404996134 [Eh]
	 Total Energy              =    -498.7163439116355903 [Eh]

	 ================> DF-SCS-MP2 Energies <==================
	-----------------------------------------------------------
	 SCS Same-Spin Scale       =       0.3333333333333333 [-]
	 SCS Opposite-Spin Scale   =       1.2000000000000000 [-]
	 SCS Same-Spin Energy      =      -0.1745521025045469 [Eh]
	 SCS Opposite-Spin Energy  =      -1.9545785195831673 [Eh]
	 SCS Correlation Energy    =      -2.1291306220877142 [Eh]
	 SCS Total Energy          =    -498.6930027932236840 [Eh]
	-----------------------------------------------------------

  Dipole Moment: [D]
     X:     0.5478      Y:    -0.1275      Z:    -1.2118     Total:     1.3360

*** Psi4 exiting successfully. Buy a developer a beer!
