                               Psi4 1.4a3.dev225

  ==> Input File <==

--------------------------------------------------------------------------
#psi4
#
memory 32 gb

molecule  {
0 1
  O        3.4036770    -0.5312700    -0.1399000
  O        1.8951010     0.2455770     1.3601080
  C       -0.2772440    -0.3351030    -0.4349210
  C       -0.8873890     0.9145300    -0.2106810
  C        1.1586640    -0.4340120    -0.8715550
  C       -1.0136460    -1.5104990    -0.2499190
  C       -2.2266560     0.9408910     0.1955810
  C       -0.1273370     2.2020410    -0.3962590
  C       -2.3465050    -1.4683140     0.1589870
  C       -2.9558630    -0.2342200     0.3827420
  C        2.1532308    -0.2129142     0.2067249
  H        1.3959000     0.2860400    -1.6653130
  H        1.3705120    -1.4228390    -1.2930960
  H       -0.5342380    -2.4720800    -0.4282290
  H       -2.7060670     1.9027110     0.3699220
  H        0.7120030     2.2634110     0.3019610
  H        0.2711870     2.2951320    -1.4130380
  H       -0.7808240     3.0602230    -0.2184200
  H       -2.9035660    -2.3916010     0.2984300
  H       -3.9950070    -0.1842490     0.6994320
  H        3.9774380    -0.3341110     0.6295290
units angstrom
no_reorient  #important for SAPT in psi4, default
symmetry c1  #important for SAPT in psi4, default
}

set PROPERTIES_ORIGIN ["COM"]
properties('MP2/aug-cc-pvtz', properties = ['dipole'])
--------------------------------------------------------------------------

    Molecular point group: c1
  Charge       = 0
  Multiplicity = 1
  Basis Set: AUG-CC-PVTZ
    Blend: AUG-CC-PVTZ
  Basis Set: (AUG-CC-PVTZ AUX)
    Blend: AUG-CC-PVTZ-JKFIT

    Orbital Energies [Eh]
    ---------------------

    Doubly Occupied:

       1A    -20.626935     2A    -20.545440     3A    -11.398634
       4A    -11.260315     5A    -11.245593     6A    -11.243880
       7A    -11.237235     8A    -11.234984     9A    -11.232442
      10A    -11.230969    11A    -11.221953    12A     -1.467578
      13A     -1.333744    14A     -1.161339    15A     -1.075340
      16A     -1.042022    17A     -0.987060    18A     -0.930902
      19A     -0.848582    20A     -0.813592    21A     -0.782094
      22A     -0.706855    23A     -0.690255    24A     -0.678637
      25A     -0.669124    26A     -0.629550    27A     -0.626919
      28A     -0.587419    29A     -0.578841    30A     -0.566775
      31A     -0.562967    32A     -0.552434    33A     -0.540140
      34A     -0.489066    35A     -0.487221    36A     -0.484429
      37A     -0.465923    38A     -0.453355    39A     -0.333917
      40A     -0.323459

  @DF-RHF Final Energy:  -496.55682201310970

   => Energetics <=

    Nuclear Repulsion Energy =            583.3238701908658186
    One-Electron Energy =               -1833.0655406659991513
    Two-Electron Energy =                 753.1848484620236377
    Total Energy =                       -496.5568220131096950
  Basis Set: (AUG-CC-PVTZ AUX)
    Blend: AUG-CC-PVTZ-RI
    Molecular point group: c1

    Geometry (in Angstrom), charge = 0, multiplicity = 1:

       Center              X                  Y                   Z               Mass
    ------------   -----------------  -----------------  -----------------  -----------------
         O            3.381934104212    -0.509981629945    -0.154196342797    15.994914619570
         O            1.873358104212     0.266865370055     1.345811657203    15.994914619570
         C           -0.298986895788    -0.313814629945    -0.449217342797    12.000000000000
         C           -0.909131895788     0.935818370055    -0.224977342797    12.000000000000
         C            1.136921104212    -0.412723629945    -0.885851342797    12.000000000000
         C           -1.035388895788    -1.489210629945    -0.264215342797    12.000000000000
         C           -2.248398895788     0.962179370055     0.181284657203    12.000000000000
         C           -0.149079895788     2.223329370055    -0.410555342797    12.000000000000
         C           -2.368247895788    -1.447025629945     0.144690657203    12.000000000000
         C           -2.977605895788    -0.212931629945     0.368445657203    12.000000000000
         C            2.131487904212    -0.191625829945     0.192428557203    12.000000000000
         H            1.374157104212     0.307328370055    -1.679609342797     1.007825032230
         H            1.348769104212    -1.401550629945    -1.307392342797     1.007825032230
         H           -0.555980895788    -2.450791629945    -0.442525342797     1.007825032230
         H           -2.727809895788     1.923999370055     0.355625657203     1.007825032230
         H            0.690260104212     2.284699370055     0.287664657203     1.007825032230
         H            0.249444104212     2.316420370055    -1.427334342797     1.007825032230
         H           -0.802566895788     3.081511370055    -0.232716342797     1.007825032230
         H           -2.925308895788    -2.370312629945     0.284133657203     1.007825032230
         H           -4.016749895788    -0.162960629945     0.685135657203     1.007825032230
         H            3.955695104212    -0.312822629945     0.615232657203     1.007825032230

  Basis Set: AUG-CC-PVTZ
    Blend: AUG-CC-PVTZ
  Basis Set: (AUG-CC-PVTZ AUX)
    Blend: AUG-CC-PVTZ-JKFIT
	 Reference Energy          =    -496.5568220131096950 [Eh]
	 Singles Energy            =      -0.0000000000000000 [Eh]
	 Same-Spin Energy          =      -0.5246455317724668 [Eh]
	 Opposite-Spin Energy      =      -1.6303717798373238 [Eh]
	 Correlation Energy        =      -2.1550173116097904 [Eh]
	 Total Energy              =    -498.7118393247195058 [Eh]

	 ================> DF-SCS-MP2 Energies <==================
	-----------------------------------------------------------
	 SCS Same-Spin Scale       =       0.3333333333333333 [-]
	 SCS Opposite-Spin Scale   =       1.2000000000000000 [-]
	 SCS Same-Spin Energy      =      -0.1748818439241556 [Eh]
	 SCS Opposite-Spin Energy  =      -1.9564461358047884 [Eh]
	 SCS Correlation Energy    =      -2.1313279797289439 [Eh]
	 SCS Total Energy          =    -498.6881499928386461 [Eh]
	-----------------------------------------------------------

  Dipole Moment: [D]
     X:     0.6706      Y:    -0.2266      Z:    -1.4651     Total:     1.6271

*** Psi4 exiting successfully. Buy a developer a beer!
