                               Psi4 1.4a3.dev225

  ==> Input File <==

--------------------------------------------------------------------------
#psi4
#
memory 32 gb

molecule  {
0 1
  O        3.4036770    -0.5312700    -0.1399000
  O        1.8951010     0.2455770     1.3601080
  C       -0.2772440    -0.3351030    -0.4349210
  C       -0.9303544     0.9426149    -0.1992521
  C        1.1586640    -0.4340120    -0.8715550
  C       -1.0136460    -1.5104990    -0.2499190
  C       -2.2266560     0.9408910     0.1955810
  C       -0.1273370     2.2020410    -0.3962590
  C       -2.3465050    -1.4683140     0.1589870
  C       -2.9558630    -0.2342200     0.3827420
  C        2.1430500    -0.1948310     0.2522150
  H        1.3959000     0.2860400    -1.6653130
  H        1.3705120    -1.4228390    -1.2930960
  H       -0.5342380    -2.4720800    -0.4282290
  H       -2.7060670     1.9027110     0.3699220
  H        0.7120030     2.2634110     0.3019610
  H        0.2711870     2.2951320    -1.4130380
  H       -0.7808240     3.0602230    -0.2184200
  H       -2.9035660    -2.3916010     0.2984300
  H       -3.9950070    -0.1842490     0.6994320
  H        3.9774380    -0.3341110     0.6295290
units angstrom
no_reorient  #important for SAPT in psi4, default
symmetry c1  #important for SAPT in psi4, default
}

set PROPERTIES_ORIGIN ["COM"]
properties('MP2/aug-cc-pvtz', properties = ['dipole'])
--------------------------------------------------------------------------

    Molecular point group: c1
  Charge       = 0
  Multiplicity = 1
  Basis Set: AUG-CC-PVTZ
    Blend: AUG-CC-PVTZ
  Basis Set: (AUG-CC-PVTZ AUX)
    Blend: AUG-CC-PVTZ-JKFIT

    Orbital Energies [Eh]
    ---------------------

    Doubly Occupied:

       1A    -20.619088     2A    -20.555004     3A    -11.394901
       4A    -11.259642     5A    -11.248601     6A    -11.243283
       7A    -11.236223     8A    -11.234913     9A    -11.232430
      10A    -11.226048    11A    -11.222801    12A     -1.463068
      13A     -1.360462    14A     -1.159928    15A     -1.070311
      16A     -1.045099    17A     -0.981227    18A     -0.930511
      19A     -0.842847    20A     -0.805286    21A     -0.781828
      22A     -0.709007    23A     -0.689547    24A     -0.678886
      25A     -0.666212    26A     -0.628064    27A     -0.625145
      28A     -0.596121    29A     -0.580306    30A     -0.569438
      31A     -0.562968    32A     -0.550592    33A     -0.539100
      34A     -0.493742    35A     -0.490536    36A     -0.482126
      37A     -0.475297    38A     -0.458083    39A     -0.338376
      40A     -0.319661

  @DF-RHF Final Energy:  -496.56120392524349

   => Energetics <=

    Nuclear Repulsion Energy =            583.1678831413986472
    One-Electron Energy =               -1832.7247541063863991
    Two-Electron Energy =                 752.9956670397443759
    Total Energy =                       -496.5612039252434897
  Basis Set: (AUG-CC-PVTZ AUX)
    Blend: AUG-CC-PVTZ-RI
    Molecular point group: c1

    Geometry (in Angstrom), charge = 0, multiplicity = 1:

       Center              X                  Y                   Z               Mass
    ------------   -----------------  -----------------  -----------------  -----------------
         O            3.386183871397    -0.513673402384    -0.158747797057    15.994914619570
         O            1.877607871397     0.263173597616     1.341260202943    15.994914619570
         C           -0.294737128603    -0.317506402384    -0.453768797057    12.000000000000
         C           -0.947847528603     0.960211497616    -0.218099897057    12.000000000000
         C            1.141170871397    -0.416415402384    -0.890402797057    12.000000000000
         C           -1.031139128603    -1.492902402384    -0.268766797057    12.000000000000
         C           -2.244149128603     0.958487597616     0.176733202943    12.000000000000
         C           -0.144830128603     2.219637597616    -0.415106797057    12.000000000000
         C           -2.363998128603    -1.450717402384     0.140139202943    12.000000000000
         C           -2.973356128603    -0.216623402384     0.363894202943    12.000000000000
         C            2.125556871397    -0.177234402384     0.233367202943    12.000000000000
         H            1.378406871397     0.303636597616    -1.684160797057     1.007825032230
         H            1.353018871397    -1.405242402384    -1.311943797057     1.007825032230
         H           -0.551731128603    -2.454483402384    -0.447076797057     1.007825032230
         H           -2.723560128603     1.920307597616     0.351074202943     1.007825032230
         H            0.694509871397     2.281007597616     0.283113202943     1.007825032230
         H            0.253693871397     2.312728597616    -1.431885797057     1.007825032230
         H           -0.798317128603     3.077819597616    -0.237267797057     1.007825032230
         H           -2.921059128603    -2.374004402384     0.279582202943     1.007825032230
         H           -4.012500128603    -0.166652402384     0.680584202943     1.007825032230
         H            3.959944871397    -0.316514402384     0.610681202943     1.007825032230

  Basis Set: AUG-CC-PVTZ
    Blend: AUG-CC-PVTZ
  Basis Set: (AUG-CC-PVTZ AUX)
    Blend: AUG-CC-PVTZ-JKFIT
	 Reference Energy          =    -496.5612039252434897 [Eh]
	 Singles Energy            =      -0.0000000000000000 [Eh]
	 Same-Spin Energy          =      -0.5234627390847240 [Eh]
	 Opposite-Spin Energy      =      -1.6287241873425471 [Eh]
	 Correlation Energy        =      -2.1521869264272713 [Eh]
	 Total Energy              =    -498.7133908516707379 [Eh]

	 ================> DF-SCS-MP2 Energies <==================
	-----------------------------------------------------------
	 SCS Same-Spin Scale       =       0.3333333333333333 [-]
	 SCS Opposite-Spin Scale   =       1.2000000000000000 [-]
	 SCS Same-Spin Energy      =      -0.1744875796949080 [Eh]
	 SCS Opposite-Spin Energy  =      -1.9544690248110563 [Eh]
	 SCS Correlation Energy    =      -2.1289566045059645 [Eh]
	 SCS Total Energy          =    -498.6901605297494484 [Eh]
	-----------------------------------------------------------

  Dipole Moment: [D]
     X:     0.5665      Y:    -0.1323      Z:    -1.2174     Total:     1.3492

*** Psi4 exiting successfully. Buy a developer a beer!
