                               Psi4 1.4a3.dev225

  ==> Input File <==

--------------------------------------------------------------------------
#psi4
#
memory 32 gb

molecule  {
0 1
  O        3.4036770    -0.5312700    -0.1399000
  O        1.8951010     0.2455770     1.3601080
  C       -0.2772440    -0.3351030    -0.4349210
  C       -0.8434976     0.8880138    -0.2223360
  C        1.1586640    -0.4340120    -0.8715550
  C       -1.0136460    -1.5104990    -0.2499190
  C       -2.2266560     0.9408910     0.1955810
  C       -0.1273370     2.2020410    -0.3962590
  C       -2.3465050    -1.4683140     0.1589870
  C       -2.9558630    -0.2342200     0.3827420
  C        2.1430500    -0.1948310     0.2522150
  H        1.3959000     0.2860400    -1.6653130
  H        1.3705120    -1.4228390    -1.2930960
  H       -0.5342380    -2.4720800    -0.4282290
  H       -2.7060670     1.9027110     0.3699220
  H        0.7120030     2.2634110     0.3019610
  H        0.2711870     2.2951320    -1.4130380
  H       -0.7808240     3.0602230    -0.2184200
  H       -2.9035660    -2.3916010     0.2984300
  H       -3.9950070    -0.1842490     0.6994320
  H        3.9774380    -0.3341110     0.6295290
units angstrom
no_reorient  #important for SAPT in psi4, default
symmetry c1  #important for SAPT in psi4, default
}

set PROPERTIES_ORIGIN ["COM"]
properties('MP2/aug-cc-pvtz', properties = ['dipole'])
--------------------------------------------------------------------------

    Molecular point group: c1
  Charge       = 0
  Multiplicity = 1
  Basis Set: AUG-CC-PVTZ
    Blend: AUG-CC-PVTZ
  Basis Set: (AUG-CC-PVTZ AUX)
    Blend: AUG-CC-PVTZ-JKFIT

    Orbital Energies [Eh]
    ---------------------

    Doubly Occupied:

       1A    -20.618639     2A    -20.554741     3A    -11.394403
       4A    -11.257523     5A    -11.243890     6A    -11.239127
       7A    -11.236923     8A    -11.236111     9A    -11.234293
      10A    -11.232543    11A    -11.223196    12A     -1.462680
      13A     -1.360168    14A     -1.162402    15A     -1.071522
      16A     -1.038221    17A     -0.982481    18A     -0.930799
      19A     -0.839231    20A     -0.818274    21A     -0.774052
      22A     -0.708693    23A     -0.688906    24A     -0.678376
      25A     -0.666969    26A     -0.627584    27A     -0.626360
      28A     -0.596743    29A     -0.576804    30A     -0.567899
      31A     -0.566227    32A     -0.547202    33A     -0.541870
      34A     -0.494368    35A     -0.490786    36A     -0.481688
      37A     -0.475597    38A     -0.457539    39A     -0.334605
      40A     -0.322660

  @DF-RHF Final Energy:  -496.56104821602952

   => Energetics <=

    Nuclear Repulsion Energy =            583.9200910994705964
    One-Electron Energy =               -1834.2380844016583978
    Two-Electron Energy =                 753.7569450861584528
    Total Energy =                       -496.5610482160294623
  Basis Set: (AUG-CC-PVTZ AUX)
    Blend: AUG-CC-PVTZ-RI
    Molecular point group: c1

    Geometry (in Angstrom), charge = 0, multiplicity = 1:

       Center              X                  Y                   Z               Mass
    ------------   -----------------  -----------------  -----------------  -----------------
         O            3.379238479658    -0.509307296001    -0.156901922833    15.994914619570
         O            1.870662479658     0.267539703999     1.343106077167    15.994914619570
         C           -0.301682520342    -0.313140296001    -0.451922922833    12.000000000000
         C           -0.867936120342     0.909976503999    -0.239337922833    12.000000000000
         C            1.134225479658    -0.412049296001    -0.888556922833    12.000000000000
         C           -1.038084520342    -1.488536296001    -0.266920922833    12.000000000000
         C           -2.251094520342     0.962853703999     0.178579077167    12.000000000000
         C           -0.151775520342     2.224003703999    -0.413260922833    12.000000000000
         C           -2.370943520342    -1.446351296001     0.141985077167    12.000000000000
         C           -2.980301520342    -0.212257296001     0.365740077167    12.000000000000
         C            2.118611479658    -0.172868296001     0.235213077167    12.000000000000
         H            1.371461479658     0.308002703999    -1.682314922833     1.007825032230
         H            1.346073479658    -1.400876296001    -1.310097922833     1.007825032230
         H           -0.558676520342    -2.450117296001    -0.445230922833     1.007825032230
         H           -2.730505520342     1.924673703999     0.352920077167     1.007825032230
         H            0.687564479658     2.285373703999     0.284959077167     1.007825032230
         H            0.246748479658     2.317094703999    -1.430039922833     1.007825032230
         H           -0.805262520342     3.082185703999    -0.235421922833     1.007825032230
         H           -2.928004520342    -2.369638296001     0.281428077167     1.007825032230
         H           -4.019445520342    -0.162286296001     0.682430077167     1.007825032230
         H            3.952999479658    -0.312148296001     0.612527077167     1.007825032230

  Basis Set: AUG-CC-PVTZ
    Blend: AUG-CC-PVTZ
  Basis Set: (AUG-CC-PVTZ AUX)
    Blend: AUG-CC-PVTZ-JKFIT
	 Reference Energy          =    -496.5610482160295192 [Eh]
	 Singles Energy            =      -0.0000000000000000 [Eh]
	 Same-Spin Energy          =      -0.5236488735597014 [Eh]
	 Opposite-Spin Energy      =      -1.6288358276016877 [Eh]
	 Correlation Energy        =      -2.1524847011613888 [Eh]
	 Total Energy              =    -498.7135329171908893 [Eh]

	 ================> DF-SCS-MP2 Energies <==================
	-----------------------------------------------------------
	 SCS Same-Spin Scale       =       0.3333333333333333 [-]
	 SCS Opposite-Spin Scale   =       1.2000000000000000 [-]
	 SCS Same-Spin Energy      =      -0.1745496245199004 [Eh]
	 SCS Opposite-Spin Energy  =      -1.9546029931220250 [Eh]
	 SCS Correlation Energy    =      -2.1291526176419255 [Eh]
	 SCS Total Energy          =    -498.6902008336714403 [Eh]
	-----------------------------------------------------------

  Dipole Moment: [D]
     X:     0.5208      Y:    -0.0962      Z:    -1.2058     Total:     1.3170

*** Psi4 exiting successfully. Buy a developer a beer!
