                               Psi4 1.4a3.dev225

  ==> Input File <==

--------------------------------------------------------------------------
#psi4
#
memory 32 gb

molecule  {
0 1
  O        3.4036770    -0.5312700    -0.1399000
  O        1.8951010     0.2455770     1.3601080
  C       -0.2772440    -0.3351030    -0.4349210
  C       -0.8873890     0.9145300    -0.2106810
  C        1.1586640    -0.4340120    -0.8715550
  C       -1.0136460    -1.5104990    -0.2499190
  C       -2.2266560     0.9408910     0.1955810
  C       -0.1273370     2.2020410    -0.3962590
  C       -2.3465050    -1.4683140     0.1589870
  C       -2.9558630    -0.2342200     0.3827420
  C        2.1430500    -0.1948310     0.2522150
  H        1.3959000     0.2860400    -1.6653130
  H        1.3705120    -1.4228390    -1.2930960
  H       -0.5342380    -2.4720800    -0.4282290
  H       -2.6620329     1.8143675     0.3539087
  H        0.7120030     2.2634110     0.3019610
  H        0.2711870     2.2951320    -1.4130380
  H       -0.7808240     3.0602230    -0.2184200
  H       -2.9035660    -2.3916010     0.2984300
  H       -3.9950070    -0.1842490     0.6994320
  H        3.9774380    -0.3341110     0.6295290
units angstrom
no_reorient  #important for SAPT in psi4, default
symmetry c1  #important for SAPT in psi4, default
}

set PROPERTIES_ORIGIN ["COM"]
properties('MP2/aug-cc-pvtz', properties = ['dipole'])
--------------------------------------------------------------------------

    Molecular point group: c1
  Charge       = 0
  Multiplicity = 1
  Basis Set: AUG-CC-PVTZ
    Blend: AUG-CC-PVTZ
  Basis Set: (AUG-CC-PVTZ AUX)
    Blend: AUG-CC-PVTZ-JKFIT

    Orbital Energies [Eh]
    ---------------------

    Doubly Occupied:

       1A    -20.618722     2A    -20.554717     3A    -11.394474
       4A    -11.258276     5A    -11.243803     6A    -11.242582
       7A    -11.236319     8A    -11.233910     9A    -11.231721
      10A    -11.223001    11A    -11.219079    12A     -1.462726
      13A     -1.360164    14A     -1.160879    15A     -1.070939
      16A     -1.042875    17A     -0.983350    18A     -0.931137
      19A     -0.842443    20A     -0.817629    21A     -0.778551
      22A     -0.709373    23A     -0.689568    24A     -0.680928
      25A     -0.667665    26A     -0.634827    27A     -0.627520
      28A     -0.596278    29A     -0.580156    30A     -0.568768
      31A     -0.564553    32A     -0.548698    33A     -0.543257
      34A     -0.491186    35A     -0.489610    36A     -0.483590
      37A     -0.481251    38A     -0.457633    39A     -0.333087
      40A     -0.322857

  @DF-RHF Final Energy:  -496.55872512066287

   => Energetics <=

    Nuclear Repulsion Energy =            584.0881585483755316
    One-Electron Energy =               -1834.5375685725273343
    Two-Electron Energy =                 753.8906849034889319
    Total Energy =                       -496.5587251206628707
  Basis Set: (AUG-CC-PVTZ AUX)
    Blend: AUG-CC-PVTZ-RI
    Molecular point group: c1

    Geometry (in Angstrom), charge = 0, multiplicity = 1:

       Center              X                  Y                   Z               Mass
    ------------   -----------------  -----------------  -----------------  -----------------
         O            3.382452475154    -0.510834333662    -0.157726357954    15.994914619570
         O            1.873876475154     0.266012666338     1.342281642046    15.994914619570
         C           -0.298468524846    -0.314667333662    -0.452747357954    12.000000000000
         C           -0.908613524846     0.934965666338    -0.228507357954    12.000000000000
         C            1.137439475154    -0.413576333662    -0.889381357954    12.000000000000
         C           -1.034870524846    -1.490063333662    -0.267745357954    12.000000000000
         C           -2.247880524846     0.961326666338     0.177754642046    12.000000000000
         C           -0.148561524846     2.222476666338    -0.414085357954    12.000000000000
         C           -2.367729524846    -1.447878333662     0.141160642046    12.000000000000
         C           -2.977087524846    -0.213784333662     0.364915642046    12.000000000000
         C            2.121825475154    -0.174395333662     0.234388642046    12.000000000000
         H            1.374675475154     0.306475666338    -1.683139357954     1.007825032230
         H            1.349287475154    -1.402403333662    -1.310922357954     1.007825032230
         H           -0.555462524846    -2.451644333662    -0.446055357954     1.007825032230
         H           -2.683257424846     1.834803166338     0.336082342046     1.007825032230
         H            0.690778475154     2.283846666338     0.284134642046     1.007825032230
         H            0.249962475154     2.315567666338    -1.430864357954     1.007825032230
         H           -0.802048524846     3.080658666338    -0.236246357954     1.007825032230
         H           -2.924790524846    -2.371165333662     0.280603642046     1.007825032230
         H           -4.016231524846    -0.163813333662     0.681605642046     1.007825032230
         H            3.956213475154    -0.313675333662     0.611702642046     1.007825032230

  Basis Set: AUG-CC-PVTZ
    Blend: AUG-CC-PVTZ
  Basis Set: (AUG-CC-PVTZ AUX)
    Blend: AUG-CC-PVTZ-JKFIT
	 Reference Energy          =    -496.5587251206628707 [Eh]
	 Singles Energy            =      -0.0000000000000000 [Eh]
	 Same-Spin Energy          =      -0.5234575786504966 [Eh]
	 Opposite-Spin Energy      =      -1.6281136451526170 [Eh]
	 Correlation Energy        =      -2.1515712238031135 [Eh]
	 Total Energy              =    -498.7102963444659736 [Eh]

	 ================> DF-SCS-MP2 Energies <==================
	-----------------------------------------------------------
	 SCS Same-Spin Scale       =       0.3333333333333333 [-]
	 SCS Opposite-Spin Scale   =       1.2000000000000000 [-]
	 SCS Same-Spin Energy      =      -0.1744858595501655 [Eh]
	 SCS Opposite-Spin Energy  =      -1.9537363741831404 [Eh]
	 SCS Correlation Energy    =      -2.1282222337333061 [Eh]
	 SCS Total Energy          =    -498.6869473543961817 [Eh]
	-----------------------------------------------------------

  Dipole Moment: [D]
     X:     0.5264      Y:    -0.0819      Z:    -1.2074     Total:     1.3197

*** Psi4 exiting successfully. Buy a developer a beer!
