                               Psi4 1.4a3.dev225

  ==> Input File <==

--------------------------------------------------------------------------
#psi4
#
memory 32 gb

molecule  {
0 1
  O        3.4036770    -0.5312700    -0.1399000
  O        1.8951010     0.2455770     1.3601080
  C       -0.2772440    -0.3351030    -0.4349210
  C       -0.8873890     0.9145300    -0.2106810
  C        1.1586640    -0.4340120    -0.8715550
  C       -1.0136460    -1.5104990    -0.2499190
  C       -2.2266560     0.9408910     0.1955810
  C       -0.1273370     2.2020410    -0.3962590
  C       -2.3465050    -1.4683140     0.1589870
  C       -2.9558630    -0.2342200     0.3827420
  C        2.1430500    -0.1948310     0.2522150
  H        1.3959000     0.2860400    -1.6653130
  H        1.3666448    -1.4047882    -1.2854009
  H       -0.5342380    -2.4720800    -0.4282290
  H       -2.7060670     1.9027110     0.3699220
  H        0.7120030     2.2634110     0.3019610
  H        0.2711870     2.2951320    -1.4130380
  H       -0.7808240     3.0602230    -0.2184200
  H       -2.9035660    -2.3916010     0.2984300
  H       -3.9950070    -0.1842490     0.6994320
  H        3.9774380    -0.3341110     0.6295290
units angstrom
no_reorient  #important for SAPT in psi4, default
symmetry c1  #important for SAPT in psi4, default
}

set PROPERTIES_ORIGIN ["COM"]
properties('MP2/aug-cc-pvtz', properties = ['dipole'])
--------------------------------------------------------------------------

    Molecular point group: c1
  Charge       = 0
  Multiplicity = 1
  Basis Set: AUG-CC-PVTZ
    Blend: AUG-CC-PVTZ
  Basis Set: (AUG-CC-PVTZ AUX)
    Blend: AUG-CC-PVTZ-JKFIT

    Orbital Energies [Eh]
    ---------------------

    Doubly Occupied:

       1A    -20.618953     2A    -20.554801     3A    -11.394556
       4A    -11.256388     5A    -11.244483     6A    -11.243311
       7A    -11.236673     8A    -11.234774     9A    -11.232414
      10A    -11.231078    11A    -11.222778    12A     -1.462911
      13A     -1.360296    14A     -1.160860    15A     -1.071420
      16A     -1.041733    17A     -0.982354    18A     -0.930315
      19A     -0.840822    20A     -0.812501    21A     -0.778503
      22A     -0.708988    23A     -0.689725    24A     -0.678718
      25A     -0.667647    26A     -0.627913    27A     -0.625971
      28A     -0.596365    29A     -0.577872    30A     -0.568805
      31A     -0.565158    32A     -0.550458    33A     -0.540520
      34A     -0.491417    35A     -0.486840    36A     -0.483941
      37A     -0.481471    38A     -0.457876    39A     -0.333497
      40A     -0.323380

  @DF-RHF Final Energy:  -496.56454969120222

   => Energetics <=

    Nuclear Repulsion Energy =            583.6386137032765191
    One-Electron Energy =               -1833.6693553791144495
    Two-Electron Energy =                 753.4661919846356568
    Total Energy =                       -496.5645496912021599
  Basis Set: (AUG-CC-PVTZ AUX)
    Blend: AUG-CC-PVTZ-RI
    Molecular point group: c1

    Geometry (in Angstrom), charge = 0, multiplicity = 1:

       Center              X                  Y                   Z               Mass
    ------------   -----------------  -----------------  -----------------  -----------------
         O            3.382774170010    -0.511548854959    -0.157885578483    15.994914619570
         O            1.874198170010     0.265298145041     1.342122421517    15.994914619570
         C           -0.298146829990    -0.315381854959    -0.452906578483    12.000000000000
         C           -0.908291829990     0.934251145041    -0.228666578483    12.000000000000
         C            1.137761170010    -0.414290854959    -0.889540578483    12.000000000000
         C           -1.034548829990    -1.490777854959    -0.267904578483    12.000000000000
         C           -2.247558829990     0.960612145041     0.177595421517    12.000000000000
         C           -0.148239829990     2.221762145041    -0.414244578483    12.000000000000
         C           -2.367407829990    -1.448592854959     0.141001421517    12.000000000000
         C           -2.976765829990    -0.214498854959     0.364756421517    12.000000000000
         C            2.122147170010    -0.175109854959     0.234229421517    12.000000000000
         H            1.374997170010     0.305761145041    -1.683298578483     1.007825032230
         H            1.345741970010    -1.385067054959    -1.303386478483     1.007825032230
         H           -0.555140829990    -2.452358854959    -0.446214578483     1.007825032230
         H           -2.726969829990     1.922432145041     0.351936421517     1.007825032230
         H            0.691100170010     2.283132145041     0.283975421517     1.007825032230
         H            0.250284170010     2.314853145041    -1.431023578483     1.007825032230
         H           -0.801726829990     3.079944145041    -0.236405578483     1.007825032230
         H           -2.924468829990    -2.371879854959     0.280444421517     1.007825032230
         H           -4.015909829990    -0.164527854959     0.681446421517     1.007825032230
         H            3.956535170010    -0.314389854959     0.611543421517     1.007825032230

  Basis Set: AUG-CC-PVTZ
    Blend: AUG-CC-PVTZ
  Basis Set: (AUG-CC-PVTZ AUX)
    Blend: AUG-CC-PVTZ-JKFIT
	 Reference Energy          =    -496.5645496912022168 [Eh]
	 Singles Energy            =      -0.0000000000000000 [Eh]
	 Same-Spin Energy          =      -0.5236104604574908 [Eh]
	 Opposite-Spin Energy      =      -1.6284945571432885 [Eh]
	 Correlation Energy        =      -2.1521050176007792 [Eh]
	 Total Energy              =    -498.7166547088029915 [Eh]

	 ================> DF-SCS-MP2 Energies <==================
	-----------------------------------------------------------
	 SCS Same-Spin Scale       =       0.3333333333333333 [-]
	 SCS Opposite-Spin Scale   =       1.2000000000000000 [-]
	 SCS Same-Spin Energy      =      -0.1745368201524969 [Eh]
	 SCS Opposite-Spin Energy  =      -1.9541934685719462 [Eh]
	 SCS Correlation Energy    =      -2.1287302887244430 [Eh]
	 SCS Total Energy          =    -498.6932799799266718 [Eh]
	-----------------------------------------------------------

  Dipole Moment: [D]
     X:     0.5483      Y:    -0.1178      Z:    -1.2141     Total:     1.3374

*** Psi4 exiting successfully. Buy a developer a beer!
