                               Psi4 1.4a3.dev225

  ==> Input File <==

--------------------------------------------------------------------------
#psi4
#
memory 32 gb

molecule  {
0 1
  O        3.4036770    -0.5312700    -0.1399000
  O        1.8951010     0.2455770     1.3601080
  C       -0.2772440    -0.3351030    -0.4349210
  C       -0.8873890     0.9145300    -0.2106810
  C        1.1586640    -0.4340120    -0.8715550
  C       -1.0136460    -1.5104990    -0.2499190
  C       -2.2266560     0.9408910     0.1955810
  C       -0.1273370     2.2020410    -0.3962590
  C       -2.3465050    -1.4683140     0.1589870
  C       -2.9558630    -0.2342200     0.3827420
  C        2.1430500    -0.1948310     0.2522150
  H        1.3959000     0.2860400    -1.6653130
  H        1.3705120    -1.4228390    -1.2930960
  H       -0.5254347    -2.4897373    -0.4315033
  H       -2.7060670     1.9027110     0.3699220
  H        0.7120030     2.2634110     0.3019610
  H        0.2711870     2.2951320    -1.4130380
  H       -0.7808240     3.0602230    -0.2184200
  H       -2.9035660    -2.3916010     0.2984300
  H       -3.9950070    -0.1842490     0.6994320
  H        3.9774380    -0.3341110     0.6295290
units angstrom
no_reorient  #important for SAPT in psi4, default
symmetry c1  #important for SAPT in psi4, default
}

set PROPERTIES_ORIGIN ["COM"]
properties('MP2/aug-cc-pvtz', properties = ['dipole'])
--------------------------------------------------------------------------

    Molecular point group: c1
  Charge       = 0
  Multiplicity = 1
  Basis Set: AUG-CC-PVTZ
    Blend: AUG-CC-PVTZ
  Basis Set: (AUG-CC-PVTZ AUX)
    Blend: AUG-CC-PVTZ-JKFIT

    Orbital Energies [Eh]
    ---------------------

    Doubly Occupied:

       1A    -20.618861     2A    -20.554863     3A    -11.394654
       4A    -11.258616     5A    -11.244801     6A    -11.243613
       7A    -11.238989     8A    -11.234980     9A    -11.232659
      10A    -11.231225    11A    -11.222938    12A     -1.462869
      13A     -1.360308    14A     -1.160819    15A     -1.070738
      16A     -1.041397    17A     -0.981536    18A     -0.930456
      19A     -0.840494    20A     -0.811088    21A     -0.778212
      22A     -0.708823    23A     -0.689161    24A     -0.678084
      25A     -0.666534    26A     -0.627972    27A     -0.624037
      28A     -0.596384    29A     -0.577356    30A     -0.568182
      31A     -0.564857    32A     -0.548455    33A     -0.540674
      34A     -0.491536    35A     -0.486230    36A     -0.484013
      37A     -0.481450    38A     -0.457816    39A     -0.333628
      40A     -0.323577

  @DF-RHF Final Energy:  -496.56377116859841

   => Energetics <=

    Nuclear Repulsion Energy =            583.4299611652332942
    One-Electron Energy =               -1833.2616920972452590
    Two-Electron Energy =                 753.2679597634135007
    Total Energy =                       -496.5637711685983504
  Basis Set: (AUG-CC-PVTZ AUX)
    Blend: AUG-CC-PVTZ-RI
    Molecular point group: c1

    Geometry (in Angstrom), charge = 0, multiplicity = 1:

       Center              X                  Y                   Z               Mass
    ------------   -----------------  -----------------  -----------------  -----------------
         O            3.382689077650    -0.511309047019    -0.157811910346    15.994914619570
         O            1.874113077650     0.265537952981     1.342196089654    15.994914619570
         C           -0.298231922350    -0.315142047019    -0.452832910346    12.000000000000
         C           -0.908376922350     0.934490952981    -0.228592910346    12.000000000000
         C            1.137676077650    -0.414051047019    -0.889466910346    12.000000000000
         C           -1.034633922350    -1.490538047019    -0.267830910346    12.000000000000
         C           -2.247643922350     0.960851952981     0.177669089654    12.000000000000
         C           -0.148324922350     2.222001952981    -0.414170910346    12.000000000000
         C           -2.367492922350    -1.448353047019     0.141075089654    12.000000000000
         C           -2.976850922350    -0.214259047019     0.364830089654    12.000000000000
         C            2.122062077650    -0.174870047019     0.234303089654    12.000000000000
         H            1.374912077650     0.306000952981    -1.683224910346     1.007825032230
         H            1.349524077650    -1.402878047019    -1.311007910346     1.007825032230
         H           -0.546422622350    -2.469776347019    -0.449415210346     1.007825032230
         H           -2.727054922350     1.922671952981     0.352010089654     1.007825032230
         H            0.691015077650     2.283371952981     0.284049089654     1.007825032230
         H            0.250199077650     2.315092952981    -1.430949910346     1.007825032230
         H           -0.801811922350     3.080183952981    -0.236331910346     1.007825032230
         H           -2.924553922350    -2.371640047019     0.280518089654     1.007825032230
         H           -4.015994922350    -0.164288047019     0.681520089654     1.007825032230
         H            3.956450077650    -0.314150047019     0.611617089654     1.007825032230

  Basis Set: AUG-CC-PVTZ
    Blend: AUG-CC-PVTZ
  Basis Set: (AUG-CC-PVTZ AUX)
    Blend: AUG-CC-PVTZ-JKFIT
	 Reference Energy          =    -496.5637711685984073 [Eh]
	 Singles Energy            =      -0.0000000000000000 [Eh]
	 Same-Spin Energy          =      -0.5236923057329841 [Eh]
	 Opposite-Spin Energy      =      -1.6288210772410121 [Eh]
	 Correlation Energy        =      -2.1525133829739964 [Eh]
	 Total Energy              =    -498.7162845515724143 [Eh]

	 ================> DF-SCS-MP2 Energies <==================
	-----------------------------------------------------------
	 SCS Same-Spin Scale       =       0.3333333333333333 [-]
	 SCS Opposite-Spin Scale   =       1.2000000000000000 [-]
	 SCS Same-Spin Energy      =      -0.1745641019109947 [Eh]
	 SCS Opposite-Spin Energy  =      -1.9545852926892144 [Eh]
	 SCS Correlation Energy    =      -2.1291493946002089 [Eh]
	 SCS Total Energy          =    -498.6929205631986406 [Eh]
	-----------------------------------------------------------

  Dipole Moment: [D]
     X:     0.5394      Y:    -0.1067      Z:    -1.2098     Total:     1.3289

*** Psi4 exiting successfully. Buy a developer a beer!
