                               Psi4 1.4a3.dev225

  ==> Input File <==

--------------------------------------------------------------------------
#psi4
#
memory 32 gb

molecule  {
0 1
  O        3.4036770    -0.5312700    -0.1399000
  O        1.8951010     0.2455770     1.3601080
  C       -0.2772440    -0.3351030    -0.4349210
  C       -0.8873890     0.9145300    -0.2106810
  C        1.1586640    -0.4340120    -0.8715550
  C       -1.0136460    -1.5104990    -0.2499190
  C       -2.2266560     0.9408910     0.1955810
  C       -0.1273370     2.2020410    -0.3962590
  C       -2.3465050    -1.4683140     0.1589870
  C       -2.9558630    -0.2342200     0.3827420
  C        2.1430500    -0.1948310     0.2522150
  H        1.3959000     0.2860400    -1.6653130
  H        1.3705120    -1.4228390    -1.2930960
  H       -0.5342380    -2.4720800    -0.4282290
  H       -2.7060670     1.9027110     0.3699220
  H        0.7120030     2.2634110     0.3019610
  H        0.2711870     2.2951320    -1.4130380
  H       -0.7808240     3.0602230    -0.2184200
  H       -2.9547994    -2.4765166     0.3112547
  H       -3.9950070    -0.1842490     0.6994320
  H        3.9774380    -0.3341110     0.6295290
units angstrom
no_reorient  #important for SAPT in psi4, default
symmetry c1  #important for SAPT in psi4, default
}

set PROPERTIES_ORIGIN ["COM"]
properties('MP2/aug-cc-pvtz', properties = ['dipole'])
--------------------------------------------------------------------------

    Molecular point group: c1
  Charge       = 0
  Multiplicity = 1
  Basis Set: AUG-CC-PVTZ
    Blend: AUG-CC-PVTZ
  Basis Set: (AUG-CC-PVTZ AUX)
    Blend: AUG-CC-PVTZ-JKFIT

    Orbital Energies [Eh]
    ---------------------

    Doubly Occupied:

       1A    -20.619112     2A    -20.555145     3A    -11.394962
       4A    -11.259099     5A    -11.245264     6A    -11.244144
       7A    -11.243976     8A    -11.237598     9A    -11.235688
      10A    -11.231931    11A    -11.223194    12A     -1.463132
      13A     -1.360576    14A     -1.161208    15A     -1.070575
      16A     -1.040980    17A     -0.982503    18A     -0.928155
      19A     -0.841283    20A     -0.811389    21A     -0.774573
      22A     -0.708741    23A     -0.688324    24A     -0.674211
      25A     -0.667219    26A     -0.628329    27A     -0.622616
      28A     -0.596671    29A     -0.576753    30A     -0.568582
      31A     -0.557333    32A     -0.549274    33A     -0.541024
      34A     -0.491915    35A     -0.487517    36A     -0.481912
      37A     -0.479400    38A     -0.458107    39A     -0.334206
      40A     -0.324028

  @DF-RHF Final Energy:  -496.55705929342918

   => Energetics <=

    Nuclear Repulsion Energy =            583.0368499550526167
    One-Electron Energy =               -1832.4665170672012664
    Two-Electron Energy =                 752.8726078187196435
    Total Energy =                       -496.5570592934291199
  Basis Set: (AUG-CC-PVTZ AUX)
    Blend: AUG-CC-PVTZ-RI
    Molecular point group: c1

    Geometry (in Angstrom), charge = 0, multiplicity = 1:

       Center              X                  Y                   Z               Mass
    ------------   -----------------  -----------------  -----------------  -----------------
         O            3.383092271249    -0.510857354703    -0.157920027776    15.994914619570
         O            1.874516271249     0.265989645297     1.342087972224    15.994914619570
         C           -0.297828728751    -0.314690354703    -0.452941027776    12.000000000000
         C           -0.907973728751     0.934942645297    -0.228701027776    12.000000000000
         C            1.138079271249    -0.413599354703    -0.889575027776    12.000000000000
         C           -1.034230728751    -1.490086354703    -0.267939027776    12.000000000000
         C           -2.247240728751     0.961303645297     0.177560972224    12.000000000000
         C           -0.147921728751     2.222453645297    -0.414279027776    12.000000000000
         C           -2.367089728751    -1.447901354703     0.140966972224    12.000000000000
         C           -2.976447728751    -0.213807354703     0.364721972224    12.000000000000
         C            2.122465271249    -0.174418354703     0.234194972224    12.000000000000
         H            1.375315271249     0.306452645297    -1.683333027776     1.007825032230
         H            1.349927271249    -1.402426354703    -1.311116027776     1.007825032230
         H           -0.554822728751    -2.451667354703    -0.446249027776     1.007825032230
         H           -2.726651728751     1.923123645297     0.351901972224     1.007825032230
         H            0.691418271249     2.283823645297     0.283940972224     1.007825032230
         H            0.250602271249     2.315544645297    -1.431058027776     1.007825032230
         H           -0.801408728751     3.080635645297    -0.236440027776     1.007825032230
         H           -2.975384128751    -2.456103954703     0.293234672224     1.007825032230
         H           -4.015591728751    -0.163836354703     0.681411972224     1.007825032230
         H            3.956853271249    -0.313698354703     0.611508972224     1.007825032230

  Basis Set: AUG-CC-PVTZ
    Blend: AUG-CC-PVTZ
  Basis Set: (AUG-CC-PVTZ AUX)
    Blend: AUG-CC-PVTZ-JKFIT
	 Reference Energy          =    -496.5570592934291767 [Eh]
	 Singles Energy            =      -0.0000000000000000 [Eh]
	 Same-Spin Energy          =      -0.5238497534702820 [Eh]
	 Opposite-Spin Energy      =      -1.6296065586002042 [Eh]
	 Correlation Energy        =      -2.1534563120704862 [Eh]
	 Total Energy              =    -498.7105156054996655 [Eh]

	 ================> DF-SCS-MP2 Energies <==================
	-----------------------------------------------------------
	 SCS Same-Spin Scale       =       0.3333333333333333 [-]
	 SCS Opposite-Spin Scale   =       1.2000000000000000 [-]
	 SCS Same-Spin Energy      =      -0.1746165844900940 [Eh]
	 SCS Opposite-Spin Energy  =      -1.9555278703202450 [Eh]
	 SCS Correlation Energy    =      -2.1301444548103388 [Eh]
	 SCS Total Energy          =    -498.6872037482395399 [Eh]
	-----------------------------------------------------------

  Dipole Moment: [D]
     X:     0.5761      Y:    -0.0729      Z:    -1.2176     Total:     1.3490

*** Psi4 exiting successfully. Buy a developer a beer!
