                               Psi4 1.4a3.dev225

  ==> Input File <==

--------------------------------------------------------------------------
#psi4
#
memory 32 gb

molecule  {
0 1
  O        3.4036770    -0.5312700    -0.1399000
  O        1.8951010     0.2455770     1.3601080
  C       -0.2772440    -0.3351030    -0.4349210
  C       -0.8873890     0.9145300    -0.2106810
  C        1.1586640    -0.4340120    -0.8715550
  C       -1.0136460    -1.5104990    -0.2499190
  C       -2.2075206     0.9405144     0.1897763
  C       -0.1273370     2.2020410    -0.3962590
  C       -2.3465050    -1.4683140     0.1589870
  C       -2.9558630    -0.2342200     0.3827420
  C        2.1430500    -0.1948310     0.2522150
  H        1.3959000     0.2860400    -1.6653130
  H        1.3705120    -1.4228390    -1.2930960
  H       -0.5342380    -2.4720800    -0.4282290
  H       -2.7060670     1.9027110     0.3699220
  H        0.7120030     2.2634110     0.3019610
  H        0.2711870     2.2951320    -1.4130380
  H       -0.7808240     3.0602230    -0.2184200
  H       -2.9035660    -2.3916010     0.2984300
  H       -3.9950070    -0.1842490     0.6994320
  H        3.9774380    -0.3341110     0.6295290
units angstrom
no_reorient  #important for SAPT in psi4, default
symmetry c1  #important for SAPT in psi4, default
}

set PROPERTIES_ORIGIN ["COM"]
properties('MP2/aug-cc-pvtz', properties = ['dipole'])
--------------------------------------------------------------------------

    Molecular point group: c1
  Charge       = 0
  Multiplicity = 1
  Basis Set: AUG-CC-PVTZ
    Blend: AUG-CC-PVTZ
  Basis Set: (AUG-CC-PVTZ AUX)
    Blend: AUG-CC-PVTZ-JKFIT

    Orbital Energies [Eh]
    ---------------------

    Doubly Occupied:

       1A    -20.618908     2A    -20.554927     3A    -11.394723
       4A    -11.258685     5A    -11.244631     6A    -11.241405
       7A    -11.236503     8A    -11.235737     9A    -11.232542
      10A    -11.230830    11A    -11.222550    12A     -1.462923
      13A     -1.360370    14A     -1.161985    15A     -1.070089
      16A     -1.043377    17A     -0.980466    18A     -0.930940
      19A     -0.841749    20A     -0.810999    21A     -0.779012
      22A     -0.708850    23A     -0.689236    24A     -0.678371
      25A     -0.666931    26A     -0.628481    27A     -0.624540
      28A     -0.596472    29A     -0.577024    30A     -0.568606
      31A     -0.565418    32A     -0.549118    33A     -0.539442
      34A     -0.491810    35A     -0.488484    36A     -0.482322
      37A     -0.481218    38A     -0.457874    39A     -0.333277
      40A     -0.324682

  @DF-RHF Final Energy:  -496.56403541099405

   => Energetics <=

    Nuclear Repulsion Energy =            583.8223281600186283
    One-Electron Energy =               -1834.0417109162326597
    Two-Electron Energy =                 753.6553473452200933
    Total Energy =                       -496.5640354109940517
  Basis Set: (AUG-CC-PVTZ AUX)
    Blend: AUG-CC-PVTZ-RI
    Molecular point group: c1

    Geometry (in Angstrom), charge = 0, multiplicity = 1:

       Center              X                  Y                   Z               Mass
    ------------   -----------------  -----------------  -----------------  -----------------
         O            3.381218061198    -0.511397515326    -0.157369734510    15.994914619570
         O            1.872642061198     0.265449484674     1.342638265490    15.994914619570
         C           -0.299702938802    -0.315230515326    -0.452390734510    12.000000000000
         C           -0.909847938802     0.934402484674    -0.228150734510    12.000000000000
         C            1.136205061198    -0.414139515326    -0.889024734510    12.000000000000
         C           -1.036104938802    -1.490626515326    -0.267388734510    12.000000000000
         C           -2.229979538802     0.960386884674     0.172306565490    12.000000000000
         C           -0.149795938802     2.221913484674    -0.413728734510    12.000000000000
         C           -2.368963938802    -1.448441515326     0.141517265490    12.000000000000
         C           -2.978321938802    -0.214347515326     0.365272265490    12.000000000000
         C            2.120591061198    -0.174958515326     0.234745265490    12.000000000000
         H            1.373441061198     0.305912484674    -1.682782734510     1.007825032230
         H            1.348053061198    -1.402966515326    -1.310565734510     1.007825032230
         H           -0.556696938802    -2.452207515326    -0.445698734510     1.007825032230
         H           -2.728525938802     1.922583484674     0.352452265490     1.007825032230
         H            0.689544061198     2.283283484674     0.284491265490     1.007825032230
         H            0.248728061198     2.315004484674    -1.430507734510     1.007825032230
         H           -0.803282938802     3.080095484674    -0.235889734510     1.007825032230
         H           -2.926024938802    -2.371728515326     0.280960265490     1.007825032230
         H           -4.017465938802    -0.164376515326     0.681962265490     1.007825032230
         H            3.954979061198    -0.314238515326     0.612059265490     1.007825032230

  Basis Set: AUG-CC-PVTZ
    Blend: AUG-CC-PVTZ
  Basis Set: (AUG-CC-PVTZ AUX)
    Blend: AUG-CC-PVTZ-JKFIT
	 Reference Energy          =    -496.5640354109940517 [Eh]
	 Singles Energy            =      -0.0000000000000000 [Eh]
	 Same-Spin Energy          =      -0.5236232648527240 [Eh]
	 Opposite-Spin Energy      =      -1.6286717025338007 [Eh]
	 Correlation Energy        =      -2.1522949673865246 [Eh]
	 Total Energy              =    -498.7163303783805759 [Eh]

	 ================> DF-SCS-MP2 Energies <==================
	-----------------------------------------------------------
	 SCS Same-Spin Scale       =       0.3333333333333333 [-]
	 SCS Opposite-Spin Scale   =       1.2000000000000000 [-]
	 SCS Same-Spin Energy      =      -0.1745410882842413 [Eh]
	 SCS Opposite-Spin Energy  =      -1.9544060430405608 [Eh]
	 SCS Correlation Energy    =      -2.1289471313248023 [Eh]
	 SCS Total Energy          =    -498.6929825423188731 [Eh]
	-----------------------------------------------------------

  Dipole Moment: [D]
     X:     0.5398      Y:    -0.1278      Z:    -1.2112     Total:     1.3322

*** Psi4 exiting successfully. Buy a developer a beer!
