                               Psi4 1.4a3.dev225

  ==> Input File <==

--------------------------------------------------------------------------
#psi4
#
memory 32 gb

molecule  {
0 1
  O        3.4036770    -0.5312700    -0.1399000
  O        1.8951010     0.2455770     1.3601080
  C       -0.2772440    -0.3351030    -0.4349210
  C       -0.8873890     0.9145300    -0.2106810
  C        1.1586640    -0.4340120    -0.8715550
  C       -1.0136460    -1.5104990    -0.2499190
  C       -2.2266560     0.9408910     0.1955810
  C       -0.1273370     2.2020410    -0.3962590
  C       -2.3465050    -1.4683140     0.1589870
  C       -2.9036120    -0.1500180     0.3693311
  C        2.1430500    -0.1948310     0.2522150
  H        1.3959000     0.2860400    -1.6653130
  H        1.3705120    -1.4228390    -1.2930960
  H       -0.5342380    -2.4720800    -0.4282290
  H       -2.7060670     1.9027110     0.3699220
  H        0.7120030     2.2634110     0.3019610
  H        0.2711870     2.2951320    -1.4130380
  H       -0.7808240     3.0602230    -0.2184200
  H       -2.9035660    -2.3916010     0.2984300
  H       -3.9950070    -0.1842490     0.6994320
  H        3.9774380    -0.3341110     0.6295290
units angstrom
no_reorient  #important for SAPT in psi4, default
symmetry c1  #important for SAPT in psi4, default
}

set PROPERTIES_ORIGIN ["COM"]
properties('MP2/aug-cc-pvtz', properties = ['dipole'])
--------------------------------------------------------------------------

    Molecular point group: c1
  Charge       = 0
  Multiplicity = 1
  Basis Set: AUG-CC-PVTZ
    Blend: AUG-CC-PVTZ
  Basis Set: (AUG-CC-PVTZ AUX)
    Blend: AUG-CC-PVTZ-JKFIT

    Orbital Energies [Eh]
    ---------------------

    Doubly Occupied:

       1A    -20.618625     2A    -20.554592     3A    -11.394285
       4A    -11.258145     5A    -11.244764     6A    -11.241817
       7A    -11.237240     8A    -11.235872     9A    -11.232598
      10A    -11.223135    11A    -11.219576    12A     -1.462612
      13A     -1.360031    14A     -1.165647    15A     -1.074486
      16A     -1.040237    17A     -0.990088    18A     -0.928193
      19A     -0.836024    20A     -0.814187    21A     -0.777636
      22A     -0.708738    23A     -0.689157    24A     -0.677559
      25A     -0.667432    26A     -0.631160    27A     -0.621803
      28A     -0.596493    29A     -0.585043    30A     -0.568926
      31A     -0.557843    32A     -0.548635    33A     -0.538061
      34A     -0.495436    35A     -0.491832    36A     -0.482240
      37A     -0.470038    38A     -0.457755    39A     -0.347349
      40A     -0.315259

  @DF-RHF Final Energy:  -496.55065497646171

   => Energetics <=

    Nuclear Repulsion Energy =            584.7398887827941962
    One-Electron Energy =               -1835.8599854684082402
    Two-Electron Energy =                 754.5694417091523292
    Total Energy =                       -496.5506549764617148
  Basis Set: (AUG-CC-PVTZ AUX)
    Blend: AUG-CC-PVTZ-RI
    Molecular point group: c1

    Geometry (in Angstrom), charge = 0, multiplicity = 1:

       Center              X                  Y                   Z               Mass
    ------------   -----------------  -----------------  -----------------  -----------------
         O            3.378570015050    -0.518160733747    -0.156761514559    15.994914619570
         O            1.869994015050     0.258686266253     1.343246485441    15.994914619570
         C           -0.302350984950    -0.321993733747    -0.451782514559    12.000000000000
         C           -0.912495984950     0.927639266253    -0.227542514559    12.000000000000
         C            1.133557015050    -0.420902733747    -0.888416514559    12.000000000000
         C           -1.038752984950    -1.497389733747    -0.266780514559    12.000000000000
         C           -2.251762984950     0.954000266253     0.178719485441    12.000000000000
         C           -0.152443984950     2.215150266253    -0.413120514559    12.000000000000
         C           -2.371611984950    -1.455204733747     0.142125485441    12.000000000000
         C           -2.928718984950    -0.136908733747     0.352469585441    12.000000000000
         C            2.117943015050    -0.181721733747     0.235353485441    12.000000000000
         H            1.370793015050     0.299149266253    -1.682174514559     1.007825032230
         H            1.345405015050    -1.409729733747    -1.309957514559     1.007825032230
         H           -0.559344984950    -2.458970733747    -0.445090514559     1.007825032230
         H           -2.731173984950     1.915820266253     0.353060485441     1.007825032230
         H            0.686896015050     2.276520266253     0.285099485441     1.007825032230
         H            0.246080015050     2.308241266253    -1.429899514559     1.007825032230
         H           -0.805930984950     3.073332266253    -0.235281514559     1.007825032230
         H           -2.928672984950    -2.378491733747     0.281568485441     1.007825032230
         H           -4.020113984950    -0.171139733747     0.682570485441     1.007825032230
         H            3.952331015050    -0.321001733747     0.612667485441     1.007825032230

  Basis Set: AUG-CC-PVTZ
    Blend: AUG-CC-PVTZ
  Basis Set: (AUG-CC-PVTZ AUX)
    Blend: AUG-CC-PVTZ-JKFIT
	 Reference Energy          =    -496.5506549764617148 [Eh]
	 Singles Energy            =      -0.0000000000000000 [Eh]
	 Same-Spin Energy          =      -0.5236955391872988 [Eh]
	 Opposite-Spin Energy      =      -1.6290829489201486 [Eh]
	 Correlation Energy        =      -2.1527784881074474 [Eh]
	 Total Energy              =    -498.7034334645691729 [Eh]

	 ================> DF-SCS-MP2 Energies <==================
	-----------------------------------------------------------
	 SCS Same-Spin Scale       =       0.3333333333333333 [-]
	 SCS Opposite-Spin Scale   =       1.2000000000000000 [-]
	 SCS Same-Spin Energy      =      -0.1745651797290996 [Eh]
	 SCS Opposite-Spin Energy  =      -1.9548995387041783 [Eh]
	 SCS Correlation Energy    =      -2.1294647184332778 [Eh]
	 SCS Total Energy          =    -498.6801196948949837 [Eh]
	-----------------------------------------------------------

  Dipole Moment: [D]
     X:     0.5598      Y:    -0.1319      Z:    -1.2191     Total:     1.3480

*** Psi4 exiting successfully. Buy a developer a beer!
