                               Psi4 1.4a3.dev225

  ==> Input File <==

--------------------------------------------------------------------------
#psi4
#
memory 32 gb

molecule  {
0 1
  O        3.4036770    -0.5312700    -0.1399000
  O        1.8951010     0.2455770     1.3601080
  C       -0.2772440    -0.3351030    -0.4349210
  C       -0.8873890     0.9145300    -0.2106810
  C        1.1586640    -0.4340120    -0.8715550
  C       -1.0136460    -1.5104990    -0.2499190
  C       -2.2266560     0.9408910     0.1955810
  C       -0.1273370     2.2020410    -0.3962590
  C       -2.3465050    -1.4683140     0.1589870
  C       -2.9558630    -0.2342200     0.3827420
  C        2.1430500    -0.1948310     0.2522150
  H        1.3959000     0.2860400    -1.6653130
  H        1.3318397    -1.2423314    -1.2161449
  H       -0.5342380    -2.4720800    -0.4282290
  H       -2.7060670     1.9027110     0.3699220
  H        0.7120030     2.2634110     0.3019610
  H        0.2711870     2.2951320    -1.4130380
  H       -0.7808240     3.0602230    -0.2184200
  H       -2.9035660    -2.3916010     0.2984300
  H       -3.9950070    -0.1842490     0.6994320
  H        3.9774380    -0.3341110     0.6295290
units angstrom
no_reorient  #important for SAPT in psi4, default
symmetry c1  #important for SAPT in psi4, default
}

set PROPERTIES_ORIGIN ["COM"]
properties('MP2/aug-cc-pvtz', properties = ['dipole'])
--------------------------------------------------------------------------

    Molecular point group: c1
  Charge       = 0
  Multiplicity = 1
  Basis Set: AUG-CC-PVTZ
    Blend: AUG-CC-PVTZ
  Basis Set: (AUG-CC-PVTZ AUX)
    Blend: AUG-CC-PVTZ-JKFIT

    Orbital Energies [Eh]
    ---------------------

    Doubly Occupied:

       1A    -20.619724     2A    -20.554429     3A    -11.393946
       4A    -11.243807     5A    -11.242633     6A    -11.236737
       7A    -11.235558     8A    -11.234563     9A    -11.232391
      10A    -11.230767    11A    -11.222298    12A     -1.463314
      13A     -1.360268    14A     -1.162136    15A     -1.082275
      16A     -1.042744    17A     -0.988024    18A     -0.930261
      19A     -0.841685    20A     -0.817397    21A     -0.783204
      22A     -0.712079    23A     -0.698661    24A     -0.680863
      25A     -0.672116    26A     -0.628380    27A     -0.627366
      28A     -0.596542    29A     -0.580897    30A     -0.576317
      31A     -0.566013    32A     -0.556963    33A     -0.540050
      34A     -0.491282    35A     -0.486919    36A     -0.483672
      37A     -0.481651    38A     -0.458342    39A     -0.333477
      40A     -0.323013

  @DF-RHF Final Energy:  -496.53161400480042

   => Energetics <=

    Nuclear Repulsion Energy =            584.7183866737070730
    One-Electron Energy =               -1835.6744739455134550
    Two-Electron Energy =                 754.4244732670059648
    Total Energy =                       -496.5316140048004172
  Basis Set: (AUG-CC-PVTZ AUX)
    Blend: AUG-CC-PVTZ-RI
    Molecular point group: c1

    Geometry (in Angstrom), charge = 0, multiplicity = 1:

       Center              X                  Y                   Z               Mass
    ------------   -----------------  -----------------  -----------------  -----------------
         O            3.383007913596    -0.512639879981    -0.158350686923    15.994914619570
         O            1.874431913596     0.264207120019     1.341657313077    15.994914619570
         C           -0.297913086404    -0.316472879981    -0.453371686923    12.000000000000
         C           -0.908058086404     0.933160120019    -0.229131686923    12.000000000000
         C            1.137994913596    -0.415381879981    -0.890005686923    12.000000000000
         C           -1.034315086404    -1.491868879981    -0.268369686923    12.000000000000
         C           -2.247325086404     0.959521120019     0.177130313077    12.000000000000
         C           -0.148006086404     2.220671120019    -0.414709686923    12.000000000000
         C           -2.367174086404    -1.449683879981     0.140536313077    12.000000000000
         C           -2.976532086404    -0.215589879981     0.364291313077    12.000000000000
         C            2.122380913596    -0.176200879981     0.233764313077    12.000000000000
         H            1.375230913596     0.304670120019    -1.683763686923     1.007825032230
         H            1.311170613596    -1.223701279981    -1.234595586923     1.007825032230
         H           -0.554907086404    -2.453449879981    -0.446679686923     1.007825032230
         H           -2.726736086404     1.921341120019     0.351471313077     1.007825032230
         H            0.691333913596     2.282041120019     0.283510313077     1.007825032230
         H            0.250517913596     2.313762120019    -1.431488686923     1.007825032230
         H           -0.801493086404     3.078853120019    -0.236870686923     1.007825032230
         H           -2.924235086404    -2.372970879981     0.279979313077     1.007825032230
         H           -4.015676086404    -0.165618879981     0.680981313077     1.007825032230
         H            3.956768913596    -0.315480879981     0.611078313077     1.007825032230

  Basis Set: AUG-CC-PVTZ
    Blend: AUG-CC-PVTZ
  Basis Set: (AUG-CC-PVTZ AUX)
    Blend: AUG-CC-PVTZ-JKFIT
	 Reference Energy          =    -496.5316140048004172 [Eh]
	 Singles Energy            =      -0.0000000000000000 [Eh]
	 Same-Spin Energy          =      -0.5234324277407945 [Eh]
	 Opposite-Spin Energy      =      -1.6277322245441181 [Eh]
	 Correlation Energy        =      -2.1511646522849128 [Eh]
	 Total Energy              =    -498.6827786570853505 [Eh]

	 ================> DF-SCS-MP2 Energies <==================
	-----------------------------------------------------------
	 SCS Same-Spin Scale       =       0.3333333333333333 [-]
	 SCS Opposite-Spin Scale   =       1.2000000000000000 [-]
	 SCS Same-Spin Energy      =      -0.1744774759135981 [Eh]
	 SCS Opposite-Spin Energy  =      -1.9532786694529416 [Eh]
	 SCS Correlation Energy    =      -2.1277561453665399 [Eh]
	 SCS Total Energy          =    -498.6593701501669784 [Eh]
	-----------------------------------------------------------

  Dipole Moment: [D]
     X:     0.5802      Y:    -0.1266      Z:    -1.2250     Total:     1.3613

*** Psi4 exiting successfully. Buy a developer a beer!
