                               Psi4 1.4a3.dev225

  ==> Input File <==

--------------------------------------------------------------------------
#psi4
#
memory 32 gb

molecule  {
0 1
  O        3.4036770    -0.5312700    -0.1399000
  O        1.8951010     0.2455770     1.3601080
  C       -0.2772440    -0.3351030    -0.4349210
  C       -0.8873890     0.9145300    -0.2106810
  C        1.1586640    -0.4340120    -0.8715550
  C       -1.0136460    -1.5104990    -0.2499190
  C       -2.2266560     0.9408910     0.1955810
  C       -0.1273370     2.2020410    -0.3962590
  C       -2.3465050    -1.4683140     0.1589870
  C       -2.9558630    -0.2342200     0.3827420
  C        2.1430500    -0.1948310     0.2522150
  H        1.3959000     0.2860400    -1.6653130
  H        1.3705120    -1.4228390    -1.2930960
  H       -0.5342380    -2.4720800    -0.4282290
  H       -2.7060670     1.9027110     0.3699220
  H        0.7120030     2.2634110     0.3019610
  H        0.2711870     2.2951320    -1.4130380
  H       -0.9003758     3.2172226    -0.1858854
  H       -2.9035660    -2.3916010     0.2984300
  H       -3.9950070    -0.1842490     0.6994320
  H        3.9774380    -0.3341110     0.6295290
units angstrom
no_reorient  #important for SAPT in psi4, default
symmetry c1  #important for SAPT in psi4, default
}

set PROPERTIES_ORIGIN ["COM"]
properties('MP2/aug-cc-pvtz', properties = ['dipole'])
--------------------------------------------------------------------------

    Molecular point group: c1
  Charge       = 0
  Multiplicity = 1
  Basis Set: AUG-CC-PVTZ
    Blend: AUG-CC-PVTZ
  Basis Set: (AUG-CC-PVTZ AUX)
    Blend: AUG-CC-PVTZ-JKFIT

    Orbital Energies [Eh]
    ---------------------

    Doubly Occupied:

       1A    -20.619818     2A    -20.556057     3A    -11.395807
       4A    -11.260059     5A    -11.246591     6A    -11.245734
       7A    -11.245223     8A    -11.237648     9A    -11.235243
      10A    -11.233250    11A    -11.231563    12A     -1.463912
      13A     -1.361417    14A     -1.161713    15A     -1.071796
      16A     -1.039279    17A     -0.982383    18A     -0.922691
      19A     -0.841763    20A     -0.809859    21A     -0.778353
      22A     -0.709895    23A     -0.690365    24A     -0.679335
      25A     -0.665290    26A     -0.628283    27A     -0.624674
      28A     -0.597985    29A     -0.578667    30A     -0.570893
      31A     -0.566358    32A     -0.550173    33A     -0.509361
      34A     -0.492424    35A     -0.485773    36A     -0.484216
      37A     -0.478092    38A     -0.458821    39A     -0.334130
      40A     -0.324714

  @DF-RHF Final Energy:  -496.54394021264500

   => Energetics <=

    Nuclear Repulsion Energy =            582.6600997758098401
    One-Electron Energy =               -1831.6688627012235884
    Two-Electron Energy =                 752.4648227127687505
    Total Energy =                       -496.5439402126449977
  Basis Set: (AUG-CC-PVTZ AUX)
    Blend: AUG-CC-PVTZ-RI
    Molecular point group: c1

    Geometry (in Angstrom), charge = 0, multiplicity = 1:

       Center              X                  Y                   Z               Mass
    ------------   -----------------  -----------------  -----------------  -----------------
         O            3.383551082969    -0.512482005295    -0.158052395237    15.994914619570
         O            1.874975082969     0.264364994705     1.341955604763    15.994914619570
         C           -0.297369917031    -0.316315005295    -0.453073395237    12.000000000000
         C           -0.907514917031     0.933317994705    -0.228833395237    12.000000000000
         C            1.138538082969    -0.415224005295    -0.889707395237    12.000000000000
         C           -1.033771917031    -1.491711005295    -0.268071395237    12.000000000000
         C           -2.246781917031     0.959678994705     0.177428604763    12.000000000000
         C           -0.147462917031     2.220828994705    -0.414411395237    12.000000000000
         C           -2.366630917031    -1.449526005295     0.140834604763    12.000000000000
         C           -2.975988917031    -0.215432005295     0.364589604763    12.000000000000
         C            2.122924082969    -0.176043005295     0.234062604763    12.000000000000
         H            1.375774082969     0.304827994705    -1.683465395237     1.007825032230
         H            1.350386082969    -1.404051005295    -1.311248395237     1.007825032230
         H           -0.554363917031    -2.453292005295    -0.446381395237     1.007825032230
         H           -2.726192917031     1.921498994705     0.351769604763     1.007825032230
         H            0.691877082969     2.282198994705     0.283808604763     1.007825032230
         H            0.251061082969     2.313919994705    -1.431190395237     1.007825032230
         H           -0.920501717031     3.236010594705    -0.204037795237     1.007825032230
         H           -2.923691917031    -2.372813005295     0.280277604763     1.007825032230
         H           -4.015132917031    -0.165461005295     0.681279604763     1.007825032230
         H            3.957312082969    -0.315323005295     0.611376604763     1.007825032230

  Basis Set: AUG-CC-PVTZ
    Blend: AUG-CC-PVTZ
  Basis Set: (AUG-CC-PVTZ AUX)
    Blend: AUG-CC-PVTZ-JKFIT
	 Reference Energy          =    -496.5439402126449977 [Eh]
	 Singles Energy            =      -0.0000000000000000 [Eh]
	 Same-Spin Energy          =      -0.5237710251453815 [Eh]
	 Opposite-Spin Energy      =      -1.6305273873304889 [Eh]
	 Correlation Energy        =      -2.1542984124758702 [Eh]
	 Total Energy              =    -498.6982386251208936 [Eh]

	 ================> DF-SCS-MP2 Energies <==================
	-----------------------------------------------------------
	 SCS Same-Spin Scale       =       0.3333333333333333 [-]
	 SCS Opposite-Spin Scale   =       1.2000000000000000 [-]
	 SCS Same-Spin Energy      =      -0.1745903417151272 [Eh]
	 SCS Opposite-Spin Energy  =      -1.9566328647965865 [Eh]
	 SCS Correlation Energy    =      -2.1312232065117138 [Eh]
	 SCS Total Energy          =    -498.6751634191567177 [Eh]
	-----------------------------------------------------------

  Dipole Moment: [D]
     X:     0.5889      Y:    -0.2634      Z:    -1.2164     Total:     1.3769

*** Psi4 exiting successfully. Buy a developer a beer!
