                               Psi4 1.4a3.dev225

  ==> Input File <==

--------------------------------------------------------------------------
#psi4
#
memory 32 gb

molecule  {
0 1
  O        3.4036770    -0.5312700    -0.1399000
  O        1.8951010     0.2455770     1.3601080
  C       -0.2772440    -0.3351030    -0.4349210
  C       -0.8873890     0.9145300    -0.2106810
  C        1.1586640    -0.4340120    -0.8715550
  C       -1.0136460    -1.5104990    -0.2499190
  C       -2.2266560     0.9408910     0.1955810
  C       -0.1273370     2.2020410    -0.3962590
  C       -2.3465050    -1.4683140     0.1589870
  C       -2.9558630    -0.2342200     0.3827420
  C        2.1430500    -0.1948310     0.2522150
  H        1.3526733     0.1548396    -1.5206827
  H        1.3705120    -1.4228390    -1.2930960
  H       -0.5342380    -2.4720800    -0.4282290
  H       -2.7060670     1.9027110     0.3699220
  H        0.7120030     2.2634110     0.3019610
  H        0.2711870     2.2951320    -1.4130380
  H       -0.7808240     3.0602230    -0.2184200
  H       -2.9035660    -2.3916010     0.2984300
  H       -3.9950070    -0.1842490     0.6994320
  H        3.9774380    -0.3341110     0.6295290
units angstrom
no_reorient  #important for SAPT in psi4, default
symmetry c1  #important for SAPT in psi4, default
}

set PROPERTIES_ORIGIN ["COM"]
properties('MP2/aug-cc-pvtz', properties = ['dipole'])
--------------------------------------------------------------------------

    Molecular point group: c1
  Charge       = 0
  Multiplicity = 1
  Basis Set: AUG-CC-PVTZ
    Blend: AUG-CC-PVTZ
  Basis Set: (AUG-CC-PVTZ AUX)
    Blend: AUG-CC-PVTZ-JKFIT

    Orbital Energies [Eh]
    ---------------------

    Doubly Occupied:

       1A    -20.619613     2A    -20.554832     3A    -11.394071
       4A    -11.243998     5A    -11.242783     6A    -11.235875
       7A    -11.235578     8A    -11.234408     9A    -11.231967
      10A    -11.230884    11A    -11.223163    12A     -1.463348
      13A     -1.360469    14A     -1.162076    15A     -1.082168
      16A     -1.042086    17A     -0.988509    18A     -0.930951
      19A     -0.843166    20A     -0.812393    21A     -0.787727
      22A     -0.710018    23A     -0.698724    24A     -0.685711
      25A     -0.669778    26A     -0.628249    27A     -0.626067
      28A     -0.599407    29A     -0.581648    30A     -0.569275
      31A     -0.564904    32A     -0.559711    33A     -0.540465
      34A     -0.491676    35A     -0.486508    36A     -0.485424
      37A     -0.481579    38A     -0.458006    39A     -0.333301
      40A     -0.323309

  @DF-RHF Final Energy:  -496.53191323362398

   => Energetics <=

    Nuclear Repulsion Energy =            584.6760081619335097
    One-Electron Energy =               -1835.5881876188034312
    Two-Electron Energy =                 754.3802662232460534
    Total Energy =                       -496.5319132336239818
  Basis Set: (AUG-CC-PVTZ AUX)
    Blend: AUG-CC-PVTZ-RI
    Molecular point group: c1

    Geometry (in Angstrom), charge = 0, multiplicity = 1:

       Center              X                  Y                   Z               Mass
    ------------   -----------------  -----------------  -----------------  -----------------
         O            3.383038499969    -0.510546515915    -0.158805205913    15.994914619570
         O            1.874462499969     0.266300484085     1.341202794087    15.994914619570
         C           -0.297882500031    -0.314379515915    -0.453826205913    12.000000000000
         C           -0.908027500031     0.935253484085    -0.229586205913    12.000000000000
         C            1.138025499969    -0.413288515915    -0.890460205913    12.000000000000
         C           -1.034284500031    -1.489775515915    -0.268824205913    12.000000000000
         C           -2.247294500031     0.961614484085     0.176675794087    12.000000000000
         C           -0.147975500031     2.222764484085    -0.415164205913    12.000000000000
         C           -2.367143500031    -1.447590515915     0.140081794087    12.000000000000
         C           -2.976501500031    -0.213496515915     0.363836794087    12.000000000000
         C            2.122411499969    -0.174107515915     0.233309794087    12.000000000000
         H            1.332034799969     0.175563084085    -1.539587905913     1.007825032230
         H            1.349873499969    -1.402115515915    -1.312001205913     1.007825032230
         H           -0.554876500031    -2.451356515915    -0.447134205913     1.007825032230
         H           -2.726705500031     1.923434484085     0.351016794087     1.007825032230
         H            0.691364499969     2.284134484085     0.283055794087     1.007825032230
         H            0.250548499969     2.315855484085    -1.431943205913     1.007825032230
         H           -0.801462500031     3.080946484085    -0.237325205913     1.007825032230
         H           -2.924204500031    -2.370877515915     0.279524794087     1.007825032230
         H           -4.015645500031    -0.163525515915     0.680526794087     1.007825032230
         H            3.956799499969    -0.313387515915     0.610623794087     1.007825032230

  Basis Set: AUG-CC-PVTZ
    Blend: AUG-CC-PVTZ
  Basis Set: (AUG-CC-PVTZ AUX)
    Blend: AUG-CC-PVTZ-JKFIT
	 Reference Energy          =    -496.5319132336239818 [Eh]
	 Singles Energy            =      -0.0000000000000000 [Eh]
	 Same-Spin Energy          =      -0.5234053239184850 [Eh]
	 Opposite-Spin Energy      =      -1.6278572134453073 [Eh]
	 Correlation Energy        =      -2.1512625373637926 [Eh]
	 Total Energy              =    -498.6831757709877593 [Eh]

	 ================> DF-SCS-MP2 Energies <==================
	-----------------------------------------------------------
	 SCS Same-Spin Scale       =       0.3333333333333333 [-]
	 SCS Opposite-Spin Scale   =       1.2000000000000000 [-]
	 SCS Same-Spin Energy      =      -0.1744684413061617 [Eh]
	 SCS Opposite-Spin Energy  =      -1.9534286561343688 [Eh]
	 SCS Correlation Energy    =      -2.1278970974405302 [Eh]
	 SCS Total Energy          =    -498.6598103310645342 [Eh]
	-----------------------------------------------------------

  Dipole Moment: [D]
     X:     0.5885      Y:    -0.1178      Z:    -1.2155     Total:     1.3556

*** Psi4 exiting successfully. Buy a developer a beer!
