                               Psi4 1.4a3.dev225

  ==> Input File <==

--------------------------------------------------------------------------
#psi4
#
memory 32 gb

molecule  {
0 1
  O        3.3469983    -0.5665587    -0.2659093
  O        1.8951010     0.2455770     1.3601080
  C       -0.2772440    -0.3351030    -0.4349210
  C       -0.8873890     0.9145300    -0.2106810
  C        1.1586640    -0.4340120    -0.8715550
  C       -1.0136460    -1.5104990    -0.2499190
  C       -2.2266560     0.9408910     0.1955810
  C       -0.1273370     2.2020410    -0.3962590
  C       -2.3465050    -1.4683140     0.1589870
  C       -2.9558630    -0.2342200     0.3827420
  C        2.1430500    -0.1948310     0.2522150
  H        1.3959000     0.2860400    -1.6653130
  H        1.3705120    -1.4228390    -1.2930960
  H       -0.5342380    -2.4720800    -0.4282290
  H       -2.7060670     1.9027110     0.3699220
  H        0.7120030     2.2634110     0.3019610
  H        0.2711870     2.2951320    -1.4130380
  H       -0.7808240     3.0602230    -0.2184200
  H       -2.9035660    -2.3916010     0.2984300
  H       -3.9950070    -0.1842490     0.6994320
  H        3.9774380    -0.3341110     0.6295290
units angstrom
no_reorient  #important for SAPT in psi4, default
symmetry c1  #important for SAPT in psi4, default
}

set PROPERTIES_ORIGIN ["COM"]
properties('MP2/aug-cc-pvtz', properties = ['dipole'])
--------------------------------------------------------------------------

    Molecular point group: c1
  Charge       = 0
  Multiplicity = 1
  Basis Set: AUG-CC-PVTZ
    Blend: AUG-CC-PVTZ
  Basis Set: (AUG-CC-PVTZ AUX)
    Blend: AUG-CC-PVTZ-JKFIT

    Orbital Energies [Eh]
    ---------------------

    Doubly Occupied:

       1A    -20.635269     2A    -20.562302     3A    -11.396273
       4A    -11.252406     5A    -11.242219     6A    -11.240890
       7A    -11.234535     8A    -11.233082     9A    -11.230978
      10A    -11.229779    11A    -11.221998    12A     -1.453549
      13A     -1.361738    14A     -1.158741    15A     -1.066851
      16A     -1.039845    17A     -0.977371    18A     -0.928324
      19A     -0.828423    20A     -0.807018    21A     -0.768143
      22A     -0.705986    23A     -0.685480    24A     -0.675358
      25A     -0.666041    26A     -0.628120    27A     -0.623125
      28A     -0.596386    29A     -0.574149    30A     -0.568092
      31A     -0.559610    32A     -0.543728    33A     -0.539233
      34A     -0.493861    35A     -0.485330    36A     -0.483656
      37A     -0.481453    38A     -0.458292    39A     -0.331535
      40A     -0.321594

  @DF-RHF Final Energy:  -496.53618468584466

   => Energetics <=

    Nuclear Repulsion Energy =            583.5866059963590260
    One-Electron Energy =               -1833.6640598325582232
    Two-Electron Energy =                 753.5412691503546512
    Total Energy =                       -496.5361846858446597
  Basis Set: (AUG-CC-PVTZ AUX)
    Blend: AUG-CC-PVTZ-RI
    Molecular point group: c1

    Geometry (in Angstrom), charge = 0, multiplicity = 1:

       Center              X                  Y                   Z               Mass
    ------------   -----------------  -----------------  -----------------  -----------------
         O            3.332110563352    -0.542955105118    -0.270412575550    15.994914619570
         O            1.880213263352     0.269180594882     1.355604724450    15.994914619570
         C           -0.292131736648    -0.311499405118    -0.439424275550    12.000000000000
         C           -0.902276736648     0.938133594882    -0.215184275550    12.000000000000
         C            1.143776263352    -0.410408405118    -0.876058275550    12.000000000000
         C           -1.028533736648    -1.486895405118    -0.254422275550    12.000000000000
         C           -2.241543736648     0.964494594882     0.191077724450    12.000000000000
         C           -0.142224736648     2.225644594882    -0.400762275550    12.000000000000
         C           -2.361392736648    -1.444710405118     0.154483724450    12.000000000000
         C           -2.970750736648    -0.210616405118     0.378238724450    12.000000000000
         C            2.128162263352    -0.171227405118     0.247711724450    12.000000000000
         H            1.381012263352     0.309643594882    -1.669816275550     1.007825032230
         H            1.355624263352    -1.399235405118    -1.297599275550     1.007825032230
         H           -0.549125736648    -2.448476405118    -0.432732275550     1.007825032230
         H           -2.720954736648     1.926314594882     0.365418724450     1.007825032230
         H            0.697115263352     2.287014594882     0.297457724450     1.007825032230
         H            0.256299263352     2.318735594882    -1.417541275550     1.007825032230
         H           -0.795711736648     3.083826594882    -0.222923275550     1.007825032230
         H           -2.918453736648    -2.367997405118     0.293926724450     1.007825032230
         H           -4.009894736648    -0.160645405118     0.694928724450     1.007825032230
         H            3.962550263352    -0.310507405118     0.625025724450     1.007825032230

  Basis Set: AUG-CC-PVTZ
    Blend: AUG-CC-PVTZ
  Basis Set: (AUG-CC-PVTZ AUX)
    Blend: AUG-CC-PVTZ-JKFIT
	 Reference Energy          =    -496.5361846858446597 [Eh]
	 Singles Energy            =      -0.0000000000000000 [Eh]
	 Same-Spin Energy          =      -0.5266324488181512 [Eh]
	 Opposite-Spin Energy      =      -1.6353210904858633 [Eh]
	 Correlation Energy        =      -2.1619535393040143 [Eh]
	 Total Energy              =    -498.6981382251486821 [Eh]

	 ================> DF-SCS-MP2 Energies <==================
	-----------------------------------------------------------
	 SCS Same-Spin Scale       =       0.3333333333333333 [-]
	 SCS Opposite-Spin Scale   =       1.2000000000000000 [-]
	 SCS Same-Spin Energy      =      -0.1755441496060504 [Eh]
	 SCS Opposite-Spin Energy  =      -1.9623853085830358 [Eh]
	 SCS Correlation Energy    =      -2.1379294581890864 [Eh]
	 SCS Total Energy          =    -498.6741141440337515 [Eh]
	-----------------------------------------------------------

  Dipole Moment: [D]
     X:     0.7954      Y:    -0.0912      Z:    -1.0513     Total:     1.3214

*** Psi4 exiting successfully. Buy a developer a beer!
