                               Psi4 1.4a3.dev225

  ==> Input File <==

--------------------------------------------------------------------------
#psi4
#
memory 32 gb

molecule  {
0 1
  O        3.4036770    -0.5312700    -0.1399000
  O        1.8951010     0.2455770     1.3601080
  C       -0.2772440    -0.3351030    -0.4349210
  C       -0.8873890     0.9145300    -0.2106810
  C        1.1586640    -0.4340120    -0.8715550
  C       -1.0136460    -1.5104990    -0.2499190
  C       -2.2266560     0.9408910     0.1955810
  C       -0.1273370     2.2020410    -0.3962590
  C       -2.3465050    -1.4683140     0.1589870
  C       -2.9558630    -0.2342200     0.3827420
  C        2.1430500    -0.1948310     0.2522150
  H        1.3959000     0.2860400    -1.6653130
  H        1.3705120    -1.4228390    -1.2930960
  H       -0.5342380    -2.4720800    -0.4282290
  H       -2.7060670     1.9027110     0.3699220
  H        0.7120030     2.2634110     0.3019610
  H        0.2711870     2.2951320    -1.4130380
  H       -0.6612722     2.9032234    -0.2509546
  H       -2.9035660    -2.3916010     0.2984300
  H       -3.9950070    -0.1842490     0.6994320
  H        3.9774380    -0.3341110     0.6295290
units angstrom
no_reorient  #important for SAPT in psi4, default
symmetry c1  #important for SAPT in psi4, default
}

set PROPERTIES_ORIGIN ["COM"]
properties('MP2/aug-cc-pvtz', properties = ['dipole'])
--------------------------------------------------------------------------

    Molecular point group: c1
  Charge       = 0
  Multiplicity = 1
  Basis Set: AUG-CC-PVTZ
    Blend: AUG-CC-PVTZ
  Basis Set: (AUG-CC-PVTZ AUX)
    Blend: AUG-CC-PVTZ-JKFIT

    Orbital Energies [Eh]
    ---------------------

    Doubly Occupied:

       1A    -20.618303     2A    -20.554156     3A    -11.393970
       4A    -11.257758     5A    -11.243425     6A    -11.242224
       7A    -11.236107     8A    -11.234674     9A    -11.231983
      10A    -11.231044    11A    -11.198322    12A     -1.462257
      13A     -1.359652    14A     -1.160801    15A     -1.070139
      16A     -1.049478    17A     -0.982810    18A     -0.945492
      19A     -0.840223    20A     -0.816516    21A     -0.778734
      22A     -0.708237    23A     -0.688567    24A     -0.679364
      25A     -0.670938    26A     -0.631232    27A     -0.626264
      28A     -0.595556    29A     -0.579977    30A     -0.573180
      31A     -0.566101    32A     -0.562593    33A     -0.547587
      34A     -0.490927    35A     -0.487847    36A     -0.483006
      37A     -0.481046    38A     -0.457168    39A     -0.333217
      40A     -0.322735

  @DF-RHF Final Energy:  -496.53061673786306

   => Energetics <=

    Nuclear Repulsion Energy =            584.6284350883341858
    One-Electron Energy =               -1835.5308825139923101
    Two-Electron Energy =                 754.3718306877949544
    Total Energy =                       -496.5306167378630562
  Basis Set: (AUG-CC-PVTZ AUX)
    Blend: AUG-CC-PVTZ-RI
    Molecular point group: c1

    Geometry (in Angstrom), charge = 0, multiplicity = 1:

       Center              X                  Y                   Z               Mass
    ------------   -----------------  -----------------  -----------------  -----------------
         O            3.381945314480    -0.510373254022    -0.157615404447    15.994914619570
         O            1.873369314480     0.266473745978     1.342392595553    15.994914619570
         C           -0.298975685520    -0.314206254022    -0.452636404447    12.000000000000
         C           -0.909120685520     0.935426745978    -0.228396404447    12.000000000000
         C            1.136932314480    -0.413115254022    -0.889270404447    12.000000000000
         C           -1.035377685520    -1.489602254022    -0.267634404447    12.000000000000
         C           -2.248387685521     0.961787745978     0.177865595553    12.000000000000
         C           -0.149068685520     2.222937745978    -0.413974404447    12.000000000000
         C           -2.368236685520    -1.447417254022     0.141271595553    12.000000000000
         C           -2.977594685520    -0.213323254022     0.365026595553    12.000000000000
         C            2.121318314479    -0.173934254022     0.234499595553    12.000000000000
         H            1.374168314480     0.306936745978    -1.683028404447     1.007825032230
         H            1.348780314480    -1.401942254022    -1.310811404447     1.007825032230
         H           -0.555969685520    -2.451183254022    -0.445944404447     1.007825032230
         H           -2.727798685521     1.923607745978     0.352206595553     1.007825032230
         H            0.690271314480     2.284307745978     0.284245595553     1.007825032230
         H            0.249455314480     2.316028745978    -1.430753404447     1.007825032230
         H           -0.683003885520     2.924120145978    -0.268670004447     1.007825032230
         H           -2.925297685520    -2.370704254022     0.280714595553     1.007825032230
         H           -4.016738685521    -0.163352254022     0.681716595553     1.007825032230
         H            3.955706314479    -0.313214254022     0.611813595553     1.007825032230

  Basis Set: AUG-CC-PVTZ
    Blend: AUG-CC-PVTZ
  Basis Set: (AUG-CC-PVTZ AUX)
    Blend: AUG-CC-PVTZ-JKFIT
	 Reference Energy          =    -496.5306167378630562 [Eh]
	 Singles Energy            =      -0.0000000000000000 [Eh]
	 Same-Spin Energy          =      -0.5236473028263990 [Eh]
	 Opposite-Spin Energy      =      -1.6277993456568196 [Eh]
	 Correlation Energy        =      -2.1514466484832186 [Eh]
	 Total Energy              =    -498.6820633863462717 [Eh]

	 ================> DF-SCS-MP2 Energies <==================
	-----------------------------------------------------------
	 SCS Same-Spin Scale       =       0.3333333333333333 [-]
	 SCS Opposite-Spin Scale   =       1.2000000000000000 [-]
	 SCS Same-Spin Energy      =      -0.1745491009421330 [Eh]
	 SCS Opposite-Spin Energy  =      -1.9533592147881835 [Eh]
	 SCS Correlation Energy    =      -2.1279083157303167 [Eh]
	 SCS Total Energy          =    -498.6585250535933937 [Eh]
	-----------------------------------------------------------

  Dipole Moment: [D]
     X:     0.5199      Y:    -0.0244      Z:    -1.2107     Total:     1.3178

*** Psi4 exiting successfully. Buy a developer a beer!
