                               Psi4 1.4a3.dev225

  ==> Input File <==

--------------------------------------------------------------------------
#psi4
#
memory 32 gb

molecule  {
0 1
  O        3.4036770    -0.5312700    -0.1399000
  O        1.8951010     0.2455770     1.3601080
  C       -0.2772440    -0.3351030    -0.4349210
  C       -0.8873890     0.9145300    -0.2106810
  C        1.1586640    -0.4340120    -0.8715550
  C       -1.0136460    -1.5104990    -0.2499190
  C       -2.2266560     0.9408910     0.1955810
  C       -0.1273370     2.2020410    -0.3962590
  C       -2.3465050    -1.4683140     0.1589870
  C       -2.9558630    -0.2342200     0.3827420
  C        2.1389777    -0.1875977     0.2704110
  H        1.3959000     0.2860400    -1.6653130
  H        1.3705120    -1.4228390    -1.2930960
  H       -0.5342380    -2.4720800    -0.4282290
  H       -2.7060670     1.9027110     0.3699220
  H        0.7120030     2.2634110     0.3019610
  H        0.2711870     2.2951320    -1.4130380
  H       -0.7808240     3.0602230    -0.2184200
  H       -2.9035660    -2.3916010     0.2984300
  H       -3.9950070    -0.1842490     0.6994320
  H        3.9774380    -0.3341110     0.6295290
units angstrom
no_reorient  #important for SAPT in psi4, default
symmetry c1  #important for SAPT in psi4, default
}

set PROPERTIES_ORIGIN ["COM"]
properties('MP2/aug-cc-pvtz', properties = ['dipole'])
--------------------------------------------------------------------------

    Molecular point group: c1
  Charge       = 0
  Multiplicity = 1
  Basis Set: AUG-CC-PVTZ
    Blend: AUG-CC-PVTZ
  Basis Set: (AUG-CC-PVTZ AUX)
    Blend: AUG-CC-PVTZ-JKFIT

    Orbital Energies [Eh]
    ---------------------

    Doubly Occupied:

       1A    -20.615530     2A    -20.558587     3A    -11.392952
       4A    -11.257948     5A    -11.244294     6A    -11.243149
       7A    -11.236450     8A    -11.234735     9A    -11.232419
      10A    -11.231192    11A    -11.223216    12A     -1.464245
      13A     -1.368527    14A     -1.160601    15A     -1.068993
      16A     -1.041467    17A     -0.979761    18A     -0.930087
      19A     -0.837920    20A     -0.811518    21A     -0.776563
      22A     -0.710329    23A     -0.689681    24A     -0.678498
      25A     -0.666300    26A     -0.627884    27A     -0.625456
      28A     -0.599727    29A     -0.577624    30A     -0.569437
      31A     -0.564309    32A     -0.547449    33A     -0.540757
      34A     -0.494434    35A     -0.487209    36A     -0.485062
      37A     -0.483660    38A     -0.458424    39A     -0.333322
      40A     -0.323402

  @DF-RHF Final Energy:  -496.56521532716079

   => Energetics <=

    Nuclear Repulsion Energy =            583.6307358687322449
    One-Electron Energy =               -1833.6456643382603033
    Two-Electron Energy =                 753.4497131423672727
    Total Energy =                       -496.5652153271607858
  Basis Set: (AUG-CC-PVTZ AUX)
    Blend: AUG-CC-PVTZ-RI
    Molecular point group: c1

    Geometry (in Angstrom), charge = 0, multiplicity = 1:

       Center              X                  Y                   Z               Mass
    ------------   -----------------  -----------------  -----------------  -----------------
         O            3.383073834930    -0.512006031143    -0.159288919461    15.994914619570
         O            1.874497834930     0.264840968857     1.340719080539    15.994914619570
         C           -0.297847165070    -0.315839031143    -0.454309919461    12.000000000000
         C           -0.907992165070     0.933793968857    -0.230069919461    12.000000000000
         C            1.138060834930    -0.414748031143    -0.890943919461    12.000000000000
         C           -1.034249165070    -1.491235031143    -0.269307919461    12.000000000000
         C           -2.247259165070     0.960154968857     0.176192080539    12.000000000000
         C           -0.147940165070     2.221304968857    -0.415647919461    12.000000000000
         C           -2.367108165070    -1.449050031143     0.139598080539    12.000000000000
         C           -2.976466165070    -0.214956031143     0.363353080539    12.000000000000
         C            2.118374534930    -0.168333731143     0.251022080539    12.000000000000
         H            1.375296834930     0.305303968857    -1.684701919461     1.007825032230
         H            1.349908834930    -1.403575031143    -1.312484919461     1.007825032230
         H           -0.554841165070    -2.452816031143    -0.447617919461     1.007825032230
         H           -2.726670165070     1.921974968857     0.350533080539     1.007825032230
         H            0.691399834930     2.282674968857     0.282572080539     1.007825032230
         H            0.250583834930     2.314395968857    -1.432426919461     1.007825032230
         H           -0.801427165070     3.079486968857    -0.237808919461     1.007825032230
         H           -2.924169165070    -2.372337031143     0.279041080539     1.007825032230
         H           -4.015610165070    -0.164985031143     0.680043080539     1.007825032230
         H            3.956834834930    -0.314847031143     0.610140080539     1.007825032230

  Basis Set: AUG-CC-PVTZ
    Blend: AUG-CC-PVTZ
  Basis Set: (AUG-CC-PVTZ AUX)
    Blend: AUG-CC-PVTZ-JKFIT
	 Reference Energy          =    -496.5652153271607858 [Eh]
	 Singles Energy            =      -0.0000000000000000 [Eh]
	 Same-Spin Energy          =      -0.5232780309118833 [Eh]
	 Opposite-Spin Energy      =      -1.6280233101444399 [Eh]
	 Correlation Energy        =      -2.1513013410563233 [Eh]
	 Total Energy              =    -498.7165166682170820 [Eh]

	 ================> DF-SCS-MP2 Energies <==================
	-----------------------------------------------------------
	 SCS Same-Spin Scale       =       0.3333333333333333 [-]
	 SCS Opposite-Spin Scale   =       1.2000000000000000 [-]
	 SCS Same-Spin Energy      =      -0.1744260103039611 [Eh]
	 SCS Opposite-Spin Energy  =      -1.9536279721733278 [Eh]
	 SCS Correlation Energy    =      -2.1280539824772888 [Eh]
	 SCS Total Energy          =    -498.6932693096380831 [Eh]
	-----------------------------------------------------------

  Dipole Moment: [D]
     X:     0.4914      Y:    -0.0685      Z:    -1.1054     Total:     1.2116

*** Psi4 exiting successfully. Buy a developer a beer!
