                               Psi4 1.4a3.dev225

  ==> Input File <==

--------------------------------------------------------------------------
#psi4
#
memory 32 gb

molecule  {
0 1
  O        3.4036770    -0.5312700    -0.1399000
  O        1.8951010     0.2455770     1.3601080
  C       -0.2772440    -0.3351030    -0.4349210
  C       -0.8873890     0.9145300    -0.2106810
  C        1.1586640    -0.4340120    -0.8715550
  C       -1.0136460    -1.5104990    -0.2499190
  C       -2.2271886     0.8920587     0.1940558
  C       -0.1273370     2.2020410    -0.3962590
  C       -2.3465050    -1.4683140     0.1589870
  C       -2.9558630    -0.2342200     0.3827420
  C        2.1430500    -0.1948310     0.2522150
  H        1.3959000     0.2860400    -1.6653130
  H        1.3705120    -1.4228390    -1.2930960
  H       -0.5342380    -2.4720800    -0.4282290
  H       -2.7060670     1.9027110     0.3699220
  H        0.7120030     2.2634110     0.3019610
  H        0.2711870     2.2951320    -1.4130380
  H       -0.7808240     3.0602230    -0.2184200
  H       -2.9035660    -2.3916010     0.2984300
  H       -3.9950070    -0.1842490     0.6994320
  H        3.9774380    -0.3341110     0.6295290
units angstrom
no_reorient  #important for SAPT in psi4, default
symmetry c1  #important for SAPT in psi4, default
}

set PROPERTIES_ORIGIN ["COM"]
properties('MP2/aug-cc-pvtz', properties = ['dipole'])
--------------------------------------------------------------------------

    Molecular point group: c1
  Charge       = 0
  Multiplicity = 1
  Basis Set: AUG-CC-PVTZ
    Blend: AUG-CC-PVTZ
  Basis Set: (AUG-CC-PVTZ AUX)
    Blend: AUG-CC-PVTZ-JKFIT

    Orbital Energies [Eh]
    ---------------------

    Doubly Occupied:

       1A    -20.618940     2A    -20.554976     3A    -11.394793
       4A    -11.258347     5A    -11.244361     6A    -11.243177
       7A    -11.235668     8A    -11.232755     9A    -11.230953
      10A    -11.229176    11A    -11.224221    12A     -1.462962
      13A     -1.360413    14A     -1.163919    15A     -1.073875
      16A     -1.040278    17A     -0.985122    18A     -0.931281
      19A     -0.840246    20A     -0.811136    21A     -0.778415
      22A     -0.708726    23A     -0.689833    24A     -0.679969
      25A     -0.667017    26A     -0.629567    27A     -0.619147
      28A     -0.596601    29A     -0.578311    30A     -0.568459
      31A     -0.565198    32A     -0.549356    33A     -0.539423
      34A     -0.494392    35A     -0.489190    36A     -0.482742
      37A     -0.477396    38A     -0.458124    39A     -0.337517
      40A     -0.322324

  @DF-RHF Final Energy:  -496.56141585228255

   => Energetics <=

    Nuclear Repulsion Energy =            584.1806820478502686
    One-Electron Energy =               -1834.7475831356271101
    Two-Electron Energy =                 754.0054852354943478
    Total Energy =                       -496.5614158522824937
  Basis Set: (AUG-CC-PVTZ AUX)
    Blend: AUG-CC-PVTZ-RI
    Molecular point group: c1

    Geometry (in Angstrom), charge = 0, multiplicity = 1:

       Center              X                  Y                   Z               Mass
    ------------   -----------------  -----------------  -----------------  -----------------
         O            3.382790787395    -0.507522817911    -0.157711939196    15.994914619570
         O            1.874214787395     0.269324182089     1.342296060804    15.994914619570
         C           -0.298130212605    -0.311355817911    -0.452732939196    12.000000000000
         C           -0.908275212605     0.938277182089    -0.228492939196    12.000000000000
         C            1.137777787395    -0.410264817911    -0.889366939196    12.000000000000
         C           -1.034532212605    -1.486751817911    -0.267730939196    12.000000000000
         C           -2.248074812605     0.915805882089     0.176243860804    12.000000000000
         C           -0.148223212605     2.225788182089    -0.414070939196    12.000000000000
         C           -2.367391212605    -1.444566817911     0.141175060804    12.000000000000
         C           -2.976749212605    -0.210472817911     0.364930060804    12.000000000000
         C            2.122163787395    -0.171083817911     0.234403060804    12.000000000000
         H            1.375013787395     0.309787182089    -1.683124939196     1.007825032230
         H            1.349625787395    -1.399091817911    -1.310907939196     1.007825032230
         H           -0.555124212605    -2.448332817911    -0.446040939196     1.007825032230
         H           -2.726953212605     1.926458182089     0.352110060804     1.007825032230
         H            0.691116787395     2.287158182089     0.284149060804     1.007825032230
         H            0.250300787395     2.318879182089    -1.430849939196     1.007825032230
         H           -0.801710212605     3.083970182089    -0.236231939196     1.007825032230
         H           -2.924452212605    -2.367853817911     0.280618060804     1.007825032230
         H           -4.015893212605    -0.160501817911     0.681620060804     1.007825032230
         H            3.956551787395    -0.310363817911     0.611717060804     1.007825032230

  Basis Set: AUG-CC-PVTZ
    Blend: AUG-CC-PVTZ
  Basis Set: (AUG-CC-PVTZ AUX)
    Blend: AUG-CC-PVTZ-JKFIT
	 Reference Energy          =    -496.5614158522825505 [Eh]
	 Singles Energy            =      -0.0000000000000000 [Eh]
	 Same-Spin Energy          =      -0.5238051531551035 [Eh]
	 Opposite-Spin Energy      =      -1.6286647373949057 [Eh]
	 Correlation Energy        =      -2.1524698905500093 [Eh]
	 Total Energy              =    -498.7138857428325878 [Eh]

	 ================> DF-SCS-MP2 Energies <==================
	-----------------------------------------------------------
	 SCS Same-Spin Scale       =       0.3333333333333333 [-]
	 SCS Opposite-Spin Scale   =       1.2000000000000000 [-]
	 SCS Same-Spin Energy      =      -0.1746017177183678 [Eh]
	 SCS Opposite-Spin Energy  =      -1.9543976848738867 [Eh]
	 SCS Correlation Energy    =      -2.1289994025922545 [Eh]
	 SCS Total Energy          =    -498.6904152548747788 [Eh]
	-----------------------------------------------------------

  Dipole Moment: [D]
     X:     0.5596      Y:    -0.1223      Z:    -1.2178     Total:     1.3458

*** Psi4 exiting successfully. Buy a developer a beer!
