                               Psi4 1.4a3.dev225

  ==> Input File <==

--------------------------------------------------------------------------
#psi4
#
memory 32 gb

molecule  {
0 1
  O        3.4036770    -0.5312700    -0.1399000
  O        1.8951010     0.2455770     1.3601080
  C       -0.2772440    -0.3351030    -0.4349210
  C       -0.9723414     0.9722342    -0.1880632
  C        1.1586640    -0.4340120    -0.8715550
  C       -1.0136460    -1.5104990    -0.2499190
  C       -2.2266560     0.9408910     0.1955810
  C       -0.1273370     2.2020410    -0.3962590
  C       -2.3465050    -1.4683140     0.1589870
  C       -2.9558630    -0.2342200     0.3827420
  C        2.1430500    -0.1948310     0.2522150
  H        1.3959000     0.2860400    -1.6653130
  H        1.3705120    -1.4228390    -1.2930960
  H       -0.5342380    -2.4720800    -0.4282290
  H       -2.7060670     1.9027110     0.3699220
  H        0.7120030     2.2634110     0.3019610
  H        0.2711870     2.2951320    -1.4130380
  H       -0.7808240     3.0602230    -0.2184200
  H       -2.9035660    -2.3916010     0.2984300
  H       -3.9950070    -0.1842490     0.6994320
  H        3.9774380    -0.3341110     0.6295290
units angstrom
no_reorient  #important for SAPT in psi4, default
symmetry c1  #important for SAPT in psi4, default
}

set PROPERTIES_ORIGIN ["COM"]
properties('MP2/aug-cc-pvtz', properties = ['dipole'])
--------------------------------------------------------------------------

    Molecular point group: c1
  Charge       = 0
  Multiplicity = 1
  Basis Set: AUG-CC-PVTZ
    Blend: AUG-CC-PVTZ
  Basis Set: (AUG-CC-PVTZ AUX)
    Blend: AUG-CC-PVTZ-JKFIT

    Orbital Energies [Eh]
    ---------------------

    Doubly Occupied:

       1A    -20.619255     2A    -20.555097     3A    -11.395085
       4A    -11.260467     5A    -11.252254     6A    -11.242244
       7A    -11.235665     8A    -11.234979     9A    -11.232630
      10A    -11.223077    11A    -11.220623    12A     -1.463212
      13A     -1.360571    14A     -1.159788    15A     -1.070546
      16A     -1.048414    17A     -0.980607    18A     -0.931276
      19A     -0.845082    20A     -0.798186    21A     -0.784998
      22A     -0.709130    23A     -0.689937    24A     -0.679387
      25A     -0.665171    26A     -0.628004    27A     -0.624463
      28A     -0.595936    29A     -0.583866    30A     -0.570535
      31A     -0.561554    32A     -0.552103    33A     -0.537630
      34A     -0.499177    35A     -0.491638    36A     -0.482191
      37A     -0.463625    38A     -0.458282    39A     -0.345111
      40A     -0.315347

  @DF-RHF Final Energy:  -496.55132365211750

   => Energetics <=

    Nuclear Repulsion Energy =            582.8284873806287578
    One-Electron Energy =               -1832.0253311245321584
    Two-Electron Energy =                 752.6455200917858974
    Total Energy =                       -496.5513236521175031
  Basis Set: (AUG-CC-PVTZ AUX)
    Blend: AUG-CC-PVTZ-RI
    Molecular point group: c1

    Geometry (in Angstrom), charge = 0, multiplicity = 1:

       Center              X                  Y                   Z               Mass
    ------------   -----------------  -----------------  -----------------  -----------------
         O            3.389541307578    -0.516041871421    -0.159642502983    15.994914619570
         O            1.880965307578     0.260805128579     1.340365497017    15.994914619570
         C           -0.291379692422    -0.319874871421    -0.454663502983    12.000000000000
         C           -0.986477092422     0.987462328579    -0.207805702983    12.000000000000
         C            1.144528307578    -0.418783871421    -0.891297502983    12.000000000000
         C           -1.027781692422    -1.495270871421    -0.269661502983    12.000000000000
         C           -2.240791692422     0.956119128579     0.175838497017    12.000000000000
         C           -0.141472692422     2.217269128579    -0.416001502983    12.000000000000
         C           -2.360640692422    -1.453085871421     0.139244497017    12.000000000000
         C           -2.969998692422    -0.218991871421     0.362999497017    12.000000000000
         C            2.128914307578    -0.179602871421     0.232472497017    12.000000000000
         H            1.381764307578     0.301268128579    -1.685055502983     1.007825032230
         H            1.356376307578    -1.407610871421    -1.312838502983     1.007825032230
         H           -0.548373692422    -2.456851871421    -0.447971502983     1.007825032230
         H           -2.720202692422     1.917939128579     0.350179497017     1.007825032230
         H            0.697867307578     2.278639128579     0.282218497017     1.007825032230
         H            0.257051307578     2.310360128579    -1.432780502983     1.007825032230
         H           -0.794959692422     3.075451128579    -0.238162502983     1.007825032230
         H           -2.917701692422    -2.376372871421     0.278687497017     1.007825032230
         H           -4.009142692422    -0.169020871421     0.679689497017     1.007825032230
         H            3.963302307578    -0.318882871421     0.609786497017     1.007825032230

  Basis Set: AUG-CC-PVTZ
    Blend: AUG-CC-PVTZ
  Basis Set: (AUG-CC-PVTZ AUX)
    Blend: AUG-CC-PVTZ-JKFIT
	 Reference Energy          =    -496.5513236521175031 [Eh]
	 Singles Energy            =      -0.0000000000000000 [Eh]
	 Same-Spin Energy          =      -0.5231417684087052 [Eh]
	 Opposite-Spin Energy      =      -1.6290274305340779 [Eh]
	 Correlation Energy        =      -2.1521691989427829 [Eh]
	 Total Energy              =    -498.7034928510602754 [Eh]

	 ================> DF-SCS-MP2 Energies <==================
	-----------------------------------------------------------
	 SCS Same-Spin Scale       =       0.3333333333333333 [-]
	 SCS Opposite-Spin Scale   =       1.2000000000000000 [-]
	 SCS Same-Spin Energy      =      -0.1743805894695684 [Eh]
	 SCS Opposite-Spin Energy  =      -1.9548329166408935 [Eh]
	 SCS Correlation Energy    =      -2.1292135061104620 [Eh]
	 SCS Total Energy          =    -498.6805371582279918 [Eh]
	-----------------------------------------------------------

  Dipole Moment: [D]
     X:     0.5859      Y:    -0.1460      Z:    -1.2230     Total:     1.3640

*** Psi4 exiting successfully. Buy a developer a beer!
