                               Psi4 1.4a3.dev225

  ==> Input File <==

--------------------------------------------------------------------------
#psi4
#
memory 32 gb

molecule  {
0 1
  O        3.4036770    -0.5312700    -0.1399000
  O        1.8951010     0.2455770     1.3601080
  C       -0.2772440    -0.3351030    -0.4349210
  C       -0.8873890     0.9145300    -0.2106810
  C        1.1586640    -0.4340120    -0.8715550
  C       -1.0136460    -1.5104990    -0.2499190
  C       -2.2266560     0.9408910     0.1955810
  C       -0.1273370     2.2020410    -0.3962590
  C       -2.3465050    -1.4683140     0.1589870
  C       -2.9558630    -0.2342200     0.3827420
  C        2.1430500    -0.1948310     0.2522150
  H        1.3959000     0.2860400    -1.6653130
  H        1.3608439    -1.3777121    -1.2738582
  H       -0.5342380    -2.4720800    -0.4282290
  H       -2.7060670     1.9027110     0.3699220
  H        0.7120030     2.2634110     0.3019610
  H        0.2711870     2.2951320    -1.4130380
  H       -0.7808240     3.0602230    -0.2184200
  H       -2.9035660    -2.3916010     0.2984300
  H       -3.9950070    -0.1842490     0.6994320
  H        3.9774380    -0.3341110     0.6295290
units angstrom
no_reorient  #important for SAPT in psi4, default
symmetry c1  #important for SAPT in psi4, default
}

set PROPERTIES_ORIGIN ["COM"]
properties('MP2/aug-cc-pvtz', properties = ['dipole'])
--------------------------------------------------------------------------

    Molecular point group: c1
  Charge       = 0
  Multiplicity = 1
  Basis Set: AUG-CC-PVTZ
    Blend: AUG-CC-PVTZ
  Basis Set: (AUG-CC-PVTZ AUX)
    Blend: AUG-CC-PVTZ-JKFIT

    Orbital Energies [Eh]
    ---------------------

    Doubly Occupied:

       1A    -20.619073     2A    -20.554698     3A    -11.394406
       4A    -11.252960     5A    -11.244331     6A    -11.243162
       7A    -11.236674     8A    -11.234726     9A    -11.232403
      10A    -11.231013    11A    -11.222677    12A     -1.462959
      13A     -1.360267    14A     -1.160970    15A     -1.072690
      16A     -1.041884    17A     -0.983144    18A     -0.930280
      19A     -0.840878    20A     -0.813089    21A     -0.779135
      22A     -0.709234    23A     -0.690712    24A     -0.679050
      25A     -0.668766    26A     -0.627918    27A     -0.626266
      28A     -0.596353    29A     -0.577897    30A     -0.569850
      31A     -0.565535    32A     -0.552465    33A     -0.540425
      34A     -0.491382    35A     -0.486848    36A     -0.483881
      37A     -0.481506    38A     -0.457948    39A     -0.333484
      40A     -0.323301

  @DF-RHF Final Energy:  -496.56369074808106

   => Energetics <=

    Nuclear Repulsion Energy =            583.8034464572642719
    One-Electron Energy =               -1833.9857986084909953
    Two-Electron Energy =                 753.6186614031456656
    Total Energy =                       -496.5636907480810578
  Basis Set: (AUG-CC-PVTZ AUX)
    Blend: AUG-CC-PVTZ-RI
    Molecular point group: c1

    Geometry (in Angstrom), charge = 0, multiplicity = 1:

       Center              X                  Y                   Z               Mass
    ------------   -----------------  -----------------  -----------------  -----------------
         O            3.382813127610    -0.511730692239    -0.157963096780    15.994914619570
         O            1.874237127610     0.265116307761     1.342044903220    15.994914619570
         C           -0.298107872390    -0.315563692239    -0.452984096780    12.000000000000
         C           -0.908252872390     0.934069307761    -0.228744096780    12.000000000000
         C            1.137800127610    -0.414472692239    -0.889618096780    12.000000000000
         C           -1.034509872390    -1.490959692239    -0.267982096780    12.000000000000
         C           -2.247519872390     0.960430307761     0.177517903220    12.000000000000
         C           -0.148200872390     2.221580307761    -0.414322096780    12.000000000000
         C           -2.367368872390    -1.448774692239     0.140923903220    12.000000000000
         C           -2.976726872390    -0.214680692239     0.364678903220    12.000000000000
         C            2.122186127610    -0.175291692239     0.234151903220    12.000000000000
         H            1.375036127610     0.305579307761    -1.683376096780     1.007825032230
         H            1.339980027610    -1.358172792239    -1.291921296780     1.007825032230
         H           -0.555101872390    -2.452540692239    -0.446292096780     1.007825032230
         H           -2.726930872390     1.922250307761     0.351858903220     1.007825032230
         H            0.691139127610     2.282950307761     0.283897903220     1.007825032230
         H            0.250323127610     2.314671307761    -1.431101096780     1.007825032230
         H           -0.801687872390     3.079762307761    -0.236483096780     1.007825032230
         H           -2.924429872390    -2.372061692239     0.280366903220     1.007825032230
         H           -4.015870872390    -0.164709692239     0.681368903220     1.007825032230
         H            3.956574127610    -0.314571692239     0.611465903220     1.007825032230

  Basis Set: AUG-CC-PVTZ
    Blend: AUG-CC-PVTZ
  Basis Set: (AUG-CC-PVTZ AUX)
    Blend: AUG-CC-PVTZ-JKFIT
	 Reference Energy          =    -496.5636907480810578 [Eh]
	 Singles Energy            =      -0.0000000000000000 [Eh]
	 Same-Spin Energy          =      -0.5235627477097864 [Eh]
	 Opposite-Spin Energy      =      -1.6282727606797363 [Eh]
	 Correlation Energy        =      -2.1518355083895226 [Eh]
	 Total Energy              =    -498.7155262564705822 [Eh]

	 ================> DF-SCS-MP2 Energies <==================
	-----------------------------------------------------------
	 SCS Same-Spin Scale       =       0.3333333333333333 [-]
	 SCS Opposite-Spin Scale   =       1.2000000000000000 [-]
	 SCS Same-Spin Energy      =      -0.1745209159032621 [Eh]
	 SCS Opposite-Spin Energy  =      -1.9539273128156833 [Eh]
	 SCS Correlation Energy    =      -2.1284482287189452 [Eh]
	 SCS Total Energy          =    -498.6921389767999813 [Eh]
	-----------------------------------------------------------

  Dipole Moment: [D]
     X:     0.5544      Y:    -0.1211      Z:    -1.2175     Total:     1.3432

*** Psi4 exiting successfully. Buy a developer a beer!
