                               Psi4 1.4a3.dev225

  ==> Input File <==

--------------------------------------------------------------------------
#psi4
#
memory 32 gb

molecule  {
0 1
  O        3.4036770    -0.5312700    -0.1399000
  O        1.8951010     0.2455770     1.3601080
  C       -0.2772440    -0.3351030    -0.4349210
  C       -0.8873890     0.9145300    -0.2106810
  C        1.1586640    -0.4340120    -0.8715550
  C       -1.0162786    -1.5591088    -0.2505868
  C       -2.2266560     0.9408910     0.1955810
  C       -0.1273370     2.2020410    -0.3962590
  C       -2.3465050    -1.4683140     0.1589870
  C       -2.9558630    -0.2342200     0.3827420
  C        2.1430500    -0.1948310     0.2522150
  H        1.3959000     0.2860400    -1.6653130
  H        1.3705120    -1.4228390    -1.2930960
  H       -0.5342380    -2.4720800    -0.4282290
  H       -2.7060670     1.9027110     0.3699220
  H        0.7120030     2.2634110     0.3019610
  H        0.2711870     2.2951320    -1.4130380
  H       -0.7808240     3.0602230    -0.2184200
  H       -2.9035660    -2.3916010     0.2984300
  H       -3.9950070    -0.1842490     0.6994320
  H        3.9774380    -0.3341110     0.6295290
units angstrom
no_reorient  #important for SAPT in psi4, default
symmetry c1  #important for SAPT in psi4, default
}

set PROPERTIES_ORIGIN ["COM"]
properties('MP2/aug-cc-pvtz', properties = ['dipole'])
--------------------------------------------------------------------------

    Molecular point group: c1
  Charge       = 0
  Multiplicity = 1
  Basis Set: AUG-CC-PVTZ
    Blend: AUG-CC-PVTZ
  Basis Set: (AUG-CC-PVTZ AUX)
    Blend: AUG-CC-PVTZ-JKFIT

    Orbital Energies [Eh]
    ---------------------

    Doubly Occupied:

       1A    -20.618720     2A    -20.554663     3A    -11.394435
       4A    -11.258315     5A    -11.248570     6A    -11.243480
       7A    -11.237647     8A    -11.234987     9A    -11.233267
      10A    -11.232380    11A    -11.222953    12A     -1.462706
      13A     -1.360114    14A     -1.156929    15A     -1.069875
      16A     -1.041749    17A     -0.980411    18A     -0.928706
      19A     -0.842452    20A     -0.814461    21A     -0.775113
      22A     -0.708543    23A     -0.688592    24A     -0.679147
      25A     -0.667059    26A     -0.633098    27A     -0.625533
      28A     -0.595985    29A     -0.579205    30A     -0.569013
      31A     -0.562741    32A     -0.549820    33A     -0.540036
      34A     -0.492658    35A     -0.489506    36A     -0.480583
      37A     -0.478521    38A     -0.457491    39A     -0.330788
      40A     -0.323256

  @DF-RHF Final Energy:  -496.56073609605698

   => Energetics <=

    Nuclear Repulsion Energy =            582.6506453736587900
    One-Electron Energy =               -1831.6957475318483830
    Two-Electron Energy =                 752.4843660621326080
    Total Energy =                       -496.5607360960569849
  Basis Set: (AUG-CC-PVTZ AUX)
    Blend: AUG-CC-PVTZ-RI
    Molecular point group: c1

    Geometry (in Angstrom), charge = 0, multiplicity = 1:

       Center              X                  Y                   Z               Mass
    ------------   -----------------  -----------------  -----------------  -----------------
         O            3.382958711180    -0.507540609836    -0.157780500078    15.994914619570
         O            1.874382711180     0.269306390164     1.342227499922    15.994914619570
         C           -0.297962288820    -0.311373609836    -0.452801500078    12.000000000000
         C           -0.908107288820     0.938259390164    -0.228561500078    12.000000000000
         C            1.137945711180    -0.410282609836    -0.889435500078    12.000000000000
         C           -1.036996888820    -1.535379409836    -0.268467300078    12.000000000000
         C           -2.247374288820     0.964620390164     0.177700499922    12.000000000000
         C           -0.148055288820     2.225770390164    -0.414139500078    12.000000000000
         C           -2.367223288820    -1.444584609836     0.141106499922    12.000000000000
         C           -2.976581288820    -0.210490609836     0.364861499922    12.000000000000
         C            2.122331711180    -0.171101609836     0.234334499922    12.000000000000
         H            1.375181711180     0.309769390164    -1.683193500078     1.007825032230
         H            1.349793711180    -1.399109609836    -1.310976500078     1.007825032230
         H           -0.554956288820    -2.448350609836    -0.446109500078     1.007825032230
         H           -2.726785288820     1.926440390164     0.352041499922     1.007825032230
         H            0.691284711180     2.287140390164     0.284080499922     1.007825032230
         H            0.250468711180     2.318861390164    -1.430918500078     1.007825032230
         H           -0.801542288820     3.083952390164    -0.236300500078     1.007825032230
         H           -2.924284288820    -2.367871609836     0.280549499922     1.007825032230
         H           -4.015725288820    -0.160519609836     0.681551499922     1.007825032230
         H            3.956719711180    -0.310381609836     0.611648499922     1.007825032230

  Basis Set: AUG-CC-PVTZ
    Blend: AUG-CC-PVTZ
  Basis Set: (AUG-CC-PVTZ AUX)
    Blend: AUG-CC-PVTZ-JKFIT
	 Reference Energy          =    -496.5607360960569849 [Eh]
	 Singles Energy            =      -0.0000000000000000 [Eh]
	 Same-Spin Energy          =      -0.5237162048203005 [Eh]
	 Opposite-Spin Energy      =      -1.6290591545008479 [Eh]
	 Correlation Energy        =      -2.1527753593211485 [Eh]
	 Total Energy              =    -498.7135114553781250 [Eh]

	 ================> DF-SCS-MP2 Energies <==================
	-----------------------------------------------------------
	 SCS Same-Spin Scale       =       0.3333333333333333 [-]
	 SCS Opposite-Spin Scale   =       1.2000000000000000 [-]
	 SCS Same-Spin Energy      =      -0.1745720682734335 [Eh]
	 SCS Opposite-Spin Energy  =      -1.9548709854010173 [Eh]
	 SCS Correlation Energy    =      -2.1294430536744509 [Eh]
	 SCS Total Energy          =    -498.6901791497314207 [Eh]
	-----------------------------------------------------------

  Dipole Moment: [D]
     X:     0.5508      Y:    -0.1158      Z:    -1.2146     Total:     1.3387

*** Psi4 exiting successfully. Buy a developer a beer!
