                               Psi4 1.4a3.dev225

  ==> Input File <==

--------------------------------------------------------------------------
#psi4
#
memory 32 gb

molecule  {
0 1
  O        3.4036770    -0.5312700    -0.1399000
  O        1.8951010     0.2455770     1.3601080
  C       -0.2772440    -0.3351030    -0.4349210
  C       -0.8873890     0.9145300    -0.2106810
  C        1.0631966    -0.4274360    -0.8425251
  C       -1.0136460    -1.5104990    -0.2499190
  C       -2.2266560     0.9408910     0.1955810
  C       -0.1273370     2.2020410    -0.3962590
  C       -2.3465050    -1.4683140     0.1589870
  C       -2.9558630    -0.2342200     0.3827420
  C        2.1430500    -0.1948310     0.2522150
  H        1.3959000     0.2860400    -1.6653130
  H        1.3705120    -1.4228390    -1.2930960
  H       -0.5342380    -2.4720800    -0.4282290
  H       -2.7060670     1.9027110     0.3699220
  H        0.7120030     2.2634110     0.3019610
  H        0.2711870     2.2951320    -1.4130380
  H       -0.7808240     3.0602230    -0.2184200
  H       -2.9035660    -2.3916010     0.2984300
  H       -3.9950070    -0.1842490     0.6994320
  H        3.9774380    -0.3341110     0.6295290
units angstrom
no_reorient  #important for SAPT in psi4, default
symmetry c1  #important for SAPT in psi4, default
}

set PROPERTIES_ORIGIN ["COM"]
properties('MP2/aug-cc-pvtz', properties = ['dipole'])
--------------------------------------------------------------------------

    Molecular point group: c1
  Charge       = 0
  Multiplicity = 1
  Basis Set: AUG-CC-PVTZ
    Blend: AUG-CC-PVTZ
  Basis Set: (AUG-CC-PVTZ AUX)
    Blend: AUG-CC-PVTZ-JKFIT

    Orbital Energies [Eh]
    ---------------------

    Doubly Occupied:

       1A    -20.621046     2A    -20.551929     3A    -11.394863
       4A    -11.262309     5A    -11.245178     6A    -11.238227
       7A    -11.237001     8A    -11.236225     9A    -11.232992
      10A    -11.231749    11A    -11.223073    12A     -1.461916
      13A     -1.359240    14A     -1.167182    15A     -1.076936
      16A     -1.042865    17A     -0.975063    18A     -0.930222
      19A     -0.846380    20A     -0.814051    21A     -0.776589
      22A     -0.708007    23A     -0.689666    24A     -0.676760
      25A     -0.664665    26A     -0.634643    27A     -0.627439
      28A     -0.594307    29A     -0.584141    30A     -0.570640
      31A     -0.564079    32A     -0.542600    33A     -0.535044
      34A     -0.493690    35A     -0.491308    36A     -0.483350
      37A     -0.478753    38A     -0.451142    39A     -0.333199
      40A     -0.323561

  @DF-RHF Final Energy:  -496.55176695129296

   => Energetics <=

    Nuclear Repulsion Energy =            584.6010840020009027
    One-Electron Energy =               -1835.5616443759483900
    Two-Electron Energy =                 754.4087934226544121
    Total Energy =                       -496.5517669512929615
  Basis Set: (AUG-CC-PVTZ AUX)
    Blend: AUG-CC-PVTZ-RI
    Molecular point group: c1

    Geometry (in Angstrom), charge = 0, multiplicity = 1:

       Center              X                  Y                   Z               Mass
    ------------   -----------------  -----------------  -----------------  -----------------
         O            3.390382125961    -0.511953470998    -0.160155238271    15.994914619570
         O            1.881806125961     0.264893529002     1.339852761729    15.994914619570
         C           -0.290538874039    -0.315786470998    -0.455176238271    12.000000000000
         C           -0.900683874039     0.933846529002    -0.230936238271    12.000000000000
         C            1.049901725961    -0.408119470998    -0.862780338271    12.000000000000
         C           -1.026940874039    -1.491182470998    -0.270174238271    12.000000000000
         C           -2.239950874039     0.960207529002     0.175325761729    12.000000000000
         C           -0.140631874039     2.221357529002    -0.416514238271    12.000000000000
         C           -2.359799874039    -1.448997470998     0.138731761729    12.000000000000
         C           -2.969157874039    -0.214903470998     0.362486761729    12.000000000000
         C            2.129755125961    -0.175514470998     0.231959761729    12.000000000000
         H            1.382605125961     0.305356529002    -1.685568238271     1.007825032230
         H            1.357217125961    -1.403522470998    -1.313351238271     1.007825032230
         H           -0.547532874039    -2.452763470998    -0.448484238271     1.007825032230
         H           -2.719361874039     1.922027529002     0.349666761729     1.007825032230
         H            0.698708125961     2.282727529002     0.281705761729     1.007825032230
         H            0.257892125961     2.314448529002    -1.433293238271     1.007825032230
         H           -0.794118874039     3.079539529002    -0.238675238271     1.007825032230
         H           -2.916860874039    -2.372284470998     0.278174761729     1.007825032230
         H           -4.008301874039    -0.164932470998     0.679176761729     1.007825032230
         H            3.964143125961    -0.314794470998     0.609273761729     1.007825032230

  Basis Set: AUG-CC-PVTZ
    Blend: AUG-CC-PVTZ
  Basis Set: (AUG-CC-PVTZ AUX)
    Blend: AUG-CC-PVTZ-JKFIT
	 Reference Energy          =    -496.5517669512929615 [Eh]
	 Singles Energy            =      -0.0000000000000000 [Eh]
	 Same-Spin Energy          =      -0.5248880551780808 [Eh]
	 Opposite-Spin Energy      =      -1.6300934678913941 [Eh]
	 Correlation Energy        =      -2.1549815230694751 [Eh]
	 Total Energy              =    -498.7067484743624277 [Eh]

	 ================> DF-SCS-MP2 Energies <==================
	-----------------------------------------------------------
	 SCS Same-Spin Scale       =       0.3333333333333333 [-]
	 SCS Opposite-Spin Scale   =       1.2000000000000000 [-]
	 SCS Same-Spin Energy      =      -0.1749626850593602 [Eh]
	 SCS Opposite-Spin Energy  =      -1.9561121614696728 [Eh]
	 SCS Correlation Energy    =      -2.1310748465290330 [Eh]
	 SCS Total Energy          =    -498.6828417978219932 [Eh]
	-----------------------------------------------------------

  Dipole Moment: [D]
     X:     0.4827      Y:    -0.1143      Z:    -1.1825     Total:     1.2823

*** Psi4 exiting successfully. Buy a developer a beer!
