                               Psi4 1.4a3.dev225

  ==> Input File <==

--------------------------------------------------------------------------
#psi4
#
memory 32 gb

molecule  {
0 1
  O        3.4036770    -0.5312700    -0.1399000
  O        1.8951010     0.2455770     1.3601080
  C       -0.2772440    -0.3351030    -0.4349210
  C       -0.8873890     0.9145300    -0.2106810
  C        1.1586640    -0.4340120    -0.8715550
  C       -1.0136460    -1.5104990    -0.2499190
  C       -2.2266560     0.9408910     0.1955810
  C       -0.1273370     2.2020410    -0.3962590
  C       -2.3395458    -1.3712126     0.1600638
  C       -2.9558630    -0.2342200     0.3827420
  C        2.1430500    -0.1948310     0.2522150
  H        1.3959000     0.2860400    -1.6653130
  H        1.3705120    -1.4228390    -1.2930960
  H       -0.5342380    -2.4720800    -0.4282290
  H       -2.7060670     1.9027110     0.3699220
  H        0.7120030     2.2634110     0.3019610
  H        0.2711870     2.2951320    -1.4130380
  H       -0.7808240     3.0602230    -0.2184200
  H       -2.9035660    -2.3916010     0.2984300
  H       -3.9950070    -0.1842490     0.6994320
  H        3.9774380    -0.3341110     0.6295290
units angstrom
no_reorient  #important for SAPT in psi4, default
symmetry c1  #important for SAPT in psi4, default
}

set PROPERTIES_ORIGIN ["COM"]
properties('MP2/aug-cc-pvtz', properties = ['dipole'])
--------------------------------------------------------------------------

    Molecular point group: c1
  Charge       = 0
  Multiplicity = 1
  Basis Set: AUG-CC-PVTZ
    Blend: AUG-CC-PVTZ
  Basis Set: (AUG-CC-PVTZ AUX)
    Blend: AUG-CC-PVTZ-JKFIT

    Orbital Energies [Eh]
    ---------------------

    Doubly Occupied:

       1A    -20.619179     2A    -20.555255     3A    -11.395131
       4A    -11.258710     5A    -11.245199     6A    -11.241894
       7A    -11.236315     8A    -11.231450     9A    -11.230723
      10A    -11.223969    11A    -11.222303    12A     -1.463222
      13A     -1.360686    14A     -1.167847    15A     -1.078231
      16A     -1.041269    17A     -0.985656    18A     -0.928935
      19A     -0.844660    20A     -0.814055    21A     -0.771992
      22A     -0.708847    23A     -0.688830    24A     -0.679246
      25A     -0.670403    26A     -0.630491    27A     -0.621913
      28A     -0.596646    29A     -0.581533    30A     -0.569602
      31A     -0.554021    32A     -0.549636    33A     -0.541251
      34A     -0.497630    35A     -0.494204    36A     -0.483206
      37A     -0.467332    38A     -0.458253    39A     -0.336413
      40A     -0.326744

  @DF-RHF Final Energy:  -496.55226038673527

   => Energetics <=

    Nuclear Repulsion Energy =            585.1769831537254731
    One-Electron Energy =               -1836.7127289909906267
    Two-Electron Energy =                 754.9834854505297699
    Total Energy =                       -496.5522603867352700
  Basis Set: (AUG-CC-PVTZ AUX)
    Blend: AUG-CC-PVTZ-RI
    Molecular point group: c1

    Geometry (in Angstrom), charge = 0, multiplicity = 1:

       Center              X                  Y                   Z               Mass
    ------------   -----------------  -----------------  -----------------  -----------------
         O            3.382191715292    -0.519192217593    -0.157920004762    15.994914619570
         O            1.873615715292     0.257654782407     1.342087995238    15.994914619570
         C           -0.298729284708    -0.323025217593    -0.452941004762    12.000000000000
         C           -0.908874284708     0.926607782407    -0.228701004762    12.000000000000
         C            1.137178715292    -0.421934217593    -0.889575004762    12.000000000000
         C           -1.035131284708    -1.498421217593    -0.267939004762    12.000000000000
         C           -2.248141284708     0.952968782407     0.177560995238    12.000000000000
         C           -0.148822284708     2.214118782407    -0.414279004762    12.000000000000
         C           -2.361031084708    -1.359134817593     0.142043795238    12.000000000000
         C           -2.977348284708    -0.222142217593     0.364721995238    12.000000000000
         C            2.121564715292    -0.182753217593     0.234194995238    12.000000000000
         H            1.374414715292     0.298117782407    -1.683333004762     1.007825032230
         H            1.349026715292    -1.410761217593    -1.311116004762     1.007825032230
         H           -0.555723284708    -2.460002217593    -0.446249004762     1.007825032230
         H           -2.727552284708     1.914788782407     0.351901995238     1.007825032230
         H            0.690517715292     2.275488782407     0.283940995238     1.007825032230
         H            0.249701715292     2.307209782407    -1.431058004762     1.007825032230
         H           -0.802309284708     3.072300782407    -0.236440004762     1.007825032230
         H           -2.925051284708    -2.379523217593     0.280409995238     1.007825032230
         H           -4.016492284708    -0.172171217593     0.681411995238     1.007825032230
         H            3.955952715292    -0.322033217593     0.611508995238     1.007825032230

  Basis Set: AUG-CC-PVTZ
    Blend: AUG-CC-PVTZ
  Basis Set: (AUG-CC-PVTZ AUX)
    Blend: AUG-CC-PVTZ-JKFIT
	 Reference Energy          =    -496.5522603867352700 [Eh]
	 Singles Energy            =      -0.0000000000000000 [Eh]
	 Same-Spin Energy          =      -0.5237767938376214 [Eh]
	 Opposite-Spin Energy      =      -1.6287370328445019 [Eh]
	 Correlation Energy        =      -2.1525138266821235 [Eh]
	 Total Energy              =    -498.7047742134174086 [Eh]

	 ================> DF-SCS-MP2 Energies <==================
	-----------------------------------------------------------
	 SCS Same-Spin Scale       =       0.3333333333333333 [-]
	 SCS Opposite-Spin Scale   =       1.2000000000000000 [-]
	 SCS Same-Spin Energy      =      -0.1745922646125405 [Eh]
	 SCS Opposite-Spin Energy  =      -1.9544844394134022 [Eh]
	 SCS Correlation Energy    =      -2.1290767040259428 [Eh]
	 SCS Total Energy          =    -498.6813370907611898 [Eh]
	-----------------------------------------------------------

  Dipole Moment: [D]
     X:     0.5762      Y:    -0.0738      Z:    -1.2211     Total:     1.3522

*** Psi4 exiting successfully. Buy a developer a beer!
