                               Psi4 1.4a3.dev225

  ==> Input File <==

--------------------------------------------------------------------------
#psi4
#
memory 32 gb

molecule  {
0 1
  O        3.4036770    -0.5312700    -0.1399000
  O        1.8951010     0.2455770     1.3601080
  C       -0.2772440    -0.3351030    -0.4349210
  C       -0.8873890     0.9145300    -0.2106810
  C        1.1586640    -0.4340120    -0.8715550
  C       -1.0136460    -1.5104990    -0.2499190
  C       -2.2266560     0.9408910     0.1955810
  C       -0.1273370     2.2020410    -0.3962590
  C       -2.3465050    -1.4683140     0.1589870
  C       -2.9558630    -0.2342200     0.3827420
  C        2.1471223    -0.2020643     0.2340190
  H        1.3959000     0.2860400    -1.6653130
  H        1.3705120    -1.4228390    -1.2930960
  H       -0.5342380    -2.4720800    -0.4282290
  H       -2.7060670     1.9027110     0.3699220
  H        0.7120030     2.2634110     0.3019610
  H        0.2711870     2.2951320    -1.4130380
  H       -0.7808240     3.0602230    -0.2184200
  H       -2.9035660    -2.3916010     0.2984300
  H       -3.9950070    -0.1842490     0.6994320
  H        3.9774380    -0.3341110     0.6295290
units angstrom
no_reorient  #important for SAPT in psi4, default
symmetry c1  #important for SAPT in psi4, default
}

set PROPERTIES_ORIGIN ["COM"]
properties('MP2/aug-cc-pvtz', properties = ['dipole'])
--------------------------------------------------------------------------

    Molecular point group: c1
  Charge       = 0
  Multiplicity = 1
  Basis Set: AUG-CC-PVTZ
    Blend: AUG-CC-PVTZ
  Basis Set: (AUG-CC-PVTZ AUX)
    Blend: AUG-CC-PVTZ-JKFIT

    Orbital Energies [Eh]
    ---------------------

    Doubly Occupied:

       1A    -20.622149     2A    -20.551136     3A    -11.396312
       4A    -11.259320     5A    -11.244954     6A    -11.243631
       7A    -11.236900     8A    -11.234881     9A    -11.232430
      10A    -11.231061    11A    -11.222488    12A     -1.463678
      13A     -1.350426    14A     -1.161015    15A     -1.072458
      16A     -1.041800    17A     -0.983959    18A     -0.930580
      19A     -0.843818    20A     -0.812744    21A     -0.779698
      22A     -0.707774    23A     -0.689276    24A     -0.678552
      25A     -0.667604    26A     -0.628348    27A     -0.626184
      28A     -0.592763    29A     -0.578223    30A     -0.567121
      31A     -0.565142    32A     -0.550276    33A     -0.540406
      34A     -0.489941    35A     -0.486987    36A     -0.484161
      37A     -0.475804    38A     -0.456514    39A     -0.333681
      40A     -0.323456

  @DF-RHF Final Energy:  -496.56229258395365

   => Energetics <=

    Nuclear Repulsion Energy =            583.4419237723864171
    One-Electron Energy =               -1833.2931338159880852
    Two-Electron Energy =                 753.2889174596480188
    Total Energy =                       -496.5622925839536492
  Basis Set: (AUG-CC-PVTZ AUX)
    Blend: AUG-CC-PVTZ-RI
    Molecular point group: c1

    Geometry (in Angstrom), charge = 0, multiplicity = 1:

       Center              X                  Y                   Z               Mass
    ------------   -----------------  -----------------  -----------------  -----------------
         O            3.382422562519    -0.510849228174    -0.156378880223    15.994914619570
         O            1.873846562519     0.265997771826     1.343629119777    15.994914619570
         C           -0.298498437481    -0.314682228174    -0.451399880223    12.000000000000
         C           -0.908643437481     0.934950771826    -0.227159880223    12.000000000000
         C            1.137409562519    -0.413591228174    -0.888033880223    12.000000000000
         C           -1.034900437481    -1.490078228174    -0.266397880223    12.000000000000
         C           -2.247910437481     0.961311771826     0.179102119777    12.000000000000
         C           -0.148591437481     2.222461771826    -0.412737880223    12.000000000000
         C           -2.367759437481    -1.447893228174     0.142508119777    12.000000000000
         C           -2.977117437481    -0.213799228174     0.366263119777    12.000000000000
         C            2.125867862519    -0.181643528174     0.217540119777    12.000000000000
         H            1.374645562519     0.306460771826    -1.681791880223     1.007825032230
         H            1.349257562519    -1.402418228174    -1.309574880223     1.007825032230
         H           -0.555492437481    -2.451659228174    -0.444707880223     1.007825032230
         H           -2.727321437481     1.923131771826     0.353443119777     1.007825032230
         H            0.690748562519     2.283831771826     0.285482119777     1.007825032230
         H            0.249932562519     2.315552771826    -1.429516880223     1.007825032230
         H           -0.802078437481     3.080643771826    -0.234898880223     1.007825032230
         H           -2.924820437481    -2.371180228174     0.281951119777     1.007825032230
         H           -4.016261437481    -0.163828228174     0.682953119777     1.007825032230
         H            3.956183562519    -0.313690228174     0.613050119777     1.007825032230

  Basis Set: AUG-CC-PVTZ
    Blend: AUG-CC-PVTZ
  Basis Set: (AUG-CC-PVTZ AUX)
    Blend: AUG-CC-PVTZ-JKFIT
	 Reference Energy          =    -496.5622925839536492 [Eh]
	 Singles Energy            =      -0.0000000000000000 [Eh]
	 Same-Spin Energy          =      -0.5240321024060890 [Eh]
	 Opposite-Spin Energy      =      -1.6293244682232817 [Eh]
	 Correlation Energy        =      -2.1533565706293709 [Eh]
	 Total Energy              =    -498.7156491545830477 [Eh]

	 ================> DF-SCS-MP2 Energies <==================
	-----------------------------------------------------------
	 SCS Same-Spin Scale       =       0.3333333333333333 [-]
	 SCS Opposite-Spin Scale   =       1.2000000000000000 [-]
	 SCS Same-Spin Energy      =      -0.1746773674686963 [Eh]
	 SCS Opposite-Spin Energy  =      -1.9551893618679379 [Eh]
	 SCS Correlation Energy    =      -2.1298667293366340 [Eh]
	 SCS Total Energy          =    -498.6921593132902899 [Eh]
	-----------------------------------------------------------

  Dipole Moment: [D]
     X:     0.5956      Y:    -0.1606      Z:    -1.3149     Total:     1.4524

*** Psi4 exiting successfully. Buy a developer a beer!
