                               Psi4 1.4a3.dev225

  ==> Input File <==

--------------------------------------------------------------------------
#psi4
#
memory 32 gb

molecule  {
0 1
  O        3.4036770    -0.5312700    -0.1399000
  O        1.8951010     0.2455770     1.3601080
  C       -0.2772440    -0.3351030    -0.4349210
  C       -0.8873890     0.9145300    -0.2106810
  C        1.1586640    -0.4340120    -0.8715550
  C       -1.0136460    -1.5104990    -0.2499190
  C       -2.2266560     0.9408910     0.1955810
  C       -0.1273370     2.2020410    -0.3962590
  C       -2.3465050    -1.4683140     0.1589870
  C       -2.8760667    -0.2838009     0.3569918
  C        2.1430500    -0.1948310     0.2522150
  H        1.3959000     0.2860400    -1.6653130
  H        1.3705120    -1.4228390    -1.2930960
  H       -0.5342380    -2.4720800    -0.4282290
  H       -2.7060670     1.9027110     0.3699220
  H        0.7120030     2.2634110     0.3019610
  H        0.2711870     2.2951320    -1.4130380
  H       -0.7808240     3.0602230    -0.2184200
  H       -2.9035660    -2.3916010     0.2984300
  H       -3.9950070    -0.1842490     0.6994320
  H        3.9774380    -0.3341110     0.6295290
units angstrom
no_reorient  #important for SAPT in psi4, default
symmetry c1  #important for SAPT in psi4, default
}

set PROPERTIES_ORIGIN ["COM"]
properties('MP2/aug-cc-pvtz', properties = ['dipole'])
--------------------------------------------------------------------------

    Molecular point group: c1
  Charge       = 0
  Multiplicity = 1
  Basis Set: AUG-CC-PVTZ
    Blend: AUG-CC-PVTZ
  Basis Set: (AUG-CC-PVTZ AUX)
    Blend: AUG-CC-PVTZ-JKFIT

    Orbital Energies [Eh]
    ---------------------

    Doubly Occupied:

       1A    -20.618776     2A    -20.554795     3A    -11.394424
       4A    -11.258440     5A    -11.244299     6A    -11.242811
       7A    -11.237250     8A    -11.232484     9A    -11.230353
      10A    -11.222748    11A    -11.222597    12A     -1.462786
      13A     -1.360247    14A     -1.167899    15A     -1.076644
      16A     -1.045032    17A     -0.979108    18A     -0.935530
      19A     -0.840785    20A     -0.814264    21A     -0.773091
      22A     -0.709092    23A     -0.689655    24A     -0.678144
      25A     -0.669566    26A     -0.631019    27A     -0.620577
      28A     -0.596480    29A     -0.577625    30A     -0.569123
      31A     -0.559550    32A     -0.548731    33A     -0.543121
      34A     -0.497783    35A     -0.493506    36A     -0.482850
      37A     -0.466935    38A     -0.457940    39A     -0.333778
      40A     -0.329617

  @DF-RHF Final Energy:  -496.55250544242688

   => Energetics <=

    Nuclear Repulsion Energy =            585.2658381821096327
    One-Electron Energy =               -1836.8977730729170617
    Two-Electron Energy =                 755.0794294483804379
    Total Energy =                       -496.5525054424268774
  Basis Set: (AUG-CC-PVTZ AUX)
    Blend: AUG-CC-PVTZ-RI
    Molecular point group: c1

    Geometry (in Angstrom), charge = 0, multiplicity = 1:

       Center              X                  Y                   Z               Mass
    ------------   -----------------  -----------------  -----------------  -----------------
         O            3.376367390741    -0.507462957080    -0.155774818384    15.994914619570
         O            1.867791390741     0.269384042920     1.344233181616    15.994914619570
         C           -0.304553609259    -0.311295957080    -0.450795818384    12.000000000000
         C           -0.914698609259     0.938337042920    -0.226555818384    12.000000000000
         C            1.131354390741    -0.410204957080    -0.887429818384    12.000000000000
         C           -1.040955609259    -1.486691957080    -0.265793818384    12.000000000000
         C           -2.253965609259     0.964698042920     0.179706181616    12.000000000000
         C           -0.154646609259     2.225848042920    -0.412133818384    12.000000000000
         C           -2.373814609259    -1.444506957080     0.143112181616    12.000000000000
         C           -2.903376309259    -0.259993857080     0.341116981616    12.000000000000
         C            2.115740390741    -0.171023957080     0.236340181616    12.000000000000
         H            1.368590390741     0.309847042920    -1.681187818384     1.007825032230
         H            1.343202390741    -1.399031957080    -1.308970818384     1.007825032230
         H           -0.561547609259    -2.448272957080    -0.444103818384     1.007825032230
         H           -2.733376609259     1.926518042920     0.354047181616     1.007825032230
         H            0.684693390741     2.287218042920     0.286086181616     1.007825032230
         H            0.243877390741     2.318939042920    -1.428912818384     1.007825032230
         H           -0.808133609259     3.084030042920    -0.234294818384     1.007825032230
         H           -2.930875609259    -2.367793957080     0.282555181616     1.007825032230
         H           -4.022316609259    -0.160441957080     0.683557181616     1.007825032230
         H            3.950128390741    -0.310303957080     0.613654181616     1.007825032230

  Basis Set: AUG-CC-PVTZ
    Blend: AUG-CC-PVTZ
  Basis Set: (AUG-CC-PVTZ AUX)
    Blend: AUG-CC-PVTZ-JKFIT
	 Reference Energy          =    -496.5525054424268774 [Eh]
	 Singles Energy            =      -0.0000000000000000 [Eh]
	 Same-Spin Energy          =      -0.5236973450259188 [Eh]
	 Opposite-Spin Energy      =      -1.6286350261855229 [Eh]
	 Correlation Energy        =      -2.1523323712114415 [Eh]
	 Total Energy              =    -498.7048378136383349 [Eh]

	 ================> DF-SCS-MP2 Energies <==================
	-----------------------------------------------------------
	 SCS Same-Spin Scale       =       0.3333333333333333 [-]
	 SCS Opposite-Spin Scale   =       1.2000000000000000 [-]
	 SCS Same-Spin Energy      =      -0.1745657816753063 [Eh]
	 SCS Opposite-Spin Energy  =      -1.9543620314226273 [Eh]
	 SCS Correlation Energy    =      -2.1289278130979334 [Eh]
	 SCS Total Energy          =    -498.6814332555248370 [Eh]
	-----------------------------------------------------------

  Dipole Moment: [D]
     X:     0.5967      Y:    -0.1157      Z:    -1.2305     Total:     1.3725

*** Psi4 exiting successfully. Buy a developer a beer!
