                               Psi4 1.4a3.dev225

  ==> Input File <==

--------------------------------------------------------------------------
#psi4
#
memory 32 gb

molecule  {
0 1
  O        3.4036770    -0.5312700    -0.1399000
  O        1.8951010     0.2455770     1.3601080
  C       -0.2772440    -0.3351030    -0.4349210
  C       -0.8873890     0.9145300    -0.2106810
  C        1.1586640    -0.4340120    -0.8715550
  C       -1.0136460    -1.5104990    -0.2499190
  C       -2.2266560     0.9408910     0.1955810
  C       -0.1273370     2.2020410    -0.3962590
  C       -2.3465050    -1.4683140     0.1589870
  C       -2.9558630    -0.2342200     0.3827420
  C        2.1430500    -0.1948310     0.2522150
  H        1.3959000     0.2860400    -1.6653130
  H        1.3705120    -1.4228390    -1.2930960
  H       -0.5342380    -2.4720800    -0.4282290
  H       -2.7060670     1.9027110     0.3699220
  H        0.7120030     2.2634110     0.3019610
  H        0.2711870     2.2951320    -1.4130380
  H       -0.7808240     3.0602230    -0.2184200
  H       -2.9035660    -2.3916010     0.2984300
  H       -3.9950070    -0.1842490     0.6994320
  H        3.9774380    -0.3341110     0.6295290
units angstrom
no_reorient  #important for SAPT in psi4, default
symmetry c1  #important for SAPT in psi4, default
}

set PROPERTIES_ORIGIN ["COM"]
properties('MP2/aug-cc-pvtz', properties = ['dipole'])
--------------------------------------------------------------------------

    Molecular point group: c1
  Charge       = 0
  Multiplicity = 1
  Basis Set: AUG-CC-PVTZ
    Blend: AUG-CC-PVTZ
  Basis Set: (AUG-CC-PVTZ AUX)
    Blend: AUG-CC-PVTZ-JKFIT

    Orbital Energies [Eh]
    ---------------------

    Doubly Occupied:

       1A    -20.618876     2A    -20.554879     3A    -11.394667
       4A    -11.258642     5A    -11.244591     6A    -11.243417
       7A    -11.236675     8A    -11.234810     9A    -11.232424
      10A    -11.231126    11A    -11.222849    12A     -1.462885
      13A     -1.360322    14A     -1.160805    15A     -1.070670
      16A     -1.041639    17A     -0.981864    18A     -0.930344
      19A     -0.840799    20A     -0.812149    21A     -0.778118
      22A     -0.708855    23A     -0.689195    24A     -0.678530
      25A     -0.666836    26A     -0.627918    27A     -0.625772
      28A     -0.596381    29A     -0.577875    30A     -0.568358
      31A     -0.564836    32A     -0.548835    33A     -0.540584
      34A     -0.491444    35A     -0.486835    36A     -0.483983
      37A     -0.481443    38A     -0.457825    39A     -0.333507
      40A     -0.323437

  @DF-RHF Final Energy:  -496.56442639050482

   => Energetics <=

    Nuclear Repulsion Energy =            583.5315312026785932
    One-Electron Energy =               -1833.4619149920702057
    Two-Electron Energy =                 753.3659573988868488
    Total Energy =                       -496.5644263905048774
  Basis Set: (AUG-CC-PVTZ AUX)
    Blend: AUG-CC-PVTZ-RI
    Molecular point group: c1

    Geometry (in Angstrom), charge = 0, multiplicity = 1:

       Center              X                  Y                   Z               Mass
    ------------   -----------------  -----------------  -----------------  -----------------
         O            3.382748198724    -0.511427629658    -0.157833899842    15.994914619570
         O            1.874172198724     0.265419370342     1.342174100158    15.994914619570
         C           -0.298172801276    -0.315260629658    -0.452854899842    12.000000000000
         C           -0.908317801276     0.934372370342    -0.228614899842    12.000000000000
         C            1.137735198724    -0.414169629658    -0.889488899842    12.000000000000
         C           -1.034574801276    -1.490656629658    -0.267852899842    12.000000000000
         C           -2.247584801276     0.960733370342     0.177647100158    12.000000000000
         C           -0.148265801276     2.221883370342    -0.414192899842    12.000000000000
         C           -2.367433801276    -1.448471629658     0.141053100158    12.000000000000
         C           -2.976791801276    -0.214377629658     0.364808100158    12.000000000000
         C            2.122121198724    -0.174988629658     0.234281100158    12.000000000000
         H            1.374971198724     0.305882370342    -1.683246899842     1.007825032230
         H            1.349583198724    -1.402996629658    -1.311029899842     1.007825032230
         H           -0.555166801276    -2.452237629658    -0.446162899842     1.007825032230
         H           -2.726995801276     1.922553370342     0.351988100158     1.007825032230
         H            0.691074198724     2.283253370342     0.284027100158     1.007825032230
         H            0.250258198724     2.314974370342    -1.430971899842     1.007825032230
         H           -0.801752801276     3.080065370342    -0.236353899842     1.007825032230
         H           -2.924494801276    -2.371758629658     0.280496100158     1.007825032230
         H           -4.015935801276    -0.164406629658     0.681498100158     1.007825032230
         H            3.956509198724    -0.314268629658     0.611595100158     1.007825032230

  Basis Set: AUG-CC-PVTZ
    Blend: AUG-CC-PVTZ
  Basis Set: (AUG-CC-PVTZ AUX)
    Blend: AUG-CC-PVTZ-JKFIT
	 Reference Energy          =    -496.5644263905048206 [Eh]
	 Singles Energy            =      -0.0000000000000000 [Eh]
	 Same-Spin Energy          =      -0.5236451677331118 [Eh]
	 Opposite-Spin Energy      =      -1.6286586888419177 [Eh]
	 Correlation Energy        =      -2.1523038565750294 [Eh]
	 Total Energy              =    -498.7167302470798518 [Eh]

	 ================> DF-SCS-MP2 Energies <==================
	-----------------------------------------------------------
	 SCS Same-Spin Scale       =       0.3333333333333333 [-]
	 SCS Opposite-Spin Scale   =       1.2000000000000000 [-]
	 SCS Same-Spin Energy      =      -0.1745483892443706 [Eh]
	 SCS Opposite-Spin Energy  =      -1.9543904266103012 [Eh]
	 SCS Correlation Energy    =      -2.1289388158546716 [Eh]
	 SCS Total Energy          =    -498.6933652063594877 [Eh]
	-----------------------------------------------------------

  Dipole Moment: [D]
     X:     0.5441      Y:    -0.1152      Z:    -1.2115     Total:     1.3331

*** Psi4 exiting successfully. Buy a developer a beer!
