                               Psi4 1.4a3.dev225

  ==> Input File <==

--------------------------------------------------------------------------
#psi4
#
memory 32 gb

molecule  {
0 1
  O        3.4036770    -0.5312700    -0.1399000
  O        1.8951010     0.2455770     1.3601080
  C       -0.2772440    -0.3351030    -0.4349210
  C       -0.8873890     0.9145300    -0.2106810
  C        1.1586640    -0.4340120    -0.8715550
  C       -1.0136460    -1.5104990    -0.2499190
  C       -2.2266560     0.9408910     0.1955810
  C       -0.1273370     2.2020410    -0.3962590
  C       -2.3465050    -1.4683140     0.1589870
  C       -2.9558630    -0.2342200     0.3827420
  C        2.1430500    -0.1948310     0.2522150
  H        1.3959000     0.2860400    -1.6653130
  H        1.3705120    -1.4228390    -1.2930960
  H       -0.5342380    -2.4720800    -0.4282290
  H       -2.7060670     1.9027110     0.3699220
  H        0.7120030     2.2634110     0.3019610
  H        0.2711870     2.2951320    -1.4130380
  H       -0.7808240     3.0602230    -0.2184200
  H       -2.9035660    -2.3916010     0.2984300
  H       -3.9950070    -0.1842490     0.6994320
  H        4.0945507    -0.2938681     0.7865803
units angstrom
no_reorient  #important for SAPT in psi4, default
symmetry c1  #important for SAPT in psi4, default
}

set PROPERTIES_ORIGIN ["COM"]
properties('MP2/aug-cc-pvtz', properties = ['dipole'])
--------------------------------------------------------------------------

    Molecular point group: c1
  Charge       = 0
  Multiplicity = 1
  Basis Set: AUG-CC-PVTZ
    Blend: AUG-CC-PVTZ
  Basis Set: (AUG-CC-PVTZ AUX)
    Blend: AUG-CC-PVTZ-JKFIT

    Orbital Energies [Eh]
    ---------------------

    Doubly Occupied:

       1A    -20.627430     2A    -20.551308     3A    -11.391101
       4A    -11.257953     5A    -11.243937     6A    -11.242752
       7A    -11.235990     8A    -11.234199     9A    -11.231805
      10A    -11.230501    11A    -11.222092    12A     -1.442762
      13A     -1.343098    14A     -1.159991    15A     -1.068255
      16A     -1.040680    17A     -0.977647    18A     -0.928646
      19A     -0.827240    20A     -0.806922    21A     -0.767666
      22A     -0.692537    23A     -0.684114    24A     -0.672269
      25A     -0.664106    26A     -0.624517    27A     -0.623380
      28A     -0.586014    29A     -0.574233    30A     -0.565315
      31A     -0.560223    32A     -0.545616    33A     -0.539479
      34A     -0.489343    35A     -0.485672    36A     -0.483097
      37A     -0.477576    38A     -0.454533    39A     -0.332794
      40A     -0.322706

  @DF-RHF Final Energy:  -496.52946210066307

   => Energetics <=

    Nuclear Repulsion Energy =            582.4521089420527460
    One-Electron Energy =               -1831.5441449124130031
    Two-Electron Energy =                 752.5625738696971894
    Total Energy =                       -496.5294621006630678
  Basis Set: (AUG-CC-PVTZ AUX)
    Blend: AUG-CC-PVTZ-RI
    Molecular point group: c1

    Geometry (in Angstrom), charge = 0, multiplicity = 1:

       Center              X                  Y                   Z               Mass
    ------------   -----------------  -----------------  -----------------  -----------------
         O            3.381961694952    -0.511697892343    -0.158888622685    15.994914619570
         O            1.873385694952     0.265149107657     1.341119377315    15.994914619570
         C           -0.298959305048    -0.315530892343    -0.453909622685    12.000000000000
         C           -0.909104305048     0.934102107657    -0.229669622685    12.000000000000
         C            1.136948694952    -0.414439892343    -0.890543622685    12.000000000000
         C           -1.035361305048    -1.490926892343    -0.268907622685    12.000000000000
         C           -2.248371305048     0.960463107657     0.176592377315    12.000000000000
         C           -0.149052305048     2.221613107657    -0.415247622685    12.000000000000
         C           -2.368220305048    -1.448741892343     0.139998377315    12.000000000000
         C           -2.977578305048    -0.214647892343     0.363753377315    12.000000000000
         C            2.121334694952    -0.175258892343     0.233226377315    12.000000000000
         H            1.374184694952     0.305612107657    -1.684301622685     1.007825032230
         H            1.348796694952    -1.403266892343    -1.312084622685     1.007825032230
         H           -0.555953305048    -2.452507892343    -0.447217622685     1.007825032230
         H           -2.727782305048     1.922283107657     0.350933377315     1.007825032230
         H            0.690287694952     2.282983107657     0.282972377315     1.007825032230
         H            0.249471694952     2.314704107657    -1.432026622685     1.007825032230
         H           -0.802539305048     3.079795107657    -0.237408622685     1.007825032230
         H           -2.925281305048    -2.372028892343     0.279441377315     1.007825032230
         H           -4.016722305048    -0.164676892343     0.680443377315     1.007825032230
         H            4.072835394952    -0.274295992343     0.767591677315     1.007825032230

  Basis Set: AUG-CC-PVTZ
    Blend: AUG-CC-PVTZ
  Basis Set: (AUG-CC-PVTZ AUX)
    Blend: AUG-CC-PVTZ-JKFIT
	 Reference Energy          =    -496.5294621006630678 [Eh]
	 Singles Energy            =      -0.0000000000000000 [Eh]
	 Same-Spin Energy          =      -0.5261972962952693 [Eh]
	 Opposite-Spin Energy      =      -1.6351999279869787 [Eh]
	 Correlation Energy        =      -2.1613972242822479 [Eh]
	 Total Energy              =    -498.6908593249453361 [Eh]

	 ================> DF-SCS-MP2 Energies <==================
	-----------------------------------------------------------
	 SCS Same-Spin Scale       =       0.3333333333333333 [-]
	 SCS Opposite-Spin Scale   =       1.2000000000000000 [-]
	 SCS Same-Spin Energy      =      -0.1753990987650898 [Eh]
	 SCS Opposite-Spin Energy  =      -1.9622399135843742 [Eh]
	 SCS Correlation Energy    =      -2.1376390123494642 [Eh]
	 SCS Total Energy          =    -498.6671011130125066 [Eh]
	-----------------------------------------------------------

  Dipole Moment: [D]
     X:     0.7128      Y:    -0.0864      Z:    -1.0599     Total:     1.2803

*** Psi4 exiting successfully. Buy a developer a beer!
