                               Psi4 1.4a3.dev225

  ==> Input File <==

--------------------------------------------------------------------------
#psi4
#
memory 32 gb

molecule  {
0 1
  O        3.4036770    -0.5312700    -0.1399000
  O        1.8951010     0.2455770     1.3601080
  C       -0.2772440    -0.3351030    -0.4349210
  C       -0.8873890     0.9145300    -0.2106810
  C        1.1586640    -0.4340120    -0.8715550
  C       -1.0136460    -1.5104990    -0.2499190
  C       -2.2266560     0.9408910     0.1955810
  C       -0.1273370     2.2020410    -0.3962590
  C       -2.3465050    -1.4683140     0.1589870
  C       -2.9558630    -0.2342200     0.3827420
  C        2.1226884    -0.1586647     0.3431952
  H        1.3959000     0.2860400    -1.6653130
  H        1.3705120    -1.4228390    -1.2930960
  H       -0.5342380    -2.4720800    -0.4282290
  H       -2.7060670     1.9027110     0.3699220
  H        0.7120030     2.2634110     0.3019610
  H        0.2711870     2.2951320    -1.4130380
  H       -0.7808240     3.0602230    -0.2184200
  H       -2.9035660    -2.3916010     0.2984300
  H       -3.9950070    -0.1842490     0.6994320
  H        3.9774380    -0.3341110     0.6295290
units angstrom
no_reorient  #important for SAPT in psi4, default
symmetry c1  #important for SAPT in psi4, default
}

set PROPERTIES_ORIGIN ["COM"]
properties('MP2/aug-cc-pvtz', properties = ['dipole'])
--------------------------------------------------------------------------

    Molecular point group: c1
  Charge       = 0
  Multiplicity = 1
  Basis Set: AUG-CC-PVTZ
    Blend: AUG-CC-PVTZ
  Basis Set: (AUG-CC-PVTZ AUX)
    Blend: AUG-CC-PVTZ-JKFIT

    Orbital Energies [Eh]
    ---------------------

    Doubly Occupied:

       1A    -20.601280     2A    -20.573289     3A    -11.385498
       4A    -11.254999     5A    -11.243592     6A    -11.241745
       7A    -11.235549     8A    -11.234420     9A    -11.232419
      10A    -11.231480    11A    -11.224735    12A     -1.498236
      13A     -1.377296    14A     -1.159862    15A     -1.063377
      16A     -1.040662    17A     -0.971523    18A     -0.928812
      19A     -0.828154    20A     -0.808390    21A     -0.771141
      22A     -0.719666    23A     -0.698682    24A     -0.678254
      25A     -0.667657    26A     -0.633223    27A     -0.625542
      28A     -0.607858    29A     -0.577840    30A     -0.571950
      31A     -0.562171    32A     -0.544240    33A     -0.541068
      34A     -0.510655    35A     -0.491801    36A     -0.485374
      37A     -0.483059    38A     -0.453679    39A     -0.332479
      40A     -0.323033

  @DF-RHF Final Energy:  -496.55199456909872

   => Energetics <=

    Nuclear Repulsion Energy =            584.1395314411973914
    One-Electron Energy =               -1834.5536677709519608
    Two-Electron Energy =                 753.8621417606557316
    Total Energy =                       -496.5519945690987242
  Basis Set: (AUG-CC-PVTZ AUX)
    Blend: AUG-CC-PVTZ-RI
    Molecular point group: c1

    Geometry (in Angstrom), charge = 0, multiplicity = 1:

       Center              X                  Y                   Z               Mass
    ------------   -----------------  -----------------  -----------------  -----------------
         O            3.384376387748    -0.514319621088    -0.165109013932    15.994914619570
         O            1.875800387748     0.262527378912     1.334898986068    15.994914619570
         C           -0.296544612252    -0.318152621088    -0.460130013932    12.000000000000
         C           -0.906689612252     0.931480378912    -0.235890013932    12.000000000000
         C            1.139363387748    -0.417061621088    -0.896764013932    12.000000000000
         C           -1.032946612252    -1.493548621088    -0.275128013932    12.000000000000
         C           -2.245956612252     0.957841378912     0.170371986068    12.000000000000
         C           -0.146637612252     2.218991378912    -0.421468013932    12.000000000000
         C           -2.365805612252    -1.451363621088     0.133777986068    12.000000000000
         C           -2.975163612252    -0.217269621088     0.357532986068    12.000000000000
         C            2.103387787748    -0.141714321088     0.317986186068    12.000000000000
         H            1.376599387748     0.302990378912    -1.690522013932     1.007825032230
         H            1.351211387748    -1.405888621088    -1.318305013932     1.007825032230
         H           -0.553538612252    -2.455129621088    -0.453438013932     1.007825032230
         H           -2.725367612252     1.919661378912     0.344712986068     1.007825032230
         H            0.692702387748     2.280361378912     0.276751986068     1.007825032230
         H            0.251886387748     2.312082378912    -1.438247013932     1.007825032230
         H           -0.800124612252     3.077173378912    -0.243629013932     1.007825032230
         H           -2.922866612252    -2.374650621088     0.273220986068     1.007825032230
         H           -4.014307612252    -0.167298621088     0.674222986068     1.007825032230
         H            3.958137387748    -0.317160621088     0.604319986068     1.007825032230

  Basis Set: AUG-CC-PVTZ
    Blend: AUG-CC-PVTZ
  Basis Set: (AUG-CC-PVTZ AUX)
    Blend: AUG-CC-PVTZ-JKFIT
	 Reference Energy          =    -496.5519945690987242 [Eh]
	 Singles Energy            =      -0.0000000000000000 [Eh]
	 Same-Spin Energy          =      -0.5220234653506766 [Eh]
	 Opposite-Spin Energy      =      -1.6258243070397125 [Eh]
	 Correlation Energy        =      -2.1478477723903890 [Eh]
	 Total Energy              =    -498.6998423414891022 [Eh]

	 ================> DF-SCS-MP2 Energies <==================
	-----------------------------------------------------------
	 SCS Same-Spin Scale       =       0.3333333333333333 [-]
	 SCS Opposite-Spin Scale   =       1.2000000000000000 [-]
	 SCS Same-Spin Energy      =      -0.1740078217835588 [Eh]
	 SCS Opposite-Spin Energy  =      -1.9509891684476548 [Eh]
	 SCS Correlation Energy    =      -2.1249969902312138 [Eh]
	 SCS Total Energy          =    -498.6769915593299629 [Eh]
	-----------------------------------------------------------

  Dipole Moment: [D]
     X:     0.2682      Y:     0.1315      Z:    -0.6519     Total:     0.7170

*** Psi4 exiting successfully. Buy a developer a beer!
