                               Psi4 1.4a3.dev225

  ==> Input File <==

--------------------------------------------------------------------------
#psi4
#
memory 32 gb

molecule  {
0 1
  O        3.4036770    -0.5312700    -0.1399000
  O        1.8951010     0.2455770     1.3601080
  C       -0.2772440    -0.3351030    -0.4349210
  C       -0.8873890     0.9145300    -0.2106810
  C        1.1586640    -0.4340120    -0.8715550
  C       -1.0136460    -1.5104990    -0.2499190
  C       -2.2266560     0.9408910     0.1955810
  C       -0.1273370     2.2020410    -0.3962590
  C       -2.3465050    -1.4683140     0.1589870
  C       -2.8349571    -0.3063679     0.3438139
  C        2.1430500    -0.1948310     0.2522150
  H        1.3959000     0.2860400    -1.6653130
  H        1.3705120    -1.4228390    -1.2930960
  H       -0.5342380    -2.4720800    -0.4282290
  H       -2.7060670     1.9027110     0.3699220
  H        0.7120030     2.2634110     0.3019610
  H        0.2711870     2.2951320    -1.4130380
  H       -0.7808240     3.0602230    -0.2184200
  H       -2.9035660    -2.3916010     0.2984300
  H       -3.9950070    -0.1842490     0.6994320
  H        3.9774380    -0.3341110     0.6295290
units angstrom
no_reorient  #important for SAPT in psi4, default
symmetry c1  #important for SAPT in psi4, default
}

set PROPERTIES_ORIGIN ["COM"]
properties('MP2/aug-cc-pvtz', properties = ['dipole'])
--------------------------------------------------------------------------

    Molecular point group: c1
  Charge       = 0
  Multiplicity = 1
  Basis Set: AUG-CC-PVTZ
    Blend: AUG-CC-PVTZ
  Basis Set: (AUG-CC-PVTZ AUX)
    Blend: AUG-CC-PVTZ-JKFIT

    Orbital Energies [Eh]
    ---------------------

    Doubly Occupied:

       1A    -20.618824     2A    -20.554865     3A    -11.394422
       4A    -11.258498     5A    -11.244540     6A    -11.242592
       7A    -11.237878     8A    -11.231839     9A    -11.230435
      10A    -11.222807    11A    -11.217774    12A     -1.462841
      13A     -1.360316    14A     -1.172645    15A     -1.080385
      16A     -1.046738    17A     -0.977941    18A     -0.938489
      19A     -0.841727    20A     -0.814805    21A     -0.770967
      22A     -0.709356    23A     -0.690215    24A     -0.678716
      25A     -0.671097    26A     -0.633057    27A     -0.619001
      28A     -0.596674    29A     -0.581979    30A     -0.569399
      31A     -0.554678    32A     -0.548638    33A     -0.543130
      34A     -0.502295    35A     -0.496405    36A     -0.483307
      37A     -0.459212    38A     -0.453629    39A     -0.338115
      40A     -0.329220

  @DF-RHF Final Energy:  -496.53672278003245

   => Energetics <=

    Nuclear Repulsion Energy =            586.1892951697682292
    One-Electron Energy =               -1838.6931356211143793
    Two-Electron Energy =                 755.9671176713137584
    Total Energy =                       -496.5367227800323917
  Basis Set: (AUG-CC-PVTZ AUX)
    Blend: AUG-CC-PVTZ-RI
    Molecular point group: c1

    Geometry (in Angstrom), charge = 0, multiplicity = 1:

       Center              X                  Y                   Z               Mass
    ------------   -----------------  -----------------  -----------------  -----------------
         O            3.373080114717    -0.505658416095    -0.154721064645    15.994914619570
         O            1.864504114717     0.271188583905     1.345286935355    15.994914619570
         C           -0.307840885283    -0.309491416095    -0.449742064645    12.000000000000
         C           -0.917985885283     0.940141583905    -0.225502064645    12.000000000000
         C            1.128067114717    -0.408400416095    -0.886376064645    12.000000000000
         C           -1.044242885283    -1.484887416095    -0.264740064645    12.000000000000
         C           -2.257252885283     0.966502583905     0.180759935355    12.000000000000
         C           -0.157933885283     2.227652583905    -0.411080064645    12.000000000000
         C           -2.377101885283    -1.442702416095     0.144165935355    12.000000000000
         C           -2.865553985283    -0.280756316095     0.328992835355    12.000000000000
         C            2.112453114717    -0.169219416095     0.237393935355    12.000000000000
         H            1.365303114717     0.311651583905    -1.680134064645     1.007825032230
         H            1.339915114717    -1.397227416095    -1.307917064645     1.007825032230
         H           -0.564834885283    -2.446468416095    -0.443050064645     1.007825032230
         H           -2.736663885283     1.928322583905     0.355100935355     1.007825032230
         H            0.681406114717     2.289022583905     0.287139935355     1.007825032230
         H            0.240590114717     2.320743583905    -1.427859064645     1.007825032230
         H           -0.811420885283     3.085834583905    -0.233241064645     1.007825032230
         H           -2.934162885283    -2.365989416095     0.283608935355     1.007825032230
         H           -4.025603885283    -0.158637416095     0.684610935355     1.007825032230
         H            3.946841114717    -0.308499416095     0.614707935355     1.007825032230

  Basis Set: AUG-CC-PVTZ
    Blend: AUG-CC-PVTZ
  Basis Set: (AUG-CC-PVTZ AUX)
    Blend: AUG-CC-PVTZ-JKFIT
	 Reference Energy          =    -496.5367227800324486 [Eh]
	 Singles Energy            =      -0.0000000000000000 [Eh]
	 Same-Spin Energy          =      -0.5238287466209198 [Eh]
	 Opposite-Spin Energy      =      -1.6290911973648494 [Eh]
	 Correlation Energy        =      -2.1529199439857694 [Eh]
	 Total Energy              =    -498.6896427240181993 [Eh]

	 ================> DF-SCS-MP2 Energies <==================
	-----------------------------------------------------------
	 SCS Same-Spin Scale       =       0.3333333333333333 [-]
	 SCS Opposite-Spin Scale   =       1.2000000000000000 [-]
	 SCS Same-Spin Energy      =      -0.1746095822069733 [Eh]
	 SCS Opposite-Spin Energy  =      -1.9549094368378193 [Eh]
	 SCS Correlation Energy    =      -2.1295190190447926 [Eh]
	 SCS Total Energy          =    -498.6662417990772269 [Eh]
	-----------------------------------------------------------

  Dipole Moment: [D]
     X:     0.6488      Y:    -0.1176      Z:    -1.2475     Total:     1.4111

*** Psi4 exiting successfully. Buy a developer a beer!
