                               Psi4 1.4a3.dev225

  ==> Input File <==

--------------------------------------------------------------------------
#psi4
#
memory 32 gb

molecule  {
0 1
  O        3.4036770    -0.5312700    -0.1399000
  O        1.8951010     0.2455770     1.3601080
  C       -0.2772440    -0.3351030    -0.4349210
  C       -0.8873890     0.9145300    -0.2106810
  C        1.1586640    -0.4340120    -0.8715550
  C       -1.0136460    -1.5104990    -0.2499190
  C       -2.2266560     0.9408910     0.1955810
  C       -0.1273370     2.2020410    -0.3962590
  C       -2.3465050    -1.4683140     0.1589870
  C       -2.9558630    -0.2342200     0.3827420
  C        2.1023268    -0.1224983     0.4341755
  H        1.3959000     0.2860400    -1.6653130
  H        1.3705120    -1.4228390    -1.2930960
  H       -0.5342380    -2.4720800    -0.4282290
  H       -2.7060670     1.9027110     0.3699220
  H        0.7120030     2.2634110     0.3019610
  H        0.2711870     2.2951320    -1.4130380
  H       -0.7808240     3.0602230    -0.2184200
  H       -2.9035660    -2.3916010     0.2984300
  H       -3.9950070    -0.1842490     0.6994320
  H        3.9774380    -0.3341110     0.6295290
units angstrom
no_reorient  #important for SAPT in psi4, default
symmetry c1  #important for SAPT in psi4, default
}

set PROPERTIES_ORIGIN ["COM"]
properties('MP2/aug-cc-pvtz', properties = ['dipole'])
--------------------------------------------------------------------------

    Molecular point group: c1
  Charge       = 0
  Multiplicity = 1
  Basis Set: AUG-CC-PVTZ
    Blend: AUG-CC-PVTZ
  Basis Set: (AUG-CC-PVTZ AUX)
    Blend: AUG-CC-PVTZ-JKFIT

    Orbital Energies [Eh]
    ---------------------

    Doubly Occupied:

       1A    -20.592171     2A    -20.581078     3A    -11.375532
       4A    -11.251121     5A    -11.243083     6A    -11.240095
       7A    -11.234557     8A    -11.233994     9A    -11.232503
      10A    -11.231888    11A    -11.226782    12A     -1.581013
      13A     -1.356282    14A     -1.159170    15A     -1.058662
      16A     -1.039440    17A     -0.962617    18A     -0.926541
      19A     -0.820888    20A     -0.803205    21A     -0.773220
      22A     -0.732888    23A     -0.725172    24A     -0.695787
      25A     -0.675703    26A     -0.645463    27A     -0.626652
      28A     -0.606928    29A     -0.579311    30A     -0.573397
      31A     -0.560366    32A     -0.545656    33A     -0.542119
      34A     -0.508925    35A     -0.494385    36A     -0.484734
      37A     -0.482396    38A     -0.435967    39A     -0.331387
      40A     -0.321617

  @DF-RHF Final Energy:  -496.48272425807414

   => Energetics <=

    Nuclear Repulsion Energy =            585.0952197912914698
    One-Electron Energy =               -1836.1704973476837495
    Two-Electron Energy =                 754.5925532983181938
    Total Energy =                       -496.4827242580741995
  Basis Set: (AUG-CC-PVTZ AUX)
    Blend: AUG-CC-PVTZ-RI
    Molecular point group: c1

    Geometry (in Angstrom), charge = 0, multiplicity = 1:

       Center              X                  Y                   Z               Mass
    ------------   -----------------  -----------------  -----------------  -----------------
         O            3.386004576772    -0.517211620515    -0.172384136017    15.994914619570
         O            1.877428576772     0.259635379485     1.327623863983    15.994914619570
         C           -0.294916423228    -0.321044620515    -0.467405136017    12.000000000000
         C           -0.905061423228     0.928588379485    -0.243165136017    12.000000000000
         C            1.140991576772    -0.419953620515    -0.904039136017    12.000000000000
         C           -1.031318423228    -1.496440620515    -0.282403136017    12.000000000000
         C           -2.244328423228     0.954949379485     0.163096863983    12.000000000000
         C           -0.145009423228     2.216099379485    -0.428743136017    12.000000000000
         C           -2.364177423228    -1.454255620515     0.126502863983    12.000000000000
         C           -2.973535423228    -0.220161620515     0.350257863983    12.000000000000
         C            2.084654376772    -0.108439920515     0.401691363983    12.000000000000
         H            1.378227576772     0.300098379485    -1.697797136017     1.007825032230
         H            1.352839576772    -1.408780620515    -1.325580136017     1.007825032230
         H           -0.551910423228    -2.458021620515    -0.460713136017     1.007825032230
         H           -2.723739423228     1.916769379485     0.337437863983     1.007825032230
         H            0.694330576772     2.277469379485     0.269476863983     1.007825032230
         H            0.253514576772     2.309190379485    -1.445522136017     1.007825032230
         H           -0.798496423228     3.074281379485    -0.250904136017     1.007825032230
         H           -2.921238423228    -2.377542620515     0.265945863983     1.007825032230
         H           -4.012679423228    -0.170190620515     0.666947863983     1.007825032230
         H            3.959765576772    -0.320052620515     0.597044863983     1.007825032230

  Basis Set: AUG-CC-PVTZ
    Blend: AUG-CC-PVTZ
  Basis Set: (AUG-CC-PVTZ AUX)
    Blend: AUG-CC-PVTZ-JKFIT
	 Reference Energy          =    -496.4827242580741427 [Eh]
	 Singles Energy            =      -0.0000000000000000 [Eh]
	 Same-Spin Energy          =      -0.5208879163071320 [Eh]
	 Opposite-Spin Energy      =      -1.6237429995993777 [Eh]
	 Correlation Energy        =      -2.1446309159065100 [Eh]
	 Total Energy              =    -498.6273551739806749 [Eh]

	 ================> DF-SCS-MP2 Energies <==================
	-----------------------------------------------------------
	 SCS Same-Spin Scale       =       0.3333333333333333 [-]
	 SCS Opposite-Spin Scale   =       1.2000000000000000 [-]
	 SCS Same-Spin Energy      =      -0.1736293054357107 [Eh]
	 SCS Opposite-Spin Energy  =      -1.9484915995192531 [Eh]
	 SCS Correlation Energy    =      -2.1221209049549636 [Eh]
	 SCS Total Energy          =    -498.6048451630290970 [Eh]
	-----------------------------------------------------------

  Dipole Moment: [D]
     X:    -0.0377      Y:     0.4076      Z:    -0.0274     Total:     0.4103

*** Psi4 exiting successfully. Buy a developer a beer!
