                               Psi4 1.4a3.dev225

  ==> Input File <==

--------------------------------------------------------------------------
#psi4
#
memory 32 gb

molecule  {
0 1
  O        3.4036770    -0.5312700    -0.1399000
  O        1.8951010     0.2455770     1.3601080
  C       -0.2772440    -0.3351030    -0.4349210
  C       -0.8873890     0.9145300    -0.2106810
  C        1.1586640    -0.4340120    -0.8715550
  C       -1.0136460    -1.5104990    -0.2499190
  C       -2.2266560     0.9408910     0.1955810
  C       -0.1273370     2.2020410    -0.3962590
  C       -2.3465050    -1.4683140     0.1589870
  C       -2.9819885    -0.2763210     0.3894475
  C        2.1430500    -0.1948310     0.2522150
  H        1.3959000     0.2860400    -1.6653130
  H        1.3705120    -1.4228390    -1.2930960
  H       -0.5342380    -2.4720800    -0.4282290
  H       -2.7060670     1.9027110     0.3699220
  H        0.7120030     2.2634110     0.3019610
  H        0.2711870     2.2951320    -1.4130380
  H       -0.7808240     3.0602230    -0.2184200
  H       -2.9035660    -2.3916010     0.2984300
  H       -3.9950070    -0.1842490     0.6994320
  H        3.9774380    -0.3341110     0.6295290
units angstrom
no_reorient  #important for SAPT in psi4, default
symmetry c1  #important for SAPT in psi4, default
}

set PROPERTIES_ORIGIN ["COM"]
properties('MP2/aug-cc-pvtz', properties = ['dipole'])
--------------------------------------------------------------------------

    Molecular point group: c1
  Charge       = 0
  Multiplicity = 1
  Basis Set: AUG-CC-PVTZ
    Blend: AUG-CC-PVTZ
  Basis Set: (AUG-CC-PVTZ AUX)
    Blend: AUG-CC-PVTZ-JKFIT

    Orbital Energies [Eh]
    ---------------------

    Doubly Occupied:

       1A    -20.619035     2A    -20.555060     3A    -11.394906
       4A    -11.258946     5A    -11.245530     6A    -11.243361
       7A    -11.236819     8A    -11.236129     9A    -11.234896
      10A    -11.230473    11A    -11.222722    12A     -1.463056
      13A     -1.360503    14A     -1.159241    15A     -1.070444
      16A     -1.041875    17A     -0.978968    18A     -0.930549
      19A     -0.843319    20A     -0.811028    21A     -0.778400
      22A     -0.708958    23A     -0.689172    24A     -0.679334
      25A     -0.667166    26A     -0.628097    27A     -0.626500
      28A     -0.596392    29A     -0.576231    30A     -0.568610
      31A     -0.566634    32A     -0.548971    33A     -0.540986
      34A     -0.492227    35A     -0.490390    36A     -0.481300
      37A     -0.478068    38A     -0.457897    39A     -0.328142
      40A     -0.327484

  @DF-RHF Final Energy:  -496.56136664254598

   => Energetics <=

    Nuclear Repulsion Energy =            582.9794790996355687
    One-Electron Energy =               -1832.3460546875421642
    Two-Electron Energy =                 752.8052089453605049
    Total Energy =                       -496.5613666425459769
  Basis Set: (AUG-CC-PVTZ AUX)
    Blend: AUG-CC-PVTZ-RI
    Molecular point group: c1

    Geometry (in Angstrom), charge = 0, multiplicity = 1:

       Center              X                  Y                   Z               Mass
    ------------   -----------------  -----------------  -----------------  -----------------
         O            3.384837290561    -0.508061077614    -0.158370096482    15.994914619570
         O            1.876261290561     0.268785922386     1.341637903518    15.994914619570
         C           -0.296083709439    -0.311894077614    -0.453391096482    12.000000000000
         C           -0.906228709439     0.937738922386    -0.229151096482    12.000000000000
         C            1.139824290561    -0.410803077614    -0.890025096482    12.000000000000
         C           -1.032485709439    -1.487290077614    -0.268389096482    12.000000000000
         C           -2.245495709439     0.964099922386     0.177110903518    12.000000000000
         C           -0.146176709439     2.225249922386    -0.414729096482    12.000000000000
         C           -2.365344709439    -1.445105077614     0.140516903518    12.000000000000
         C           -3.000828209439    -0.253112077614     0.370977403518    12.000000000000
         C            2.124210290561    -0.171622077614     0.233744903518    12.000000000000
         H            1.377060290561     0.309248922386    -1.683783096482     1.007825032230
         H            1.351672290561    -1.399630077614    -1.311566096482     1.007825032230
         H           -0.553077709439    -2.448871077614    -0.446699096482     1.007825032230
         H           -2.724906709439     1.925919922386     0.351451903518     1.007825032230
         H            0.693163290561     2.286619922386     0.283490903518     1.007825032230
         H            0.252347290561     2.318340922386    -1.431508096482     1.007825032230
         H           -0.799663709439     3.083431922386    -0.236890096482     1.007825032230
         H           -2.922405709439    -2.368392077614     0.279959903518     1.007825032230
         H           -4.013846709439    -0.161040077614     0.680961903518     1.007825032230
         H            3.958598290561    -0.310902077614     0.611058903518     1.007825032230

  Basis Set: AUG-CC-PVTZ
    Blend: AUG-CC-PVTZ
  Basis Set: (AUG-CC-PVTZ AUX)
    Blend: AUG-CC-PVTZ-JKFIT
	 Reference Energy          =    -496.5613666425459769 [Eh]
	 Singles Energy            =      -0.0000000000000000 [Eh]
	 Same-Spin Energy          =      -0.5235020313033717 [Eh]
	 Opposite-Spin Energy      =      -1.6288669587163314 [Eh]
	 Correlation Energy        =      -2.1523689900197032 [Eh]
	 Total Energy              =    -498.7137356325656583 [Eh]

	 ================> DF-SCS-MP2 Energies <==================
	-----------------------------------------------------------
	 SCS Same-Spin Scale       =       0.3333333333333333 [-]
	 SCS Opposite-Spin Scale   =       1.2000000000000000 [-]
	 SCS Same-Spin Energy      =      -0.1745006771011239 [Eh]
	 SCS Opposite-Spin Energy  =      -1.9546403504595975 [Eh]
	 SCS Correlation Energy    =      -2.1291410275607214 [Eh]
	 SCS Total Energy          =    -498.6905076701066832 [Eh]
	-----------------------------------------------------------

  Dipole Moment: [D]
     X:     0.5417      Y:    -0.1076      Z:    -1.2093     Total:     1.3294

*** Psi4 exiting successfully. Buy a developer a beer!
