                               Psi4 1.4a3.dev225

  ==> Input File <==

--------------------------------------------------------------------------
#psi4
#
memory 32 gb

molecule  {
0 1
  O        3.4036770    -0.5312700    -0.1399000
  O        1.8951010     0.2455770     1.3601080
  C       -0.2772440    -0.3351030    -0.4349210
  C       -1.0132989     1.0033518    -0.1771279
  C        1.1586640    -0.4340120    -0.8715550
  C       -1.0136460    -1.5104990    -0.2499190
  C       -2.2266560     0.9408910     0.1955810
  C       -0.1273370     2.2020410    -0.3962590
  C       -2.3465050    -1.4683140     0.1589870
  C       -2.9558630    -0.2342200     0.3827420
  C        2.1430500    -0.1948310     0.2522150
  H        1.3959000     0.2860400    -1.6653130
  H        1.3705120    -1.4228390    -1.2930960
  H       -0.5342380    -2.4720800    -0.4282290
  H       -2.7060670     1.9027110     0.3699220
  H        0.7120030     2.2634110     0.3019610
  H        0.2711870     2.2951320    -1.4130380
  H       -0.7808240     3.0602230    -0.2184200
  H       -2.9035660    -2.3916010     0.2984300
  H       -3.9950070    -0.1842490     0.6994320
  H        3.9774380    -0.3341110     0.6295290
units angstrom
no_reorient  #important for SAPT in psi4, default
symmetry c1  #important for SAPT in psi4, default
}

set PROPERTIES_ORIGIN ["COM"]
properties('MP2/aug-cc-pvtz', properties = ['dipole'])
--------------------------------------------------------------------------

    Molecular point group: c1
  Charge       = 0
  Multiplicity = 1
  Basis Set: AUG-CC-PVTZ
    Blend: AUG-CC-PVTZ
  Basis Set: (AUG-CC-PVTZ AUX)
    Blend: AUG-CC-PVTZ-JKFIT

    Orbital Energies [Eh]
    ---------------------

    Doubly Occupied:

       1A    -20.619364     2A    -20.555142     3A    -11.395203
       4A    -11.261068     5A    -11.255060     6A    -11.240882
       7A    -11.235195     8A    -11.234788     9A    -11.232960
      10A    -11.223722    11A    -11.215141    12A     -1.463301
      13A     -1.360631    14A     -1.160410    15A     -1.071490
      16A     -1.051334    17A     -0.980052    18A     -0.932577
      19A     -0.847313    20A     -0.791956    21A     -0.786791
      22A     -0.709208    23A     -0.690354    24A     -0.679953
      25A     -0.663822    26A     -0.627728    27A     -0.623732
      28A     -0.595812    29A     -0.588308    30A     -0.571675
      31A     -0.560938    32A     -0.553012    33A     -0.536262
      34A     -0.503775    35A     -0.492507    36A     -0.482360
      37A     -0.458532    38A     -0.450102    39A     -0.352571
      40A     -0.311424

  @DF-RHF Final Energy:  -496.53472778768560

   => Energetics <=

    Nuclear Repulsion Energy =            582.5112352968837968
    One-Electron Energy =               -1831.3590145341643165
    Two-Electron Energy =                 752.3130514495949228
    Total Energy =                       -496.5347277876855969
  Basis Set: (AUG-CC-PVTZ AUX)
    Blend: AUG-CC-PVTZ-RI
    Molecular point group: c1

    Geometry (in Angstrom), charge = 0, multiplicity = 1:

       Center              X                  Y                   Z               Mass
    ------------   -----------------  -----------------  -----------------  -----------------
         O            3.392816421123    -0.518530150082    -0.160516930112    15.994914619570
         O            1.884240421123     0.258316849918     1.339491069888    15.994914619570
         C           -0.288104578877    -0.322363150082    -0.455537930112    12.000000000000
         C           -1.024159478877     1.016091649918    -0.197744830112    12.000000000000
         C            1.147803421123    -0.421272150082    -0.892171930112    12.000000000000
         C           -1.024506578877    -1.497759150082    -0.270535930112    12.000000000000
         C           -2.237516578877     0.953630849918     0.174964069888    12.000000000000
         C           -0.138197578877     2.214780849918    -0.416875930112    12.000000000000
         C           -2.357365578877    -1.455574150082     0.138370069888    12.000000000000
         C           -2.966723578877    -0.221480150082     0.362125069888    12.000000000000
         C            2.132189421123    -0.182091150082     0.231598069888    12.000000000000
         H            1.385039421123     0.298779849918    -1.685929930112     1.007825032230
         H            1.359651421123    -1.410099150082    -1.313712930112     1.007825032230
         H           -0.545098578877    -2.459340150082    -0.448845930112     1.007825032230
         H           -2.716927578877     1.915450849918     0.349305069888     1.007825032230
         H            0.701142421123     2.276150849918     0.281344069888     1.007825032230
         H            0.260326421123     2.307871849918    -1.433654930112     1.007825032230
         H           -0.791684578877     3.072962849918    -0.239036930112     1.007825032230
         H           -2.914426578877    -2.378861150082     0.277813069888     1.007825032230
         H           -4.005867578877    -0.171509150082     0.678815069888     1.007825032230
         H            3.966577421123    -0.321371150082     0.608912069888     1.007825032230

  Basis Set: AUG-CC-PVTZ
    Blend: AUG-CC-PVTZ
  Basis Set: (AUG-CC-PVTZ AUX)
    Blend: AUG-CC-PVTZ-JKFIT
	 Reference Energy          =    -496.5347277876855969 [Eh]
	 Singles Energy            =      -0.0000000000000000 [Eh]
	 Same-Spin Energy          =      -0.5227661186584489 [Eh]
	 Opposite-Spin Energy      =      -1.6295587392930722 [Eh]
	 Correlation Energy        =      -2.1523248579515211 [Eh]
	 Total Energy              =    -498.6870526456370953 [Eh]

	 ================> DF-SCS-MP2 Energies <==================
	-----------------------------------------------------------
	 SCS Same-Spin Scale       =       0.3333333333333333 [-]
	 SCS Opposite-Spin Scale   =       1.2000000000000000 [-]
	 SCS Same-Spin Energy      =      -0.1742553728861496 [Eh]
	 SCS Opposite-Spin Energy  =      -1.9554704871516866 [Eh]
	 SCS Correlation Energy    =      -2.1297258600378361 [Eh]
	 SCS Total Energy          =    -498.6644536477234055 [Eh]
	-----------------------------------------------------------

  Dipole Moment: [D]
     X:     0.6004      Y:    -0.1543      Z:    -1.2279     Total:     1.3755

*** Psi4 exiting successfully. Buy a developer a beer!
