                               Psi4 1.4a3.dev225

  ==> Input File <==

--------------------------------------------------------------------------
#psi4
#
memory 32 gb

molecule  {
0 1
  O        3.4036770    -0.5312700    -0.1399000
  O        1.8951010     0.2455770     1.3601080
  C       -0.2772440    -0.3351030    -0.4349210
  C       -0.8873890     0.9145300    -0.2106810
  C        1.1586640    -0.4340120    -0.8715550
  C       -1.0136460    -1.5104990    -0.2499190
  C       -2.2266560     0.9408910     0.1955810
  C       -0.1273370     2.2020410    -0.3962590
  C       -2.3656167    -1.4677091     0.1648502
  C       -2.9558630    -0.2342200     0.3827420
  C        2.1430500    -0.1948310     0.2522150
  H        1.3959000     0.2860400    -1.6653130
  H        1.3705120    -1.4228390    -1.2930960
  H       -0.5342380    -2.4720800    -0.4282290
  H       -2.7060670     1.9027110     0.3699220
  H        0.7120030     2.2634110     0.3019610
  H        0.2711870     2.2951320    -1.4130380
  H       -0.7808240     3.0602230    -0.2184200
  H       -2.9035660    -2.3916010     0.2984300
  H       -3.9950070    -0.1842490     0.6994320
  H        3.9774380    -0.3341110     0.6295290
units angstrom
no_reorient  #important for SAPT in psi4, default
symmetry c1  #important for SAPT in psi4, default
}

set PROPERTIES_ORIGIN ["COM"]
properties('MP2/aug-cc-pvtz', properties = ['dipole'])
--------------------------------------------------------------------------

    Molecular point group: c1
  Charge       = 0
  Multiplicity = 1
  Basis Set: AUG-CC-PVTZ
    Blend: AUG-CC-PVTZ
  Basis Set: (AUG-CC-PVTZ AUX)
    Blend: AUG-CC-PVTZ-JKFIT

    Orbital Energies [Eh]
    ---------------------

    Doubly Occupied:

       1A    -20.618898     2A    -20.554903     3A    -11.394686
       4A    -11.258706     5A    -11.244809     6A    -11.243660
       7A    -11.238739     8A    -11.234068     9A    -11.232547
      10A    -11.230999    11A    -11.222926    12A     -1.462908
      13A     -1.360348    14A     -1.160037    15A     -1.071225
      16A     -1.040518    17A     -0.981154    18A     -0.930903
      19A     -0.840385    20A     -0.812892    21A     -0.778006
      22A     -0.708923    23A     -0.689248    24A     -0.678631
      25A     -0.666676    26A     -0.628002    27A     -0.626291
      28A     -0.596390    29A     -0.576667    30A     -0.567944
      31A     -0.567172    32A     -0.548570    33A     -0.540510
      34A     -0.491107    35A     -0.487750    36A     -0.483193
      37A     -0.481226    38A     -0.457831    39A     -0.332831
      40A     -0.323605

  @DF-RHF Final Energy:  -496.56393106744406

   => Energetics <=

    Nuclear Repulsion Energy =            583.2849609078831463
    One-Electron Energy =               -1832.9660172607239019
    Two-Electron Energy =                 753.1171252853965825
    Total Energy =                       -496.5639310674440594
  Basis Set: (AUG-CC-PVTZ AUX)
    Blend: AUG-CC-PVTZ-RI
    Molecular point group: c1

    Geometry (in Angstrom), charge = 0, multiplicity = 1:

       Center              X                  Y                   Z               Mass
    ------------   -----------------  -----------------  -----------------  -----------------
         O            3.384276441110    -0.511475999705    -0.158302743051    15.994914619570
         O            1.875700441110     0.265371000295     1.341705256949    15.994914619570
         C           -0.296644558890    -0.315308999705    -0.453323743051    12.000000000000
         C           -0.906789558890     0.934324000295    -0.229083743051    12.000000000000
         C            1.139263441110    -0.414217999705    -0.889957743051    12.000000000000
         C           -1.033046558890    -1.490704999705    -0.268321743051    12.000000000000
         C           -2.246056558890     0.960685000295     0.177178256949    12.000000000000
         C           -0.146737558890     2.221835000295    -0.414661743051    12.000000000000
         C           -2.385017258890    -1.447915099705     0.146447456949    12.000000000000
         C           -2.975263558890    -0.214425999705     0.364339256949    12.000000000000
         C            2.123649441110    -0.175036999705     0.233812256949    12.000000000000
         H            1.376499441110     0.305834000295    -1.683715743051     1.007825032230
         H            1.351111441110    -1.403044999705    -1.311498743051     1.007825032230
         H           -0.553638558890    -2.452285999705    -0.446631743051     1.007825032230
         H           -2.725467558890     1.922505000295     0.351519256949     1.007825032230
         H            0.692602441110     2.283205000295     0.283558256949     1.007825032230
         H            0.251786441110     2.314926000295    -1.431440743051     1.007825032230
         H           -0.800224558890     3.080017000295    -0.236822743051     1.007825032230
         H           -2.922966558890    -2.371806999705     0.280027256949     1.007825032230
         H           -4.014407558890    -0.164454999705     0.681029256949     1.007825032230
         H            3.958037441110    -0.314316999705     0.611126256949     1.007825032230

  Basis Set: AUG-CC-PVTZ
    Blend: AUG-CC-PVTZ
  Basis Set: (AUG-CC-PVTZ AUX)
    Blend: AUG-CC-PVTZ-JKFIT
	 Reference Energy          =    -496.5639310674440594 [Eh]
	 Singles Energy            =      -0.0000000000000000 [Eh]
	 Same-Spin Energy          =      -0.5235835308350525 [Eh]
	 Opposite-Spin Energy      =      -1.6286877143717589 [Eh]
	 Correlation Energy        =      -2.1522712452068111 [Eh]
	 Total Energy              =    -498.7162023126508643 [Eh]

	 ================> DF-SCS-MP2 Energies <==================
	-----------------------------------------------------------
	 SCS Same-Spin Scale       =       0.3333333333333333 [-]
	 SCS Opposite-Spin Scale   =       1.2000000000000000 [-]
	 SCS Same-Spin Energy      =      -0.1745278436116842 [Eh]
	 SCS Opposite-Spin Energy  =      -1.9544252572461105 [Eh]
	 SCS Correlation Energy    =      -2.1289531008577947 [Eh]
	 SCS Total Energy          =    -498.6928841683018732 [Eh]
	-----------------------------------------------------------

  Dipole Moment: [D]
     X:     0.5469      Y:    -0.1198      Z:    -1.2121     Total:     1.3352

*** Psi4 exiting successfully. Buy a developer a beer!
