                               Psi4 1.4a3.dev225

  ==> Input File <==

--------------------------------------------------------------------------
#psi4
#
memory 32 gb

molecule  {
0 1
  O        3.4036770    -0.5312700    -0.1399000
  O        1.8951010     0.2455770     1.3601080
  C       -0.2772440    -0.3351030    -0.4349210
  C       -0.8873890     0.9145300    -0.2106810
  C        1.1586640    -0.4340120    -0.8715550
  C       -1.0136460    -1.5104990    -0.2499190
  C       -2.2266560     0.9408910     0.1955810
  C       -0.1273370     2.2020410    -0.3962590
  C       -2.3942842    -1.4668018     0.1736451
  C       -2.9558630    -0.2342200     0.3827420
  C        2.1430500    -0.1948310     0.2522150
  H        1.3959000     0.2860400    -1.6653130
  H        1.3705120    -1.4228390    -1.2930960
  H       -0.5342380    -2.4720800    -0.4282290
  H       -2.7060670     1.9027110     0.3699220
  H        0.7120030     2.2634110     0.3019610
  H        0.2711870     2.2951320    -1.4130380
  H       -0.7808240     3.0602230    -0.2184200
  H       -2.9035660    -2.3916010     0.2984300
  H       -3.9950070    -0.1842490     0.6994320
  H        3.9774380    -0.3341110     0.6295290
units angstrom
no_reorient  #important for SAPT in psi4, default
symmetry c1  #important for SAPT in psi4, default
}

set PROPERTIES_ORIGIN ["COM"]
properties('MP2/aug-cc-pvtz', properties = ['dipole'])
--------------------------------------------------------------------------

    Molecular point group: c1
  Charge       = 0
  Multiplicity = 1
  Basis Set: AUG-CC-PVTZ
    Blend: AUG-CC-PVTZ
  Basis Set: (AUG-CC-PVTZ AUX)
    Blend: AUG-CC-PVTZ-JKFIT

    Orbital Energies [Eh]
    ---------------------

    Doubly Occupied:

       1A    -20.618928     2A    -20.554938     3A    -11.394710
       4A    -11.258796     5A    -11.245160     6A    -11.244048
       7A    -11.241591     8A    -11.233574     9A    -11.232119
      10A    -11.230742    11A    -11.223053    12A     -1.462940
      13A     -1.360386    14A     -1.159020    15A     -1.072112
      16A     -1.039143    17A     -0.980051    18A     -0.931765
      19A     -0.839757    20A     -0.813938    21A     -0.777916
      22A     -0.709035    23A     -0.689316    24A     -0.678821
      25A     -0.666515    26A     -0.629029    27A     -0.626379
      28A     -0.596407    29A     -0.575398    30A     -0.570536
      31A     -0.567063    32A     -0.548020    33A     -0.540262
      34A     -0.491824    35A     -0.489189    36A     -0.481260
      37A     -0.479625    38A     -0.457831    39A     -0.333442
      40A     -0.322514

  @DF-RHF Final Energy:  -496.56144634439192

   => Energetics <=

    Nuclear Repulsion Energy =            582.9245078060981768
    One-Electron Energy =               -1832.2376057819305970
    Two-Electron Energy =                 752.7516516314406090
    Total Energy =                       -496.5614463443919249
  Basis Set: (AUG-CC-PVTZ AUX)
    Blend: AUG-CC-PVTZ-RI
    Molecular point group: c1

    Geometry (in Angstrom), charge = 0, multiplicity = 1:

       Center              X                  Y                   Z               Mass
    ------------   -----------------  -----------------  -----------------  -----------------
         O            3.386568800691    -0.511548550777    -0.159006015861    15.994914619570
         O            1.877992800691     0.265298449223     1.341001984139    15.994914619570
         C           -0.294352199309    -0.315381550777    -0.454027015861    12.000000000000
         C           -0.904497199309     0.934251449223    -0.229787015861    12.000000000000
         C            1.141555800691    -0.414290550777    -0.890661015861    12.000000000000
         C           -1.030754199309    -1.490777550777    -0.269025015861    12.000000000000
         C           -2.243764199309     0.960612449223     0.176474984139    12.000000000000
         C           -0.144445199309     2.221762449223    -0.415365015861    12.000000000000
         C           -2.411392399309    -1.447080350777     0.154539084139    12.000000000000
         C           -2.972971199309    -0.214498550777     0.363635984139    12.000000000000
         C            2.125941800691    -0.175109550777     0.233108984139    12.000000000000
         H            1.378791800691     0.305761449223    -1.684419015861     1.007825032230
         H            1.353403800691    -1.403117550777    -1.312202015861     1.007825032230
         H           -0.551346199309    -2.452358550777    -0.447335015861     1.007825032230
         H           -2.723175199309     1.922432449223     0.350815984139     1.007825032230
         H            0.694894800691     2.283132449223     0.282854984139     1.007825032230
         H            0.254078800691     2.314853449223    -1.432144015861     1.007825032230
         H           -0.797932199309     3.079944449223    -0.237526015861     1.007825032230
         H           -2.920674199309    -2.371879550777     0.279323984139     1.007825032230
         H           -4.012115199309    -0.164527550777     0.680325984139     1.007825032230
         H            3.960329800691    -0.314389550777     0.610422984139     1.007825032230

  Basis Set: AUG-CC-PVTZ
    Blend: AUG-CC-PVTZ
  Basis Set: (AUG-CC-PVTZ AUX)
    Blend: AUG-CC-PVTZ-JKFIT
	 Reference Energy          =    -496.5614463443919249 [Eh]
	 Singles Energy            =      -0.0000000000000000 [Eh]
	 Same-Spin Energy          =      -0.5234711119587729 [Eh]
	 Opposite-Spin Energy      =      -1.6288172205376437 [Eh]
	 Correlation Energy        =      -2.1522883324964166 [Eh]
	 Total Energy              =    -498.7137346768883504 [Eh]

	 ================> DF-SCS-MP2 Energies <==================
	-----------------------------------------------------------
	 SCS Same-Spin Scale       =       0.3333333333333333 [-]
	 SCS Opposite-Spin Scale   =       1.2000000000000000 [-]
	 SCS Same-Spin Energy      =      -0.1744903706529243 [Eh]
	 SCS Opposite-Spin Energy  =      -1.9545806646451722 [Eh]
	 SCS Correlation Energy    =      -2.1290710352980966 [Eh]
	 SCS Total Energy          =    -498.6905173796900499 [Eh]
	-----------------------------------------------------------

  Dipole Moment: [D]
     X:     0.5515      Y:    -0.1259      Z:    -1.2132     Total:     1.3386

*** Psi4 exiting successfully. Buy a developer a beer!
