                               Psi4 1.4a3.dev225

  ==> Input File <==

--------------------------------------------------------------------------
#psi4
#
memory 32 gb

molecule  {
0 1
  O        3.4036770    -0.5312700    -0.1399000
  O        1.8951010     0.2455770     1.3601080
  C       -0.2772440    -0.3351030    -0.4349210
  C       -0.8873890     0.9145300    -0.2106810
  C        1.1586640    -0.4340120    -0.8715550
  C       -1.0136460    -1.5104990    -0.2499190
  C       -2.2266560     0.9408910     0.1955810
  C       -0.1273370     2.2020410    -0.3962590
  C       -2.3465050    -1.4683140     0.1589870
  C       -3.0603650    -0.4026241     0.4095639
  C        2.1430500    -0.1948310     0.2522150
  H        1.3959000     0.2860400    -1.6653130
  H        1.3705120    -1.4228390    -1.2930960
  H       -0.5342380    -2.4720800    -0.4282290
  H       -2.7060670     1.9027110     0.3699220
  H        0.7120030     2.2634110     0.3019610
  H        0.2711870     2.2951320    -1.4130380
  H       -0.7808240     3.0602230    -0.2184200
  H       -2.9035660    -2.3916010     0.2984300
  H       -3.9950070    -0.1842490     0.6994320
  H        3.9774380    -0.3341110     0.6295290
units angstrom
no_reorient  #important for SAPT in psi4, default
symmetry c1  #important for SAPT in psi4, default
}

set PROPERTIES_ORIGIN ["COM"]
properties('MP2/aug-cc-pvtz', properties = ['dipole'])
--------------------------------------------------------------------------

    Molecular point group: c1
  Charge       = 0
  Multiplicity = 1
  Basis Set: AUG-CC-PVTZ
    Blend: AUG-CC-PVTZ
  Basis Set: (AUG-CC-PVTZ AUX)
    Blend: AUG-CC-PVTZ-JKFIT

    Orbital Energies [Eh]
    ---------------------

    Doubly Occupied:

       1A    -20.619585     2A    -20.555682     3A    -11.395745
       4A    -11.259995     5A    -11.249389     6A    -11.245392
       7A    -11.242040     8A    -11.237229     9A    -11.236319
      10A    -11.225769    11A    -11.222212    12A     -1.463645
      13A     -1.361121    14A     -1.156528    15A     -1.074142
      16A     -1.041435    17A     -0.976115    18A     -0.927834
      19A     -0.850010    20A     -0.808601    21A     -0.780959
      22A     -0.709370    23A     -0.689166    24A     -0.684619
      25A     -0.669827    26A     -0.636165    27A     -0.623723
      28A     -0.596565    29A     -0.583041    30A     -0.568777
      31A     -0.561444    32A     -0.548898    33A     -0.538698
      34A     -0.501510    35A     -0.489350    36A     -0.481211
      37A     -0.458598    38A     -0.449193    39A     -0.342101
      40A     -0.314462

  @DF-RHF Final Energy:  -496.52323857348904

   => Energetics <=

    Nuclear Repulsion Energy =            581.4589400438226221
    One-Electron Energy =               -1829.2114259985860372
    Two-Electron Energy =                 751.2292473812743765
    Total Energy =                       -496.5232385734890386
  Basis Set: (AUG-CC-PVTZ AUX)
    Blend: AUG-CC-PVTZ-RI
    Molecular point group: c1

    Geometry (in Angstrom), charge = 0, multiplicity = 1:

       Center              X                  Y                   Z               Mass
    ------------   -----------------  -----------------  -----------------  -----------------
         O            3.391104566072    -0.497961413486    -0.159978678405    15.994914619570
         O            1.882528566072     0.278885586514     1.340029321595    15.994914619570
         C           -0.289816433928    -0.301794413486    -0.454999678405    12.000000000000
         C           -0.899961433928     0.947838586514    -0.230759678405    12.000000000000
         C            1.146091566072    -0.400703413486    -0.891633678405    12.000000000000
         C           -1.026218433928    -1.477190413486    -0.269997678405    12.000000000000
         C           -2.239228433928     0.974199586514     0.175502321595    12.000000000000
         C           -0.139909433928     2.235349586514    -0.416337678405    12.000000000000
         C           -2.359077433928    -1.435005413486     0.138908321595    12.000000000000
         C           -3.072937433928    -0.369315513486     0.389485221595    12.000000000000
         C            2.130477566072    -0.161522413486     0.232136321595    12.000000000000
         H            1.383327566072     0.319348586514    -1.685391678405     1.007825032230
         H            1.357939566072    -1.389530413486    -1.313174678405     1.007825032230
         H           -0.546810433928    -2.438771413486    -0.448307678405     1.007825032230
         H           -2.718639433928     1.936019586514     0.349843321595     1.007825032230
         H            0.699430566072     2.296719586514     0.281882321595     1.007825032230
         H            0.258614566072     2.328440586514    -1.433116678405     1.007825032230
         H           -0.793396433928     3.093531586514    -0.238498678405     1.007825032230
         H           -2.916138433928    -2.358292413486     0.278351321595     1.007825032230
         H           -4.007579433928    -0.150940413486     0.679353321595     1.007825032230
         H            3.964865566072    -0.300802413486     0.609450321595     1.007825032230

  Basis Set: AUG-CC-PVTZ
    Blend: AUG-CC-PVTZ
  Basis Set: (AUG-CC-PVTZ AUX)
    Blend: AUG-CC-PVTZ-JKFIT
	 Reference Energy          =    -496.5232385734890386 [Eh]
	 Singles Energy            =      -0.0000000000000000 [Eh]
	 Same-Spin Energy          =      -0.5229734182252455 [Eh]
	 Opposite-Spin Energy      =      -1.6310514595426702 [Eh]
	 Correlation Energy        =      -2.1540248777679158 [Eh]
	 Total Energy              =    -498.6772634512569766 [Eh]

	 ================> DF-SCS-MP2 Energies <==================
	-----------------------------------------------------------
	 SCS Same-Spin Scale       =       0.3333333333333333 [-]
	 SCS Opposite-Spin Scale   =       1.2000000000000000 [-]
	 SCS Same-Spin Energy      =      -0.1743244727417485 [Eh]
	 SCS Opposite-Spin Energy  =      -1.9572617514512041 [Eh]
	 SCS Correlation Energy    =      -2.1315862241929526 [Eh]
	 SCS Total Energy          =    -498.6548247976820107 [Eh]
	-----------------------------------------------------------

  Dipole Moment: [D]
     X:     0.5445      Y:    -0.1000      Z:    -1.2057     Total:     1.3267

*** Psi4 exiting successfully. Buy a developer a beer!
