                               Psi4 1.4a3.dev225

  ==> Input File <==

--------------------------------------------------------------------------
#psi4
#
memory 32 gb

molecule  {
0 1
  O        3.4036770    -0.5312700    -0.1399000
  O        1.8951010     0.2455770     1.3601080
  C       -0.2772440    -0.3351030    -0.4349210
  C       -0.8873890     0.9145300    -0.2106810
  C        1.1586640    -0.4340120    -0.8715550
  C       -1.0136460    -1.5104990    -0.2499190
  C       -2.2266560     0.9408910     0.1955810
  C       -0.1273370     2.2020410    -0.3962590
  C       -2.3465050    -1.4683140     0.1589870
  C       -2.9558630    -0.2342200     0.3827420
  C        2.1430500    -0.1948310     0.2522150
  H        1.3959000     0.2860400    -1.6653130
  H        1.3705120    -1.4228390    -1.2930960
  H       -0.5342380    -2.4720800    -0.4282290
  H       -2.6179989     1.7260240     0.3378954
  H        0.7120030     2.2634110     0.3019610
  H        0.2711870     2.2951320    -1.4130380
  H       -0.7808240     3.0602230    -0.2184200
  H       -2.9035660    -2.3916010     0.2984300
  H       -3.9950070    -0.1842490     0.6994320
  H        3.9774380    -0.3341110     0.6295290
units angstrom
no_reorient  #important for SAPT in psi4, default
symmetry c1  #important for SAPT in psi4, default
}

set PROPERTIES_ORIGIN ["COM"]
properties('MP2/aug-cc-pvtz', properties = ['dipole'])
--------------------------------------------------------------------------

    Molecular point group: c1
  Charge       = 0
  Multiplicity = 1
  Basis Set: AUG-CC-PVTZ
    Blend: AUG-CC-PVTZ
  Basis Set: (AUG-CC-PVTZ AUX)
    Blend: AUG-CC-PVTZ-JKFIT

    Orbital Energies [Eh]
    ---------------------

    Doubly Occupied:

       1A    -20.618621     2A    -20.554614     3A    -11.394343
       4A    -11.258013     5A    -11.243240     6A    -11.242027
       7A    -11.236149     8A    -11.233382     9A    -11.231212
      10A    -11.223171    11A    -11.206953    12A     -1.462623
      13A     -1.360064    14A     -1.161492    15A     -1.071896
      16A     -1.044868    17A     -0.985807    18A     -0.932495
      19A     -0.846502    20A     -0.823636    21A     -0.779089
      22A     -0.710471    23A     -0.691198    24A     -0.684107
      25A     -0.668545    26A     -0.642674    27A     -0.627327
      28A     -0.596226    29A     -0.581835    30A     -0.569042
      31A     -0.564324    32A     -0.548767    33A     -0.544996
      34A     -0.492289    35A     -0.490369    36A     -0.483231
      37A     -0.481098    38A     -0.457509    39A     -0.332927
      40A     -0.322436

  @DF-RHF Final Energy:  -496.53024351972374

   => Energetics <=

    Nuclear Repulsion Energy =            584.7211737943656544
    One-Electron Energy =               -1835.7036950916779006
    Two-Electron Energy =                 754.4522777775886198
    Total Energy =                       -496.5302435197237401
  Basis Set: (AUG-CC-PVTZ AUX)
    Blend: AUG-CC-PVTZ-RI
    Molecular point group: c1

    Geometry (in Angstrom), charge = 0, multiplicity = 1:

       Center              X                  Y                   Z               Mass
    ------------   -----------------  -----------------  -----------------  -----------------
         O            3.382156752255    -0.510241037666    -0.157618816066    15.994914619570
         O            1.873580752255     0.266605962334     1.342389183934    15.994914619570
         C           -0.298764247745    -0.314074037666    -0.452639816066    12.000000000000
         C           -0.908909247745     0.935558962334    -0.228399816066    12.000000000000
         C            1.137143752255    -0.412983037666    -0.889273816066    12.000000000000
         C           -1.035166247745    -1.489470037666    -0.267637816066    12.000000000000
         C           -2.248176247745     0.961919962334     0.177862183934    12.000000000000
         C           -0.148857247745     2.223069962334    -0.413977816066    12.000000000000
         C           -2.368025247745    -1.447285037666     0.141268183934    12.000000000000
         C           -2.977383247745    -0.213191037666     0.365023183934    12.000000000000
         C            2.121529752255    -0.173802037666     0.234496183934    12.000000000000
         H            1.374379752255     0.307068962334    -1.683031816066     1.007825032230
         H            1.348991752255    -1.401810037666    -1.310814816066     1.007825032230
         H           -0.555758247745    -2.451051037666    -0.445947816066     1.007825032230
         H           -2.639519147745     1.747052962334     0.320176583934     1.007825032230
         H            0.690482752255     2.284439962334     0.284242183934     1.007825032230
         H            0.249666752255     2.316160962334    -1.430756816066     1.007825032230
         H           -0.802344247745     3.081251962334    -0.236138816066     1.007825032230
         H           -2.925086247745    -2.370572037666     0.280711183934     1.007825032230
         H           -4.016527247745    -0.163220037666     0.681713183934     1.007825032230
         H            3.955917752255    -0.313082037666     0.611810183934     1.007825032230

  Basis Set: AUG-CC-PVTZ
    Blend: AUG-CC-PVTZ
  Basis Set: (AUG-CC-PVTZ AUX)
    Blend: AUG-CC-PVTZ-JKFIT
	 Reference Energy          =    -496.5302435197237401 [Eh]
	 Singles Energy            =      -0.0000000000000000 [Eh]
	 Same-Spin Energy          =      -0.5233786623330374 [Eh]
	 Opposite-Spin Energy      =      -1.6280272018731157 [Eh]
	 Correlation Energy        =      -2.1514058642061533 [Eh]
	 Total Energy              =    -498.6816493839298801 [Eh]

	 ================> DF-SCS-MP2 Energies <==================
	-----------------------------------------------------------
	 SCS Same-Spin Scale       =       0.3333333333333333 [-]
	 SCS Opposite-Spin Scale   =       1.2000000000000000 [-]
	 SCS Same-Spin Energy      =      -0.1744595541110125 [Eh]
	 SCS Opposite-Spin Energy  =      -1.9536326422477388 [Eh]
	 SCS Correlation Energy    =      -2.1280921963587511 [Eh]
	 SCS Total Energy          =    -498.6583357160824903 [Eh]
	-----------------------------------------------------------

  Dipole Moment: [D]
     X:     0.5178      Y:    -0.0631      Z:    -1.2060     Total:     1.3139

*** Psi4 exiting successfully. Buy a developer a beer!
