                               Psi4 1.4a3.dev225

  ==> Input File <==

--------------------------------------------------------------------------
#psi4
#
memory 32 gb

molecule  {
0 1
  O        3.4036770    -0.5312700    -0.1399000
  O        1.8951010     0.2455770     1.3601080
  C       -0.2772440    -0.3351030    -0.4349210
  C       -0.8873890     0.9145300    -0.2106810
  C        1.1586640    -0.4340120    -0.8715550
  C       -1.0136460    -1.5104990    -0.2499190
  C       -2.2257777     0.9652988     0.1961581
  C       -0.1273370     2.2020410    -0.3962590
  C       -2.3465050    -1.4683140     0.1589870
  C       -2.9558630    -0.2342200     0.3827420
  C        2.1430500    -0.1948310     0.2522150
  H        1.3959000     0.2860400    -1.6653130
  H        1.3705120    -1.4228390    -1.2930960
  H       -0.5342380    -2.4720800    -0.4282290
  H       -2.7060670     1.9027110     0.3699220
  H        0.7120030     2.2634110     0.3019610
  H        0.2711870     2.2951320    -1.4130380
  H       -0.7808240     3.0602230    -0.2184200
  H       -2.9035660    -2.3916010     0.2984300
  H       -3.9950070    -0.1842490     0.6994320
  H        3.9774380    -0.3341110     0.6295290
units angstrom
no_reorient  #important for SAPT in psi4, default
symmetry c1  #important for SAPT in psi4, default
}

set PROPERTIES_ORIGIN ["COM"]
properties('MP2/aug-cc-pvtz', properties = ['dipole'])
--------------------------------------------------------------------------

    Molecular point group: c1
  Charge       = 0
  Multiplicity = 1
  Basis Set: AUG-CC-PVTZ
    Blend: AUG-CC-PVTZ
  Basis Set: (AUG-CC-PVTZ AUX)
    Blend: AUG-CC-PVTZ-JKFIT

    Orbital Energies [Eh]
    ---------------------

    Doubly Occupied:

       1A    -20.618858     2A    -20.554845     3A    -11.394621
       4A    -11.258810     5A    -11.244793     6A    -11.243639
       7A    -11.237261     8A    -11.237047     9A    -11.232515
      10A    -11.231574    11A    -11.222175    12A     -1.462860
      13A     -1.360290    14A     -1.159484    15A     -1.069241
      16A     -1.042380    17A     -0.980308    18A     -0.929881
      19A     -0.841291    20A     -0.812951    21A     -0.777728
      22A     -0.708948    23A     -0.688964    24A     -0.677955
      25A     -0.666877    26A     -0.629830    27A     -0.626942
      28A     -0.596289    29A     -0.577632    30A     -0.568309
      31A     -0.564631    32A     -0.548670    33A     -0.540868
      34A     -0.490643    35A     -0.490099    36A     -0.481272
      37A     -0.480844    38A     -0.457681    39A     -0.331766
      40A     -0.323902

  @DF-RHF Final Energy:  -496.56350028739917

   => Energetics <=

    Nuclear Repulsion Energy =            583.2225800383522483
    One-Electron Energy =               -1832.8428164424815350
    Two-Electron Energy =                 753.0567361167300078
    Total Energy =                       -496.5635002873991652
  Basis Set: (AUG-CC-PVTZ AUX)
    Blend: AUG-CC-PVTZ-RI
    Molecular point group: c1

    Geometry (in Angstrom), charge = 0, multiplicity = 1:

       Center              X                  Y                   Z               Mass
    ------------   -----------------  -----------------  -----------------  -----------------
         O            3.382677966600    -0.513379367835    -0.157880046898    15.994914619570
         O            1.874101966600     0.263467632165     1.342127953102    15.994914619570
         C           -0.298243033400    -0.317212367835    -0.452901046898    12.000000000000
         C           -0.908388033400     0.932420632165    -0.228661046898    12.000000000000
         C            1.137664966600    -0.416121367835    -0.889535046898    12.000000000000
         C           -1.034645033400    -1.492608367835    -0.267899046898    12.000000000000
         C           -2.246776733400     0.983189432165     0.178178053102    12.000000000000
         C           -0.148336033400     2.219931632165    -0.414239046898    12.000000000000
         C           -2.367504033400    -1.450423367835     0.141006953102    12.000000000000
         C           -2.976862033400    -0.216329367835     0.364761953102    12.000000000000
         C            2.122050966600    -0.176940367835     0.234234953102    12.000000000000
         H            1.374900966600     0.303930632165    -1.683293046898     1.007825032230
         H            1.349512966600    -1.404948367835    -1.311076046898     1.007825032230
         H           -0.555237033400    -2.454189367835    -0.446209046898     1.007825032230
         H           -2.727066033400     1.920601632165     0.351941953102     1.007825032230
         H            0.691003966600     2.281301632165     0.283980953102     1.007825032230
         H            0.250187966600     2.313022632165    -1.431018046898     1.007825032230
         H           -0.801823033400     3.078113632165    -0.236400046898     1.007825032230
         H           -2.924565033400    -2.373710367835     0.280449953102     1.007825032230
         H           -4.016006033400    -0.166358367835     0.681451953102     1.007825032230
         H            3.956438966600    -0.316220367835     0.611548953102     1.007825032230

  Basis Set: AUG-CC-PVTZ
    Blend: AUG-CC-PVTZ
  Basis Set: (AUG-CC-PVTZ AUX)
    Blend: AUG-CC-PVTZ-JKFIT
	 Reference Energy          =    -496.5635002873991652 [Eh]
	 Singles Energy            =      -0.0000000000000000 [Eh]
	 Same-Spin Energy          =      -0.5235918032840465 [Eh]
	 Opposite-Spin Energy      =      -1.6287824625363831 [Eh]
	 Correlation Energy        =      -2.1523742658204297 [Eh]
	 Total Energy              =    -498.7158745532195780 [Eh]

	 ================> DF-SCS-MP2 Energies <==================
	-----------------------------------------------------------
	 SCS Same-Spin Scale       =       0.3333333333333333 [-]
	 SCS Opposite-Spin Scale   =       1.2000000000000000 [-]
	 SCS Same-Spin Energy      =      -0.1745306010946822 [Eh]
	 SCS Opposite-Spin Energy  =      -1.9545389550436596 [Eh]
	 SCS Correlation Energy    =      -2.1290695561383419 [Eh]
	 SCS Total Energy          =    -498.6925698435375125 [Eh]
	-----------------------------------------------------------

  Dipole Moment: [D]
     X:     0.5391      Y:    -0.1157      Z:    -1.2092     Total:     1.3290

*** Psi4 exiting successfully. Buy a developer a beer!
