                               Psi4 1.4a3.dev225

  ==> Input File <==

--------------------------------------------------------------------------
#psi4
#
memory 32 gb

molecule  {
0 1
  O        3.4036770    -0.5312700    -0.1399000
  O        1.8951010     0.2455770     1.3601080
  C       -0.2772440    -0.3351030    -0.4349210
  C       -0.8873890     0.9145300    -0.2106810
  C        1.1777575    -0.4353272    -0.8773610
  C       -1.0136460    -1.5104990    -0.2499190
  C       -2.2266560     0.9408910     0.1955810
  C       -0.1273370     2.2020410    -0.3962590
  C       -2.3465050    -1.4683140     0.1589870
  C       -2.9558630    -0.2342200     0.3827420
  C        2.1430500    -0.1948310     0.2522150
  H        1.3959000     0.2860400    -1.6653130
  H        1.3705120    -1.4228390    -1.2930960
  H       -0.5342380    -2.4720800    -0.4282290
  H       -2.7060670     1.9027110     0.3699220
  H        0.7120030     2.2634110     0.3019610
  H        0.2711870     2.2951320    -1.4130380
  H       -0.7808240     3.0602230    -0.2184200
  H       -2.9035660    -2.3916010     0.2984300
  H       -3.9950070    -0.1842490     0.6994320
  H        3.9774380    -0.3341110     0.6295290
units angstrom
no_reorient  #important for SAPT in psi4, default
symmetry c1  #important for SAPT in psi4, default
}

set PROPERTIES_ORIGIN ["COM"]
properties('MP2/aug-cc-pvtz', properties = ['dipole'])
--------------------------------------------------------------------------

    Molecular point group: c1
  Charge       = 0
  Multiplicity = 1
  Basis Set: AUG-CC-PVTZ
    Blend: AUG-CC-PVTZ
  Basis Set: (AUG-CC-PVTZ AUX)
    Blend: AUG-CC-PVTZ-JKFIT

    Orbital Energies [Eh]
    ---------------------

    Doubly Occupied:

       1A    -20.618429     2A    -20.555474     3A    -11.394666
       4A    -11.258096     5A    -11.245433     6A    -11.243499
       7A    -11.236539     8A    -11.234591     9A    -11.232336
      10A    -11.231030    11A    -11.222815    12A     -1.463104
      13A     -1.360538    14A     -1.159845    15A     -1.069822
      16A     -1.041475    17A     -0.983113    18A     -0.930294
      19A     -0.839873    20A     -0.811880    21A     -0.778398
      22A     -0.709077    23A     -0.689647    24A     -0.678569
      25A     -0.667485    26A     -0.627946    27A     -0.624423
      28A     -0.596967    29A     -0.577439    30A     -0.569042
      31A     -0.562870    32A     -0.551292    33A     -0.540046
      34A     -0.491483    35A     -0.485981    36A     -0.483157
      37A     -0.481563    38A     -0.459035    39A     -0.333527
      40A     -0.323370

  @DF-RHF Final Energy:  -496.56415839633496

   => Energetics <=

    Nuclear Repulsion Energy =            583.3313538773896880
    One-Electron Energy =               -1833.0626824580876928
    Two-Electron Energy =                 753.1671701843631581
    Total Energy =                       -496.5641583963349603
  Basis Set: (AUG-CC-PVTZ AUX)
    Blend: AUG-CC-PVTZ-RI
    Molecular point group: c1

    Geometry (in Angstrom), charge = 0, multiplicity = 1:

       Center              X                  Y                   Z               Mass
    ------------   -----------------  -----------------  -----------------  -----------------
         O            3.381221411677    -0.511322461390    -0.157369630557    15.994914619570
         O            1.872645411677     0.265524538610     1.342638369443    15.994914619570
         C           -0.299699588323    -0.315155461390    -0.452390630557    12.000000000000
         C           -0.909844588323     0.934477538610    -0.228150630557    12.000000000000
         C            1.155301911677    -0.415379661390    -0.894830630557    12.000000000000
         C           -1.036101588323    -1.490551461390    -0.267388630557    12.000000000000
         C           -2.249111588323     0.960838538610     0.178111369443    12.000000000000
         C           -0.149792588323     2.221988538610    -0.413728630557    12.000000000000
         C           -2.368960588323    -1.448366461390     0.141517369443    12.000000000000
         C           -2.978318588323    -0.214272461390     0.365272369443    12.000000000000
         C            2.120594411677    -0.174883461390     0.234745369443    12.000000000000
         H            1.373444411677     0.305987538610    -1.682782630557     1.007825032230
         H            1.348056411677    -1.402891461390    -1.310565630557     1.007825032230
         H           -0.556693588323    -2.452132461390    -0.445698630557     1.007825032230
         H           -2.728522588323     1.922658538610     0.352452369443     1.007825032230
         H            0.689547411677     2.283358538610     0.284491369443     1.007825032230
         H            0.248731411677     2.315079538610    -1.430507630557     1.007825032230
         H           -0.803279588323     3.080170538610    -0.235889630557     1.007825032230
         H           -2.926021588323    -2.371653461390     0.280960369443     1.007825032230
         H           -4.017462588323    -0.164301461390     0.681962369443     1.007825032230
         H            3.954982411677    -0.314163461390     0.612059369443     1.007825032230

  Basis Set: AUG-CC-PVTZ
    Blend: AUG-CC-PVTZ
  Basis Set: (AUG-CC-PVTZ AUX)
    Blend: AUG-CC-PVTZ-JKFIT
	 Reference Energy          =    -496.5641583963349603 [Eh]
	 Singles Energy            =      -0.0000000000000000 [Eh]
	 Same-Spin Energy          =      -0.5235323313835497 [Eh]
	 Opposite-Spin Energy      =      -1.6286021148144483 [Eh]
	 Correlation Energy        =      -2.1521344461979979 [Eh]
	 Total Energy              =    -498.7162928425329369 [Eh]

	 ================> DF-SCS-MP2 Energies <==================
	-----------------------------------------------------------
	 SCS Same-Spin Scale       =       0.3333333333333333 [-]
	 SCS Opposite-Spin Scale   =       1.2000000000000000 [-]
	 SCS Same-Spin Energy      =      -0.1745107771278499 [Eh]
	 SCS Opposite-Spin Energy  =      -1.9543225377773379 [Eh]
	 SCS Correlation Energy    =      -2.1288333149051879 [Eh]
	 SCS Total Energy          =    -498.6929917112401540 [Eh]
	-----------------------------------------------------------

  Dipole Moment: [D]
     X:     0.5519      Y:    -0.1146      Z:    -1.2145     Total:     1.3389

*** Psi4 exiting successfully. Buy a developer a beer!
