                               Psi4 1.4a3.dev225

  ==> Input File <==

--------------------------------------------------------------------------
#psi4
#
memory 32 gb

molecule  {
0 1
  O        3.4036770    -0.5312700    -0.1399000
  O        1.8951010     0.2455770     1.3601080
  C       -0.2772440    -0.3351030    -0.4349210
  C       -0.8873890     0.9145300    -0.2106810
  C        1.1586640    -0.4340120    -0.8715550
  C       -1.0136460    -1.5104990    -0.2499190
  C       -2.2206983     1.0383998     0.1971453
  C       -0.1273370     2.2020410    -0.3962590
  C       -2.3465050    -1.4683140     0.1589870
  C       -2.9558630    -0.2342200     0.3827420
  C        2.1430500    -0.1948310     0.2522150
  H        1.3959000     0.2860400    -1.6653130
  H        1.3705120    -1.4228390    -1.2930960
  H       -0.5342380    -2.4720800    -0.4282290
  H       -2.7060670     1.9027110     0.3699220
  H        0.7120030     2.2634110     0.3019610
  H        0.2711870     2.2951320    -1.4130380
  H       -0.7808240     3.0602230    -0.2184200
  H       -2.9035660    -2.3916010     0.2984300
  H       -3.9950070    -0.1842490     0.6994320
  H        3.9774380    -0.3341110     0.6295290
units angstrom
no_reorient  #important for SAPT in psi4, default
symmetry c1  #important for SAPT in psi4, default
}

set PROPERTIES_ORIGIN ["COM"]
properties('MP2/aug-cc-pvtz', properties = ['dipole'])
--------------------------------------------------------------------------

    Molecular point group: c1
  Charge       = 0
  Multiplicity = 1
  Basis Set: AUG-CC-PVTZ
    Blend: AUG-CC-PVTZ
  Basis Set: (AUG-CC-PVTZ AUX)
    Blend: AUG-CC-PVTZ-JKFIT

    Orbital Energies [Eh]
    ---------------------

    Doubly Occupied:

       1A    -20.618847     2A    -20.554797     3A    -11.394537
       4A    -11.259388     5A    -11.245809     6A    -11.244606
       7A    -11.243783     8A    -11.239087     9A    -11.233035
      10A    -11.232731    11A    -11.220232    12A     -1.462834
      13A     -1.360247    14A     -1.156334    15A     -1.065621
      16A     -1.044825    17A     -0.976087    18A     -0.928528
      19A     -0.843712    20A     -0.816195    21A     -0.775938
      22A     -0.709366    23A     -0.688517    24A     -0.677562
      25A     -0.667661    26A     -0.642185    27A     -0.624746
      28A     -0.596083    29A     -0.576404    30A     -0.568079
      31A     -0.564042    32A     -0.548707    33A     -0.540644
      34A     -0.499309    35A     -0.487983    36A     -0.479404
      37A     -0.470495    38A     -0.457261    39A     -0.329481
      40A     -0.323051

  @DF-RHF Final Energy:  -496.55108608769308

   => Energetics <=

    Nuclear Repulsion Energy =            582.3597065533040222
    One-Electron Energy =               -1831.0852769206248922
    Two-Electron Energy =                 752.1744842796277908
    Total Energy =                       -496.5510860876930792
  Basis Set: (AUG-CC-PVTZ AUX)
    Blend: AUG-CC-PVTZ-RI
    Molecular point group: c1

    Geometry (in Angstrom), charge = 0, multiplicity = 1:

       Center              X                  Y                   Z               Mass
    ------------   -----------------  -----------------  -----------------  -----------------
         O            3.382271798945    -0.519224794808    -0.157958987069    15.994914619570
         O            1.873695798945     0.257622205192     1.342049012931    15.994914619570
         C           -0.298649201055    -0.323057794808    -0.452979987069    12.000000000000
         C           -0.908794201055     0.926575205192    -0.228739987069    12.000000000000
         C            1.137258798945    -0.421966794808    -0.889613987069    12.000000000000
         C           -1.035051201055    -1.498453794808    -0.267977987069    12.000000000000
         C           -2.242103501055     1.050445005192     0.179086312931    12.000000000000
         C           -0.148742201055     2.214086205192    -0.414317987069    12.000000000000
         C           -2.367910201055    -1.456268794808     0.140928012931    12.000000000000
         C           -2.977268201055    -0.222174794808     0.364683012931    12.000000000000
         C            2.121644798945    -0.182785794808     0.234156012931    12.000000000000
         H            1.374494798945     0.298085205192    -1.683371987069     1.007825032230
         H            1.349106798945    -1.410793794808    -1.311154987069     1.007825032230
         H           -0.555643201055    -2.460034794808    -0.446287987069     1.007825032230
         H           -2.727472201055     1.914756205192     0.351863012931     1.007825032230
         H            0.690597798945     2.275456205192     0.283902012931     1.007825032230
         H            0.249781798945     2.307177205192    -1.431096987069     1.007825032230
         H           -0.802229201055     3.072268205192    -0.236478987069     1.007825032230
         H           -2.924971201055    -2.379555794808     0.280371012931     1.007825032230
         H           -4.016412201055    -0.172203794808     0.681373012931     1.007825032230
         H            3.956032798945    -0.322065794808     0.611470012931     1.007825032230

  Basis Set: AUG-CC-PVTZ
    Blend: AUG-CC-PVTZ
  Basis Set: (AUG-CC-PVTZ AUX)
    Blend: AUG-CC-PVTZ-JKFIT
	 Reference Energy          =    -496.5510860876930792 [Eh]
	 Singles Energy            =      -0.0000000000000000 [Eh]
	 Same-Spin Energy          =      -0.5235409270585503 [Eh]
	 Opposite-Spin Energy      =      -1.6296728270716789 [Eh]
	 Correlation Energy        =      -2.1532137541302294 [Eh]
	 Total Energy              =    -498.7042998418232855 [Eh]

	 ================> DF-SCS-MP2 Energies <==================
	-----------------------------------------------------------
	 SCS Same-Spin Scale       =       0.3333333333333333 [-]
	 SCS Opposite-Spin Scale   =       1.2000000000000000 [-]
	 SCS Same-Spin Energy      =      -0.1745136423528501 [Eh]
	 SCS Opposite-Spin Energy  =      -1.9556073924860147 [Eh]
	 SCS Correlation Energy    =      -2.1301210348388646 [Eh]
	 SCS Total Energy          =    -498.6812071225319301 [Eh]
	-----------------------------------------------------------

  Dipole Moment: [D]
     X:     0.5347      Y:    -0.1305      Z:    -1.2055     Total:     1.3252

*** Psi4 exiting successfully. Buy a developer a beer!
