                               Psi4 1.4a3.dev225

  ==> Input File <==

--------------------------------------------------------------------------
#psi4
#
memory 32 gb

molecule  {
0 1
  O        3.4465440    -0.4922952    -0.0095946
  O        1.8951010     0.2455770     1.3601080
  C       -0.2772440    -0.3351030    -0.4349210
  C       -0.8873890     0.9145300    -0.2106810
  C        1.1586640    -0.4340120    -0.8715550
  C       -1.0136460    -1.5104990    -0.2499190
  C       -2.2266560     0.9408910     0.1955810
  C       -0.1273370     2.2020410    -0.3962590
  C       -2.3465050    -1.4683140     0.1589870
  C       -2.9558630    -0.2342200     0.3827420
  C        2.1430500    -0.1948310     0.2522150
  H        1.3959000     0.2860400    -1.6653130
  H        1.3705120    -1.4228390    -1.2930960
  H       -0.5342380    -2.4720800    -0.4282290
  H       -2.7060670     1.9027110     0.3699220
  H        0.7120030     2.2634110     0.3019610
  H        0.2711870     2.2951320    -1.4130380
  H       -0.7808240     3.0602230    -0.2184200
  H       -2.9035660    -2.3916010     0.2984300
  H       -3.9950070    -0.1842490     0.6994320
  H        3.9774380    -0.3341110     0.6295290
units angstrom
no_reorient  #important for SAPT in psi4, default
symmetry c1  #important for SAPT in psi4, default
}

set PROPERTIES_ORIGIN ["COM"]
properties('MP2/aug-cc-pvtz', properties = ['dipole'])
--------------------------------------------------------------------------

    Molecular point group: c1
  Charge       = 0
  Multiplicity = 1
  Basis Set: AUG-CC-PVTZ
    Blend: AUG-CC-PVTZ
  Basis Set: (AUG-CC-PVTZ AUX)
    Blend: AUG-CC-PVTZ-JKFIT

    Orbital Energies [Eh]
    ---------------------

    Doubly Occupied:

       1A    -20.597229     2A    -20.547918     3A    -11.395290
       4A    -11.265427     5A    -11.247332     6A    -11.245711
       7A    -11.238935     8A    -11.236645     9A    -11.233956
      10A    -11.232562    11A    -11.223812    12A     -1.479254
      13A     -1.362038    14A     -1.162963    15A     -1.074747
      16A     -1.043539    17A     -0.987474    18A     -0.932984
      19A     -0.868179    20A     -0.817294    21A     -0.788735
      22A     -0.708917    23A     -0.692684    24A     -0.679735
      25A     -0.668009    26A     -0.629248    27A     -0.627781
      28A     -0.591284    29A     -0.581208    30A     -0.569261
      31A     -0.566621    32A     -0.553290    33A     -0.541888
      34A     -0.491544    35A     -0.489110    36A     -0.486063
      37A     -0.476701    38A     -0.455006    39A     -0.335605
      40A     -0.325308

  @DF-RHF Final Energy:  -496.54894927756709

   => Energetics <=

    Nuclear Repulsion Energy =            583.8549023338973711
    One-Electron Energy =               -1833.9051333228769636
    Two-Electron Energy =                 753.5012817114125028
    Total Energy =                       -496.5489492775670897
  Basis Set: (AUG-CC-PVTZ AUX)
    Blend: AUG-CC-PVTZ-RI
    Molecular point group: c1

    Geometry (in Angstrom), charge = 0, multiplicity = 1:

       Center              X                  Y                   Z               Mass
    ------------   -----------------  -----------------  -----------------  -----------------
         O            3.421046245706    -0.476606934916    -0.041417021329    15.994914619570
         O            1.869603245706     0.261265265084     1.328285578671    15.994914619570
         C           -0.302741754294    -0.319414734916    -0.466743421329    12.000000000000
         C           -0.912886754294     0.930218265084    -0.242503421329    12.000000000000
         C            1.133166245706    -0.418323734916    -0.903377421329    12.000000000000
         C           -1.039143754294    -1.494810734916    -0.281741421329    12.000000000000
         C           -2.252153754294     0.956579265084     0.163758578671    12.000000000000
         C           -0.152834754294     2.217729265084    -0.428081421329    12.000000000000
         C           -2.372002754294    -1.452625734916     0.127164578671    12.000000000000
         C           -2.981360754294    -0.218531734916     0.350919578671    12.000000000000
         C            2.117552245706    -0.179142734916     0.220392578671    12.000000000000
         H            1.370402245706     0.301728265084    -1.697135421329     1.007825032230
         H            1.345014245706    -1.407150734916    -1.324918421329     1.007825032230
         H           -0.559735754294    -2.456391734916    -0.460051421329     1.007825032230
         H           -2.731564754294     1.918399265084     0.338099578671     1.007825032230
         H            0.686505245706     2.279099265084     0.270138578671     1.007825032230
         H            0.245689245706     2.310820265084    -1.444860421329     1.007825032230
         H           -0.806321754294     3.075911265084    -0.250242421329     1.007825032230
         H           -2.929063754294    -2.375912734916     0.266607578671     1.007825032230
         H           -4.020504754294    -0.168560734916     0.667609578671     1.007825032230
         H            3.951940245706    -0.318422734916     0.597706578671     1.007825032230

  Basis Set: AUG-CC-PVTZ
    Blend: AUG-CC-PVTZ
  Basis Set: (AUG-CC-PVTZ AUX)
    Blend: AUG-CC-PVTZ-JKFIT
	 Reference Energy          =    -496.5489492775670897 [Eh]
	 Singles Energy            =      -0.0000000000000000 [Eh]
	 Same-Spin Energy          =      -0.5213276885443930 [Eh]
	 Opposite-Spin Energy      =      -1.6238158064882153 [Eh]
	 Correlation Energy        =      -2.1451434950326083 [Eh]
	 Total Energy              =    -498.6940927725996744 [Eh]

	 ================> DF-SCS-MP2 Energies <==================
	-----------------------------------------------------------
	 SCS Same-Spin Scale       =       0.3333333333333333 [-]
	 SCS Opposite-Spin Scale   =       1.2000000000000000 [-]
	 SCS Same-Spin Energy      =      -0.1737758961814643 [Eh]
	 SCS Opposite-Spin Energy  =      -1.9485789677858583 [Eh]
	 SCS Correlation Energy    =      -2.1223548639673226 [Eh]
	 SCS Total Energy          =    -498.6713041415343923 [Eh]
	-----------------------------------------------------------

  Dipole Moment: [D]
     X:     0.2393      Y:    -0.1408      Z:    -1.3994     Total:     1.4267

*** Psi4 exiting successfully. Buy a developer a beer!
