                               Psi4 1.4a3.dev225

  ==> Input File <==

--------------------------------------------------------------------------
#psi4
#
memory 32 gb

molecule  {
0 1
  O        3.4036770    -0.5312700    -0.1399000
  O        1.8951010     0.2455770     1.3601080
  C       -0.2772440    -0.3351030    -0.4349210
  C       -0.8873890     0.9145300    -0.2106810
  C        1.1586640    -0.4340120    -0.8715550
  C       -1.0205318    -1.6076080    -0.2507557
  C       -2.2266560     0.9408910     0.1955810
  C       -0.1273370     2.2020410    -0.3962590
  C       -2.3465050    -1.4683140     0.1589870
  C       -2.9558630    -0.2342200     0.3827420
  C        2.1430500    -0.1948310     0.2522150
  H        1.3959000     0.2860400    -1.6653130
  H        1.3705120    -1.4228390    -1.2930960
  H       -0.5342380    -2.4720800    -0.4282290
  H       -2.7060670     1.9027110     0.3699220
  H        0.7120030     2.2634110     0.3019610
  H        0.2711870     2.2951320    -1.4130380
  H       -0.7808240     3.0602230    -0.2184200
  H       -2.9035660    -2.3916010     0.2984300
  H       -3.9950070    -0.1842490     0.6994320
  H        3.9774380    -0.3341110     0.6295290
units angstrom
no_reorient  #important for SAPT in psi4, default
symmetry c1  #important for SAPT in psi4, default
}

set PROPERTIES_ORIGIN ["COM"]
properties('MP2/aug-cc-pvtz', properties = ['dipole'])
--------------------------------------------------------------------------

    Molecular point group: c1
  Charge       = 0
  Multiplicity = 1
  Basis Set: AUG-CC-PVTZ
    Blend: AUG-CC-PVTZ
  Basis Set: (AUG-CC-PVTZ AUX)
    Blend: AUG-CC-PVTZ-JKFIT

    Orbital Energies [Eh]
    ---------------------

    Doubly Occupied:

       1A    -20.618589     2A    -20.554481     3A    -11.394257
       4A    -11.258069     5A    -11.252655     6A    -11.243279
       7A    -11.238754     8A    -11.235476     9A    -11.234421
      10A    -11.233581    11A    -11.223096    12A     -1.462557
      13A     -1.359940    14A     -1.153631    15A     -1.069250
      16A     -1.041940    17A     -0.979602    18A     -0.927117
      19A     -0.844661    20A     -0.816893    21A     -0.772528
      22A     -0.708256    23A     -0.688096    24A     -0.680814
      25A     -0.666891    26A     -0.640524    27A     -0.623503
      28A     -0.595658    29A     -0.580558    30A     -0.569497
      31A     -0.561379    32A     -0.550189    33A     -0.539301
      34A     -0.497031    35A     -0.488160    36A     -0.479537
      37A     -0.472031    38A     -0.457057    39A     -0.330484
      40A     -0.321173

  @DF-RHF Final Energy:  -496.55091348974418

   => Energetics <=

    Nuclear Repulsion Energy =            581.7907025795213940
    One-Electron Energy =               -1829.9533973366569626
    Two-Electron Energy =                 751.6117812673913932
    Total Energy =                       -496.5509134897441754
  Basis Set: (AUG-CC-PVTZ AUX)
    Blend: AUG-CC-PVTZ-RI
    Molecular point group: c1

    Geometry (in Angstrom), charge = 0, multiplicity = 1:

       Center              X                  Y                   Z               Mass
    ------------   -----------------  -----------------  -----------------  -----------------
         O            3.383298812820    -0.503662433999    -0.157766994208    15.994914619570
         O            1.874722812820     0.273184566001     1.342241005792    15.994914619570
         C           -0.297622187180    -0.307495433999    -0.452787994208    12.000000000000
         C           -0.907767187180     0.942137566001    -0.228547994208    12.000000000000
         C            1.138285812820    -0.406404433999    -0.889421994208    12.000000000000
         C           -1.040909987180    -1.580000433999    -0.268622694208    12.000000000000
         C           -2.247034187180     0.968498566001     0.177714005792    12.000000000000
         C           -0.147715187180     2.229648566001    -0.414125994208    12.000000000000
         C           -2.366883187180    -1.440706433999     0.141120005792    12.000000000000
         C           -2.976241187180    -0.206612433999     0.364875005792    12.000000000000
         C            2.122671812820    -0.167223433999     0.234348005792    12.000000000000
         H            1.375521812820     0.313647566001    -1.683179994208     1.007825032230
         H            1.350133812820    -1.395231433999    -1.310962994208     1.007825032230
         H           -0.554616187180    -2.444472433999    -0.446095994208     1.007825032230
         H           -2.726445187180     1.930318566001     0.352055005792     1.007825032230
         H            0.691624812820     2.291018566001     0.284094005792     1.007825032230
         H            0.250808812820     2.322739566001    -1.430904994208     1.007825032230
         H           -0.801202187180     3.087830566001    -0.236286994208     1.007825032230
         H           -2.923944187180    -2.363993433999     0.280563005792     1.007825032230
         H           -4.015385187180    -0.156641433999     0.681565005792     1.007825032230
         H            3.957059812820    -0.306503433999     0.611662005792     1.007825032230

  Basis Set: AUG-CC-PVTZ
    Blend: AUG-CC-PVTZ
  Basis Set: (AUG-CC-PVTZ AUX)
    Blend: AUG-CC-PVTZ-JKFIT
	 Reference Energy          =    -496.5509134897441754 [Eh]
	 Singles Energy            =      -0.0000000000000000 [Eh]
	 Same-Spin Energy          =      -0.5238451646332556 [Eh]
	 Opposite-Spin Energy      =      -1.6297981972650533 [Eh]
	 Correlation Energy        =      -2.1536433618983089 [Eh]
	 Total Energy              =    -498.7045568516425078 [Eh]

	 ================> DF-SCS-MP2 Energies <==================
	-----------------------------------------------------------
	 SCS Same-Spin Scale       =       0.3333333333333333 [-]
	 SCS Opposite-Spin Scale   =       1.2000000000000000 [-]
	 SCS Same-Spin Energy      =      -0.1746150548777519 [Eh]
	 SCS Opposite-Spin Energy  =      -1.9557578367180639 [Eh]
	 SCS Correlation Energy    =      -2.1303728915958158 [Eh]
	 SCS Total Energy          =    -498.6812863813399872 [Eh]
	-----------------------------------------------------------

  Dipole Moment: [D]
     X:     0.5529      Y:    -0.1081      Z:    -1.2159     Total:     1.3401

*** Psi4 exiting successfully. Buy a developer a beer!
