                               Psi4 1.4a3.dev225

  ==> Input File <==

--------------------------------------------------------------------------
#psi4
#
memory 32 gb

molecule  {
0 1
  O        3.4036770    -0.5312700    -0.1399000
  O        1.8951010     0.2455770     1.3601080
  C       -0.2772440    -0.3351030    -0.4349210
  C       -0.8873890     0.9145300    -0.2106810
  C        1.1586640    -0.4340120    -0.8715550
  C       -1.0136460    -1.5104990    -0.2499190
  C       -2.2457914     0.9412676     0.2013857
  C       -0.1273370     2.2020410    -0.3962590
  C       -2.3465050    -1.4683140     0.1589870
  C       -2.9558630    -0.2342200     0.3827420
  C        2.1430500    -0.1948310     0.2522150
  H        1.3959000     0.2860400    -1.6653130
  H        1.3705120    -1.4228390    -1.2930960
  H       -0.5342380    -2.4720800    -0.4282290
  H       -2.7060670     1.9027110     0.3699220
  H        0.7120030     2.2634110     0.3019610
  H        0.2711870     2.2951320    -1.4130380
  H       -0.7808240     3.0602230    -0.2184200
  H       -2.9035660    -2.3916010     0.2984300
  H       -3.9950070    -0.1842490     0.6994320
  H        3.9774380    -0.3341110     0.6295290
units angstrom
no_reorient  #important for SAPT in psi4, default
symmetry c1  #important for SAPT in psi4, default
}

set PROPERTIES_ORIGIN ["COM"]
properties('MP2/aug-cc-pvtz', properties = ['dipole'])
--------------------------------------------------------------------------

    Molecular point group: c1
  Charge       = 0
  Multiplicity = 1
  Basis Set: AUG-CC-PVTZ
    Blend: AUG-CC-PVTZ
  Basis Set: (AUG-CC-PVTZ AUX)
    Blend: AUG-CC-PVTZ-JKFIT

    Orbital Energies [Eh]
    ---------------------

    Doubly Occupied:

       1A    -20.618845     2A    -20.554832     3A    -11.394612
       4A    -11.258598     5A    -11.246228     6A    -11.243630
       7A    -11.236869     8A    -11.233951     9A    -11.232291
      10A    -11.231313    11A    -11.223146    12A     -1.462847
      13A     -1.360275    14A     -1.159727    15A     -1.071275
      16A     -1.040007    17A     -0.983254    18A     -0.929790
      19A     -0.839903    20A     -0.813232    21A     -0.777246
      22A     -0.708865    23A     -0.689176    24A     -0.678725
      25A     -0.666712    26A     -0.628004    27A     -0.626451
      28A     -0.596299    29A     -0.578765    30A     -0.568203
      31A     -0.564175    32A     -0.548524    33A     -0.541723
      34A     -0.491362    35A     -0.487709    36A     -0.482843
      37A     -0.481196    38A     -0.457780    39A     -0.334480
      40A     -0.321635

  @DF-RHF Final Energy:  -496.56383312406342

   => Energetics <=

    Nuclear Repulsion Energy =            583.2469060615103444
    One-Electron Energy =               -1832.8924829878487799
    Two-Electron Energy =                 753.0817438022750139
    Total Energy =                       -496.5638331240634216
  Basis Set: (AUG-CC-PVTZ AUX)
    Blend: AUG-CC-PVTZ-RI
    Molecular point group: c1

    Geometry (in Angstrom), charge = 0, multiplicity = 1:

       Center              X                  Y                   Z               Mass
    ------------   -----------------  -----------------  -----------------  -----------------
         O            3.384278336250    -0.511457743991    -0.158298065174    15.994914619570
         O            1.875702336250     0.265389256009     1.341709934826    15.994914619570
         C           -0.296642663750    -0.315290743991    -0.453319065174    12.000000000000
         C           -0.906787663750     0.934342256009    -0.229079065174    12.000000000000
         C            1.139265336250    -0.414199743991    -0.889953065174    12.000000000000
         C           -1.033044663750    -1.490686743991    -0.268317065174    12.000000000000
         C           -2.265190063750     0.961079856009     0.182987634826    12.000000000000
         C           -0.146735663750     2.221853256009    -0.414657065174    12.000000000000
         C           -2.365903663750    -1.448501743991     0.140588934826    12.000000000000
         C           -2.975261663750    -0.214407743991     0.364343934826    12.000000000000
         C            2.123651336250    -0.175018743991     0.233816934826    12.000000000000
         H            1.376501336250     0.305852256009    -1.683711065174     1.007825032230
         H            1.351113336250    -1.403026743991    -1.311494065174     1.007825032230
         H           -0.553636663750    -2.452267743991    -0.446627065174     1.007825032230
         H           -2.725465663750     1.922523256009     0.351523934826     1.007825032230
         H            0.692604336250     2.283223256009     0.283562934826     1.007825032230
         H            0.251788336250     2.314944256009    -1.431436065174     1.007825032230
         H           -0.800222663750     3.080035256009    -0.236818065174     1.007825032230
         H           -2.922964663750    -2.371788743991     0.280031934826     1.007825032230
         H           -4.014405663750    -0.164436743991     0.681033934826     1.007825032230
         H            3.958039336250    -0.314298743991     0.611130934826     1.007825032230

  Basis Set: AUG-CC-PVTZ
    Blend: AUG-CC-PVTZ
  Basis Set: (AUG-CC-PVTZ AUX)
    Blend: AUG-CC-PVTZ-JKFIT
	 Reference Energy          =    -496.5638331240634216 [Eh]
	 Singles Energy            =      -0.0000000000000000 [Eh]
	 Same-Spin Energy          =      -0.5236525681126072 [Eh]
	 Opposite-Spin Energy      =      -1.6286855730383396 [Eh]
	 Correlation Energy        =      -2.1523381411509468 [Eh]
	 Total Energy              =    -498.7161712652143706 [Eh]

	 ================> DF-SCS-MP2 Energies <==================
	-----------------------------------------------------------
	 SCS Same-Spin Scale       =       0.3333333333333333 [-]
	 SCS Opposite-Spin Scale   =       1.2000000000000000 [-]
	 SCS Same-Spin Energy      =      -0.1745508560375357 [Eh]
	 SCS Opposite-Spin Energy  =      -1.9544226876460074 [Eh]
	 SCS Correlation Energy    =      -2.1289735436835429 [Eh]
	 SCS Total Energy          =    -498.6928066677469360 [Eh]
	-----------------------------------------------------------

  Dipole Moment: [D]
     X:     0.5484      Y:    -0.1035      Z:    -1.2118     Total:     1.3342

*** Psi4 exiting successfully. Buy a developer a beer!
