                               Psi4 1.4a3.dev225

  ==> Input File <==

--------------------------------------------------------------------------
#psi4
#
memory 32 gb

molecule  {
0 1
  O        3.3673906    -0.5552301    -0.2244699
  O        1.8951010     0.2455770     1.3601080
  C       -0.2772440    -0.3351030    -0.4349210
  C       -0.8873890     0.9145300    -0.2106810
  C        1.1586640    -0.4340120    -0.8715550
  C       -1.0136460    -1.5104990    -0.2499190
  C       -2.2266560     0.9408910     0.1955810
  C       -0.1273370     2.2020410    -0.3962590
  C       -2.3465050    -1.4683140     0.1589870
  C       -2.9558630    -0.2342200     0.3827420
  C        2.1430500    -0.1948310     0.2522150
  H        1.3959000     0.2860400    -1.6653130
  H        1.3705120    -1.4228390    -1.2930960
  H       -0.5342380    -2.4720800    -0.4282290
  H       -2.7060670     1.9027110     0.3699220
  H        0.7120030     2.2634110     0.3019610
  H        0.2711870     2.2951320    -1.4130380
  H       -0.7808240     3.0602230    -0.2184200
  H       -2.9035660    -2.3916010     0.2984300
  H       -3.9950070    -0.1842490     0.6994320
  H        3.9774380    -0.3341110     0.6295290
units angstrom
no_reorient  #important for SAPT in psi4, default
symmetry c1  #important for SAPT in psi4, default
}

set PROPERTIES_ORIGIN ["COM"]
properties('MP2/aug-cc-pvtz', properties = ['dipole'])
--------------------------------------------------------------------------

    Molecular point group: c1
  Charge       = 0
  Multiplicity = 1
  Basis Set: AUG-CC-PVTZ
    Blend: AUG-CC-PVTZ
  Basis Set: (AUG-CC-PVTZ AUX)
    Blend: AUG-CC-PVTZ-JKFIT

    Orbital Energies [Eh]
    ---------------------

    Doubly Occupied:

       1A    -20.630369     2A    -20.559771     3A    -11.395526
       4A    -11.254416     5A    -11.242961     6A    -11.241767
       7A    -11.235235     8A    -11.233647     9A    -11.231451
      10A    -11.230218    11A    -11.222270    12A     -1.455997
      13A     -1.360936    14A     -1.159418    15A     -1.068094
      16A     -1.040432    17A     -0.978778    18A     -0.928955
      19A     -0.831333    20A     -0.808569    21A     -0.770820
      22A     -0.707313    23A     -0.686472    24A     -0.676602
      25A     -0.666286    26A     -0.628023    27A     -0.623822
      28A     -0.597062    29A     -0.575402    30A     -0.568176
      31A     -0.561757    32A     -0.545525    33A     -0.539706
      34A     -0.492708    35A     -0.485476    36A     -0.483619
      37A     -0.482259    38A     -0.458410    39A     -0.332179
      40A     -0.322206

  @DF-RHF Final Energy:  -496.54881011736484

   => Energetics <=

    Nuclear Repulsion Energy =            583.5278656986688475
    One-Electron Energy =               -1833.5254184779892057
    Two-Electron Energy =                 753.4487426619555208
    Total Energy =                       -496.5488101173648374
  Basis Set: (AUG-CC-PVTZ AUX)
    Blend: AUG-CC-PVTZ-RI
    Molecular point group: c1

    Geometry (in Angstrom), charge = 0, multiplicity = 1:

       Center              X                  Y                   Z               Mass
    ------------   -----------------  -----------------  -----------------  -----------------
         O            3.350329362509    -0.532833957031    -0.233389968694    15.994914619570
         O            1.878039762509     0.267973142969     1.351187931306    15.994914619570
         C           -0.294305237491    -0.312706857031    -0.443841068694    12.000000000000
         C           -0.904450237491     0.936926142969    -0.219601068694    12.000000000000
         C            1.141602762509    -0.411615857031    -0.880475068694    12.000000000000
         C           -1.030707237491    -1.488102857031    -0.258839068694    12.000000000000
         C           -2.243717237491     0.963287142969     0.186660931306    12.000000000000
         C           -0.144398237491     2.224437142969    -0.405179068694    12.000000000000
         C           -2.363566237491    -1.445917857031     0.150066931306    12.000000000000
         C           -2.972924237491    -0.211823857031     0.373821931306    12.000000000000
         C            2.125988762509    -0.172434857031     0.243294931306    12.000000000000
         H            1.378838762509     0.308436142969    -1.674233068694     1.007825032230
         H            1.353450762509    -1.400442857031    -1.302016068694     1.007825032230
         H           -0.551299237491    -2.449683857031    -0.437149068694     1.007825032230
         H           -2.723128237491     1.925107142969     0.361001931306     1.007825032230
         H            0.694941762509     2.285807142969     0.293040931306     1.007825032230
         H            0.254125762509     2.317528142969    -1.421958068694     1.007825032230
         H           -0.797885237491     3.082619142969    -0.227340068694     1.007825032230
         H           -2.920627237491    -2.369204857031     0.289509931306     1.007825032230
         H           -4.012068237491    -0.161852857031     0.690511931306     1.007825032230
         H            3.960376762509    -0.311714857031     0.620608931306     1.007825032230

  Basis Set: AUG-CC-PVTZ
    Blend: AUG-CC-PVTZ
  Basis Set: (AUG-CC-PVTZ AUX)
    Blend: AUG-CC-PVTZ-JKFIT
	 Reference Energy          =    -496.5488101173648374 [Eh]
	 Singles Energy            =      -0.0000000000000000 [Eh]
	 Same-Spin Energy          =      -0.5255731610347419 [Eh]
	 Opposite-Spin Energy      =      -1.6329106218629210 [Eh]
	 Correlation Energy        =      -2.1584837828976631 [Eh]
	 Total Energy              =    -498.7072939002625276 [Eh]

	 ================> DF-SCS-MP2 Energies <==================
	-----------------------------------------------------------
	 SCS Same-Spin Scale       =       0.3333333333333333 [-]
	 SCS Opposite-Spin Scale   =       1.2000000000000000 [-]
	 SCS Same-Spin Energy      =      -0.1751910536782473 [Eh]
	 SCS Opposite-Spin Energy  =      -1.9594927462355052 [Eh]
	 SCS Correlation Energy    =      -2.1346837999137525 [Eh]
	 SCS Total Energy          =    -498.6834939172786108 [Eh]
	-----------------------------------------------------------

  Dipole Moment: [D]
     X:     0.7186      Y:    -0.0991      Z:    -1.1016     Total:     1.3190

*** Psi4 exiting successfully. Buy a developer a beer!
