                               Psi4 1.4a3.dev225

  ==> Input File <==

--------------------------------------------------------------------------
#psi4
#
memory 32 gb

molecule  {
0 1
  O        3.4036770    -0.5312700    -0.1399000
  O        1.8951010     0.2455770     1.3601080
  C       -0.2772440    -0.3351030    -0.4349210
  C       -0.8873890     0.9145300    -0.2106810
  C        1.1586640    -0.4340120    -0.8715550
  C       -1.0136460    -1.5104990    -0.2499190
  C       -2.2266560     0.9408910     0.1955810
  C       -0.1273370     2.2020410    -0.3962590
  C       -2.3465050    -1.4683140     0.1589870
  C       -2.9558630    -0.2342200     0.3827420
  C        2.1430500    -0.1948310     0.2522150
  H        1.3959000     0.2860400    -1.6653130
  H        1.3898481    -1.5130928    -1.3315716
  H       -0.5342380    -2.4720800    -0.4282290
  H       -2.7060670     1.9027110     0.3699220
  H        0.7120030     2.2634110     0.3019610
  H        0.2711870     2.2951320    -1.4130380
  H       -0.7808240     3.0602230    -0.2184200
  H       -2.9035660    -2.3916010     0.2984300
  H       -3.9950070    -0.1842490     0.6994320
  H        3.9774380    -0.3341110     0.6295290
units angstrom
no_reorient  #important for SAPT in psi4, default
symmetry c1  #important for SAPT in psi4, default
}

set PROPERTIES_ORIGIN ["COM"]
properties('MP2/aug-cc-pvtz', properties = ['dipole'])
--------------------------------------------------------------------------

    Molecular point group: c1
  Charge       = 0
  Multiplicity = 1
  Basis Set: AUG-CC-PVTZ
    Blend: AUG-CC-PVTZ
  Basis Set: (AUG-CC-PVTZ AUX)
    Blend: AUG-CC-PVTZ-JKFIT

    Orbital Energies [Eh]
    ---------------------

    Doubly Occupied:

       1A    -20.618529     2A    -20.555382     3A    -11.395342
       4A    -11.269439     5A    -11.245220     6A    -11.244031
       7A    -11.236719     8A    -11.235030     9A    -11.232497
      10A    -11.231401    11A    -11.223266    12A     -1.462814
      13A     -1.360522    14A     -1.160705    15A     -1.067894
      16A     -1.041263    17A     -0.979863    18A     -0.930561
      19A     -0.840829    20A     -0.810805    21A     -0.776596
      22A     -0.708448    23A     -0.687683    24A     -0.678054
      25A     -0.662548    26A     -0.628019    27A     -0.624794
      28A     -0.596556    29A     -0.578033    30A     -0.567785
      31A     -0.563468    32A     -0.541124    33A     -0.537787
      34A     -0.491616    35A     -0.486829    36A     -0.484188
      37A     -0.481203    38A     -0.457491    39A     -0.333594
      40A     -0.323774

  @DF-RHF Final Energy:  -496.55745475641169

   => Energetics <=

    Nuclear Repulsion Energy =            583.0260543394183514
    One-Electron Energy =               -1832.4636207496937459
    Two-Electron Energy =                 752.8801116538636506
    Total Energy =                       -496.5574547564117438
  Basis Set: (AUG-CC-PVTZ AUX)
    Blend: AUG-CC-PVTZ-RI
    Molecular point group: c1

    Geometry (in Angstrom), charge = 0, multiplicity = 1:

       Center              X                  Y                   Z               Mass
    ------------   -----------------  -----------------  -----------------  -----------------
         O            3.382618341624    -0.510821504497    -0.157575505966    15.994914619570
         O            1.874042341624     0.266025495503     1.342432494034    15.994914619570
         C           -0.298302658376    -0.314654504497    -0.452596505966    12.000000000000
         C           -0.908447658376     0.934978495503    -0.228356505966    12.000000000000
         C            1.137605341624    -0.413563504497    -0.889230505966    12.000000000000
         C           -1.034704658376    -1.490050504497    -0.267594505966    12.000000000000
         C           -2.247714658376     0.961339495503     0.177905494034    12.000000000000
         C           -0.148395658376     2.222489495503    -0.413934505966    12.000000000000
         C           -2.367563658376    -1.447865504497     0.141311494034    12.000000000000
         C           -2.976921658376    -0.213771504497     0.365066494034    12.000000000000
         C            2.121991341624    -0.174382504497     0.234539494034    12.000000000000
         H            1.374841341624     0.306488495503    -1.682988505966     1.007825032230
         H            1.368789441624    -1.492644304497    -1.349247105966     1.007825032230
         H           -0.555296658376    -2.451631504497    -0.445904505966     1.007825032230
         H           -2.727125658376     1.923159495503     0.352246494034     1.007825032230
         H            0.690944341624     2.283859495503     0.284285494034     1.007825032230
         H            0.250128341624     2.315580495503    -1.430713505966     1.007825032230
         H           -0.801882658376     3.080671495503    -0.236095505966     1.007825032230
         H           -2.924624658376    -2.371152504497     0.280754494034     1.007825032230
         H           -4.016065658376    -0.163800504497     0.681756494034     1.007825032230
         H            3.956379341624    -0.313662504497     0.611853494034     1.007825032230

  Basis Set: AUG-CC-PVTZ
    Blend: AUG-CC-PVTZ
  Basis Set: (AUG-CC-PVTZ AUX)
    Blend: AUG-CC-PVTZ-JKFIT
	 Reference Energy          =    -496.5574547564116870 [Eh]
	 Singles Energy            =      -0.0000000000000000 [Eh]
	 Same-Spin Energy          =      -0.5238436531873734 [Eh]
	 Opposite-Spin Energy      =      -1.6296339628563046 [Eh]
	 Correlation Energy        =      -2.1534776160436779 [Eh]
	 Total Energy              =    -498.7109323724553747 [Eh]

	 ================> DF-SCS-MP2 Energies <==================
	-----------------------------------------------------------
	 SCS Same-Spin Scale       =       0.3333333333333333 [-]
	 SCS Opposite-Spin Scale   =       1.2000000000000000 [-]
	 SCS Same-Spin Energy      =      -0.1746145510624578 [Eh]
	 SCS Opposite-Spin Energy  =      -1.9555607554275654 [Eh]
	 SCS Correlation Energy    =      -2.1301753064900231 [Eh]
	 SCS Total Energy          =    -498.6876300629016896 [Eh]
	-----------------------------------------------------------

  Dipole Moment: [D]
     X:     0.5210      Y:    -0.0969      Z:    -1.1940     Total:     1.3063

*** Psi4 exiting successfully. Buy a developer a beer!
