                               Psi4 1.4a3.dev225

  ==> Input File <==

--------------------------------------------------------------------------
#psi4
#
memory 32 gb

molecule  {
0 1
  O        3.4036770    -0.5312700    -0.1399000
  O        1.8951010     0.2455770     1.3601080
  C       -0.2772440    -0.3351030    -0.4349210
  C       -0.8873890     0.9145300    -0.2106810
  C        1.1586640    -0.4340120    -0.8715550
  C       -1.0136460    -1.5104990    -0.2499190
  C       -2.2266560     0.9408910     0.1955810
  C       -0.1273370     2.2020410    -0.3962590
  C       -2.3465050    -1.4683140     0.1589870
  C       -2.9558630    -0.2342200     0.3827420
  C        2.1430500    -0.1948310     0.2522150
  H        1.3959000     0.2860400    -1.6653130
  H        1.3705120    -1.4228390    -1.2930960
  H       -0.5342380    -2.4720800    -0.4282290
  H       -2.7501011     1.9910545     0.3859353
  H        0.7120030     2.2634110     0.3019610
  H        0.2711870     2.2951320    -1.4130380
  H       -0.7808240     3.0602230    -0.2184200
  H       -2.9035660    -2.3916010     0.2984300
  H       -3.9950070    -0.1842490     0.6994320
  H        3.9774380    -0.3341110     0.6295290
units angstrom
no_reorient  #important for SAPT in psi4, default
symmetry c1  #important for SAPT in psi4, default
}

set PROPERTIES_ORIGIN ["COM"]
properties('MP2/aug-cc-pvtz', properties = ['dipole'])
--------------------------------------------------------------------------

    Molecular point group: c1
  Charge       = 0
  Multiplicity = 1
  Basis Set: AUG-CC-PVTZ
    Blend: AUG-CC-PVTZ
  Basis Set: (AUG-CC-PVTZ AUX)
    Blend: AUG-CC-PVTZ-JKFIT

    Orbital Energies [Eh]
    ---------------------

    Doubly Occupied:

       1A    -20.619088     2A    -20.555105     3A    -11.394929
       4A    -11.259112     5A    -11.245664     6A    -11.244555
       7A    -11.242610     8A    -11.237223     9A    -11.235782
      10A    -11.233263    11A    -11.222730    12A     -1.463104
      13A     -1.360540    14A     -1.161154    15A     -1.070850
      16A     -1.041002    17A     -0.981133    18A     -0.930002
      19A     -0.840273    20A     -0.808167    21A     -0.777852
      22A     -0.708670    23A     -0.689256    24A     -0.677365
      25A     -0.666286    26A     -0.628333    27A     -0.617994
      28A     -0.596541    29A     -0.575384    30A     -0.567721
      31A     -0.565025    32A     -0.549146    33A     -0.536880
      34A     -0.492038    35A     -0.485433    36A     -0.482438
      37A     -0.480631    38A     -0.458089    39A     -0.334187
      40A     -0.324183

  @DF-RHF Final Energy:  -496.55703594624265

   => Energetics <=

    Nuclear Repulsion Energy =            583.0342028405528936
    One-Electron Energy =               -1832.4629950275323154
    Two-Electron Energy =                 752.8717562407368860
    Total Energy =                       -496.5570359462426495
  Basis Set: (AUG-CC-PVTZ AUX)
    Blend: AUG-CC-PVTZ-RI
    Molecular point group: c1

    Geometry (in Angstrom), charge = 0, multiplicity = 1:

       Center              X                  Y                   Z               Mass
    ------------   -----------------  -----------------  -----------------  -----------------
         O            3.383043922294    -0.512020925654    -0.157941441730    15.994914619570
         O            1.874467922294     0.264826074346     1.342066558270    15.994914619570
         C           -0.297877077706    -0.315853925654    -0.452962441730    12.000000000000
         C           -0.908022077706     0.933779074346    -0.228722441730    12.000000000000
         C            1.138030922294    -0.414762925654    -0.889596441730    12.000000000000
         C           -1.034279077706    -1.491249925654    -0.267960441730    12.000000000000
         C           -2.247289077706     0.960140074346     0.177539558270    12.000000000000
         C           -0.147970077706     2.221290074346    -0.414300441730    12.000000000000
         C           -2.367138077706    -1.449064925654     0.140945558270    12.000000000000
         C           -2.976496077706    -0.214970925654     0.364700558270    12.000000000000
         C            2.122416922294    -0.175581925654     0.234173558270    12.000000000000
         H            1.375266922294     0.305289074346    -1.683354441730     1.007825032230
         H            1.349878922294    -1.403589925654    -1.311137441730     1.007825032230
         H           -0.554871077706    -2.452830925654    -0.446270441730     1.007825032230
         H           -2.770734177706     2.010303574346     0.367893858270     1.007825032230
         H            0.691369922294     2.282660074346     0.283919558270     1.007825032230
         H            0.250553922294     2.314381074346    -1.431079441730     1.007825032230
         H           -0.801457077706     3.079472074346    -0.236461441730     1.007825032230
         H           -2.924199077706    -2.372351925654     0.280388558270     1.007825032230
         H           -4.015640077706    -0.164999925654     0.681390558270     1.007825032230
         H            3.956804922294    -0.314861925654     0.611487558270     1.007825032230

  Basis Set: AUG-CC-PVTZ
    Blend: AUG-CC-PVTZ
  Basis Set: (AUG-CC-PVTZ AUX)
    Blend: AUG-CC-PVTZ-JKFIT
	 Reference Energy          =    -496.5570359462426495 [Eh]
	 Singles Energy            =      -0.0000000000000000 [Eh]
	 Same-Spin Energy          =      -0.5239083034813833 [Eh]
	 Opposite-Spin Energy      =      -1.6296143030133483 [Eh]
	 Correlation Energy        =      -2.1535226064947315 [Eh]
	 Total Energy              =    -498.7105585527373819 [Eh]

	 ================> DF-SCS-MP2 Energies <==================
	-----------------------------------------------------------
	 SCS Same-Spin Scale       =       0.3333333333333333 [-]
	 SCS Opposite-Spin Scale   =       1.2000000000000000 [-]
	 SCS Same-Spin Energy      =      -0.1746361011604611 [Eh]
	 SCS Opposite-Spin Energy  =      -1.9555371636160179 [Eh]
	 SCS Correlation Energy    =      -2.1301732647764791 [Eh]
	 SCS Total Energy          =    -498.6872092110191375 [Eh]
	-----------------------------------------------------------

  Dipole Moment: [D]
     X:     0.5710      Y:    -0.1628      Z:    -1.2184     Total:     1.3554

*** Psi4 exiting successfully. Buy a developer a beer!
