                               Psi4 1.4a3.dev225

  ==> Input File <==

--------------------------------------------------------------------------
#psi4
#
memory 32 gb

molecule  {
0 1
  O        3.4036770    -0.5312700    -0.1399000
  O        1.8951010     0.2455770     1.3601080
  C       -0.2772440    -0.3351030    -0.4349210
  C       -0.8873890     0.9145300    -0.2106810
  C        1.1586640    -0.4340120    -0.8715550
  C       -1.0136460    -1.5104990    -0.2499190
  C       -2.2266560     0.9408910     0.1955810
  C       -0.1273370     2.2020410    -0.3962590
  C       -2.3465050    -1.4683140     0.1589870
  C       -2.9558630    -0.2342200     0.3827420
  C        2.1430500    -0.1948310     0.2522150
  H        1.3959000     0.2860400    -1.6653130
  H        1.3705120    -1.4228390    -1.2930960
  H       -0.5342380    -2.4720800    -0.4282290
  H       -2.7060670     1.9027110     0.3699220
  H        0.7120030     2.2634110     0.3019610
  H        0.2711870     2.2951320    -1.4130380
  H       -0.8405999     3.1387228    -0.2021527
  H       -2.9035660    -2.3916010     0.2984300
  H       -3.9950070    -0.1842490     0.6994320
  H        3.9774380    -0.3341110     0.6295290
units angstrom
no_reorient  #important for SAPT in psi4, default
symmetry c1  #important for SAPT in psi4, default
}

set PROPERTIES_ORIGIN ["COM"]
properties('MP2/aug-cc-pvtz', properties = ['dipole'])
--------------------------------------------------------------------------

    Molecular point group: c1
  Charge       = 0
  Multiplicity = 1
  Basis Set: AUG-CC-PVTZ
    Blend: AUG-CC-PVTZ
  Basis Set: (AUG-CC-PVTZ AUX)
    Blend: AUG-CC-PVTZ-JKFIT

    Orbital Energies [Eh]
    ---------------------

    Doubly Occupied:

       1A    -20.619302     2A    -20.555412     3A    -11.395183
       4A    -11.259285     5A    -11.245469     6A    -11.244316
       7A    -11.237109     8A    -11.234983     9A    -11.234602
      10A    -11.232785    11A    -11.231293    12A     -1.463349
      13A     -1.360817    14A     -1.161160    15A     -1.071168
      16A     -1.040006    17A     -0.981999    18A     -0.925653
      19A     -0.841230    20A     -0.810744    21A     -0.778120
      22A     -0.709323    23A     -0.689717    24A     -0.678819
      25A     -0.665780    26A     -0.627887    27A     -0.625115
      28A     -0.597085    29A     -0.578169    30A     -0.569429
      31A     -0.565454    32A     -0.549363    33A     -0.523663
      34A     -0.491876    35A     -0.485520    36A     -0.484772
      37A     -0.481316    38A     -0.458299    39A     -0.333773
      40A     -0.324000

  @DF-RHF Final Energy:  -496.55771000332936

   => Energetics <=

    Nuclear Repulsion Energy =            583.0739832869962811
    One-Electron Energy =               -1832.5366930055984085
    Two-Electron Energy =                 752.9049997152727656
    Total Energy =                       -496.5577100033293618
  Basis Set: (AUG-CC-PVTZ AUX)
    Blend: AUG-CC-PVTZ-RI
    Molecular point group: c1

    Geometry (in Angstrom), charge = 0, multiplicity = 1:

       Center              X                  Y                   Z               Mass
    ------------   -----------------  -----------------  -----------------  -----------------
         O            3.383149640846    -0.511954817477    -0.157943147539    15.994914619570
         O            1.874573640846     0.264892182523     1.342064852461    15.994914619570
         C           -0.297771359154    -0.315787817477    -0.452964147539    12.000000000000
         C           -0.907916359154     0.933845182523    -0.228724147539    12.000000000000
         C            1.138136640846    -0.414696817477    -0.889598147539    12.000000000000
         C           -1.034173359154    -1.491183817477    -0.267962147539    12.000000000000
         C           -2.247183359154     0.960206182523     0.177537852461    12.000000000000
         C           -0.147864359154     2.221356182523    -0.414302147539    12.000000000000
         C           -2.367032359154    -1.448998817477     0.140943852461    12.000000000000
         C           -2.976390359154    -0.214904817477     0.364698852461    12.000000000000
         C            2.122522640846    -0.175515817477     0.234171852461    12.000000000000
         H            1.375372640846     0.305355182523    -1.683356147539     1.007825032230
         H            1.349984640846    -1.403523817477    -1.311139147539     1.007825032230
         H           -0.554765359154    -2.452764817477    -0.446272147539     1.007825032230
         H           -2.726594359154     1.922026182523     0.351878852461     1.007825032230
         H            0.691475640846     2.282726182523     0.283917852461     1.007825032230
         H            0.250659640846     2.314447182523    -1.431081147539     1.007825032230
         H           -0.861127259154     3.158037982523    -0.220195847539     1.007825032230
         H           -2.924093359154    -2.372285817477     0.280386852461     1.007825032230
         H           -4.015534359154    -0.164933817477     0.681388852461     1.007825032230
         H            3.956910640846    -0.314795817477     0.611485852461     1.007825032230

  Basis Set: AUG-CC-PVTZ
    Blend: AUG-CC-PVTZ
  Basis Set: (AUG-CC-PVTZ AUX)
    Blend: AUG-CC-PVTZ-JKFIT
	 Reference Energy          =    -496.5577100033293618 [Eh]
	 Singles Energy            =      -0.0000000000000000 [Eh]
	 Same-Spin Energy          =      -0.5237071230001138 [Eh]
	 Opposite-Spin Energy      =      -1.6295190086370461 [Eh]
	 Correlation Energy        =      -2.1532261316371599 [Eh]
	 Total Energy              =    -498.7109361349665164 [Eh]

	 ================> DF-SCS-MP2 Energies <==================
	-----------------------------------------------------------
	 SCS Same-Spin Scale       =       0.3333333333333333 [-]
	 SCS Opposite-Spin Scale   =       1.2000000000000000 [-]
	 SCS Same-Spin Energy      =      -0.1745690410000379 [Eh]
	 SCS Opposite-Spin Energy  =      -1.9554228103644553 [Eh]
	 SCS Correlation Energy    =      -2.1299918513644931 [Eh]
	 SCS Total Energy          =    -498.6877018546938416 [Eh]
	-----------------------------------------------------------

  Dipole Moment: [D]
     X:     0.5643      Y:    -0.1827      Z:    -1.2135     Total:     1.3507

*** Psi4 exiting successfully. Buy a developer a beer!
