                               Psi4 1.4a3.dev225

  ==> Input File <==

--------------------------------------------------------------------------
#psi4
#
memory 32 gb

molecule  {
0 1
  O        3.4036770    -0.5312700    -0.1399000
  O        1.8951010     0.2455770     1.3601080
  C       -0.2772440    -0.3351030    -0.4349210
  C       -0.8873890     0.9145300    -0.2106810
  C        1.1586640    -0.4340120    -0.8715550
  C       -1.0136460    -1.5104990    -0.2499190
  C       -2.2266560     0.9408910     0.1955810
  C       -0.1273370     2.2020410    -0.3962590
  C       -2.3475504    -1.5169714     0.1577009
  C       -2.9558630    -0.2342200     0.3827420
  C        2.1430500    -0.1948310     0.2522150
  H        1.3959000     0.2860400    -1.6653130
  H        1.3705120    -1.4228390    -1.2930960
  H       -0.5342380    -2.4720800    -0.4282290
  H       -2.7060670     1.9027110     0.3699220
  H        0.7120030     2.2634110     0.3019610
  H        0.2711870     2.2951320    -1.4130380
  H       -0.7808240     3.0602230    -0.2184200
  H       -2.9035660    -2.3916010     0.2984300
  H       -3.9950070    -0.1842490     0.6994320
  H        3.9774380    -0.3341110     0.6295290
units angstrom
no_reorient  #important for SAPT in psi4, default
symmetry c1  #important for SAPT in psi4, default
}

set PROPERTIES_ORIGIN ["COM"]
properties('MP2/aug-cc-pvtz', properties = ['dipole'])
--------------------------------------------------------------------------

    Molecular point group: c1
  Charge       = 0
  Multiplicity = 1
  Basis Set: AUG-CC-PVTZ
    Blend: AUG-CC-PVTZ
  Basis Set: (AUG-CC-PVTZ AUX)
    Blend: AUG-CC-PVTZ-JKFIT

    Orbital Energies [Eh]
    ---------------------

    Doubly Occupied:

       1A    -20.618779     2A    -20.554758     3A    -11.394504
       4A    -11.258685     5A    -11.245237     6A    -11.243619
       7A    -11.239659     8A    -11.237385     9A    -11.233741
      10A    -11.231345    11A    -11.223259    12A     -1.462775
      13A     -1.360203    14A     -1.158243    15A     -1.067607
      16A     -1.041877    17A     -0.980496    18A     -0.931311
      19A     -0.839182    20A     -0.811726    21A     -0.781283
      22A     -0.708949    23A     -0.689935    24A     -0.679119
      25A     -0.665134    26A     -0.628850    27A     -0.626685
      28A     -0.596366    29A     -0.581576    30A     -0.569530
      31A     -0.564125    32A     -0.547925    33A     -0.539627
      34A     -0.491300    35A     -0.488039    36A     -0.482013
      37A     -0.479952    38A     -0.457497    39A     -0.334591
      40A     -0.319995

  @DF-RHF Final Energy:  -496.56084941988718

   => Energetics <=

    Nuclear Repulsion Energy =            582.7688249805264604
    One-Electron Energy =               -1831.9255821077806559
    Two-Electron Energy =                 752.5959077073670187
    Total Energy =                       -496.5608494198871767
  Basis Set: (AUG-CC-PVTZ AUX)
    Blend: AUG-CC-PVTZ-RI
    Molecular point group: c1

    Geometry (in Angstrom), charge = 0, multiplicity = 1:

       Center              X                  Y                   Z               Mass
    ------------   -----------------  -----------------  -----------------  -----------------
         O            3.382831792784    -0.507536803563    -0.157731058518    15.994914619570
         O            1.874255792784     0.269310196437     1.342276941482    15.994914619570
         C           -0.298089207216    -0.311369803563    -0.452752058518    12.000000000000
         C           -0.908234207216     0.938263196437    -0.228512058518    12.000000000000
         C            1.137818792784    -0.410278803563    -0.889386058518    12.000000000000
         C           -1.034491207216    -1.486765803563    -0.267750058518    12.000000000000
         C           -2.247501207216     0.964624196437     0.177749941482    12.000000000000
         C           -0.148182207216     2.225774196437    -0.414090058518    12.000000000000
         C           -2.368395607216    -1.493238203563     0.139869841482    12.000000000000
         C           -2.976708207216    -0.210486803563     0.364910941482    12.000000000000
         C            2.122204792784    -0.171097803563     0.234383941482    12.000000000000
         H            1.375054792784     0.309773196437    -1.683144058518     1.007825032230
         H            1.349666792784    -1.399105803563    -1.310927058518     1.007825032230
         H           -0.555083207216    -2.448346803563    -0.446060058518     1.007825032230
         H           -2.726912207216     1.926444196437     0.352090941482     1.007825032230
         H            0.691157792784     2.287144196437     0.284129941482     1.007825032230
         H            0.250341792784     2.318865196437    -1.430869058518     1.007825032230
         H           -0.801669207216     3.083956196437    -0.236251058518     1.007825032230
         H           -2.924411207216    -2.367867803563     0.280598941482     1.007825032230
         H           -4.015852207216    -0.160515803563     0.681600941482     1.007825032230
         H            3.956592792784    -0.310377803563     0.611697941482     1.007825032230

  Basis Set: AUG-CC-PVTZ
    Blend: AUG-CC-PVTZ
  Basis Set: (AUG-CC-PVTZ AUX)
    Blend: AUG-CC-PVTZ-JKFIT
	 Reference Energy          =    -496.5608494198871767 [Eh]
	 Singles Energy            =      -0.0000000000000000 [Eh]
	 Same-Spin Energy          =      -0.5236672846539903 [Eh]
	 Opposite-Spin Energy      =      -1.6291097816209270 [Eh]
	 Correlation Energy        =      -2.1527770662749175 [Eh]
	 Total Energy              =    -498.7136264861620703 [Eh]

	 ================> DF-SCS-MP2 Energies <==================
	-----------------------------------------------------------
	 SCS Same-Spin Scale       =       0.3333333333333333 [-]
	 SCS Opposite-Spin Scale   =       1.2000000000000000 [-]
	 SCS Same-Spin Energy      =      -0.1745557615513301 [Eh]
	 SCS Opposite-Spin Energy  =      -1.9549317379451123 [Eh]
	 SCS Correlation Energy    =      -2.1294874994964426 [Eh]
	 SCS Total Energy          =    -498.6903369193836397 [Eh]
	-----------------------------------------------------------

  Dipole Moment: [D]
     X:     0.5403      Y:    -0.1192      Z:    -1.2095     Total:     1.3300

*** Psi4 exiting successfully. Buy a developer a beer!
