                               Psi4 1.4a3.dev225

  ==> Input File <==

--------------------------------------------------------------------------
#psi4
#
memory 32 gb

molecule  {
0 1
  O        3.4036770    -0.5312700    -0.1399000
  O        1.8951010     0.2455770     1.3601080
  C       -0.2772440    -0.3351030    -0.4349210
  C       -0.8873890     0.9145300    -0.2106810
  C        1.1586640    -0.4340120    -0.8715550
  C       -1.0136460    -1.5104990    -0.2499190
  C       -2.2266560     0.9408910     0.1955810
  C       -0.1273370     2.2020410    -0.3962590
  C       -2.3465050    -1.4683140     0.1589870
  C       -2.9558630    -0.2342200     0.3827420
  C        2.1430500    -0.1948310     0.2522150
  H        1.3959000     0.2860400    -1.6653130
  H        1.4091843    -1.6033466    -1.3700471
  H       -0.5342380    -2.4720800    -0.4282290
  H       -2.7060670     1.9027110     0.3699220
  H        0.7120030     2.2634110     0.3019610
  H        0.2711870     2.2951320    -1.4130380
  H       -0.7808240     3.0602230    -0.2184200
  H       -2.9035660    -2.3916010     0.2984300
  H       -3.9950070    -0.1842490     0.6994320
  H        3.9774380    -0.3341110     0.6295290
units angstrom
no_reorient  #important for SAPT in psi4, default
symmetry c1  #important for SAPT in psi4, default
}

set PROPERTIES_ORIGIN ["COM"]
properties('MP2/aug-cc-pvtz', properties = ['dipole'])
--------------------------------------------------------------------------

    Molecular point group: c1
  Charge       = 0
  Multiplicity = 1
  Basis Set: AUG-CC-PVTZ
    Blend: AUG-CC-PVTZ
  Basis Set: (AUG-CC-PVTZ AUX)
    Blend: AUG-CC-PVTZ-JKFIT

    Orbital Energies [Eh]
    ---------------------

    Doubly Occupied:

       1A    -20.618260     2A    -20.556073     3A    -11.396210
       4A    -11.279357     5A    -11.245995     6A    -11.244783
       7A    -11.236829     8A    -11.235328     9A    -11.232620
      10A    -11.231745    11A    -11.223774    12A     -1.462858
      13A     -1.360848    14A     -1.160850    15A     -1.066358
      16A     -1.041071    17A     -0.978561    18A     -0.930901
      19A     -0.841058    20A     -0.809990    21A     -0.775669
      22A     -0.708342    23A     -0.687287    24A     -0.678187
      25A     -0.658855    26A     -0.628229    27A     -0.623931
      28A     -0.596883    29A     -0.578342    30A     -0.568074
      31A     -0.563098    32A     -0.541539    33A     -0.524881
      34A     -0.491850    35A     -0.486907    36A     -0.484324
      37A     -0.480525    38A     -0.456789    39A     -0.333741
      40A     -0.324198

  @DF-RHF Final Energy:  -496.54347110577430

   => Energetics <=

    Nuclear Repulsion Energy =            582.5631062961277848
    One-Electron Energy =               -1831.5229117319086072
    Two-Electron Energy =                 752.4163343300064071
    Total Energy =                       -496.5434711057743016
  Basis Set: (AUG-CC-PVTZ AUX)
    Blend: AUG-CC-PVTZ-RI
    Molecular point group: c1

    Geometry (in Angstrom), charge = 0, multiplicity = 1:

       Center              X                  Y                   Z               Mass
    ------------   -----------------  -----------------  -----------------  -----------------
         O            3.382488483853    -0.510215379336    -0.157317112761    15.994914619570
         O            1.873912483853     0.266631620664     1.342690887239    15.994914619570
         C           -0.298432516147    -0.314048379336    -0.452338112761    12.000000000000
         C           -0.908577516147     0.935584620664    -0.228098112761    12.000000000000
         C            1.137475483853    -0.412957379336    -0.888972112761    12.000000000000
         C           -1.034834516147    -1.489444379336    -0.267336112761    12.000000000000
         C           -2.247844516147     0.961945620664     0.178163887239    12.000000000000
         C           -0.148525516147     2.223095620664    -0.413676112761    12.000000000000
         C           -2.367693516147    -1.447259379336     0.141569887239    12.000000000000
         C           -2.977051516147    -0.213165379336     0.365324887239    12.000000000000
         C            2.121861483853    -0.173776379336     0.234797887239    12.000000000000
         H            1.374711483853     0.307094620664    -1.682730112761     1.007825032230
         H            1.387995783853    -1.582291979336    -1.387464212761     1.007825032230
         H           -0.555426516147    -2.451025379336    -0.445646112761     1.007825032230
         H           -2.727255516147     1.923765620664     0.352504887239     1.007825032230
         H            0.690814483853     2.284465620664     0.284543887239     1.007825032230
         H            0.249998483853     2.316186620664    -1.430455112761     1.007825032230
         H           -0.802012516147     3.081277620664    -0.235837112761     1.007825032230
         H           -2.924754516147    -2.370546379336     0.281012887239     1.007825032230
         H           -4.016195516147    -0.163194379336     0.682014887239     1.007825032230
         H            3.956249483853    -0.313056379336     0.612111887239     1.007825032230

  Basis Set: AUG-CC-PVTZ
    Blend: AUG-CC-PVTZ
  Basis Set: (AUG-CC-PVTZ AUX)
    Blend: AUG-CC-PVTZ-JKFIT
	 Reference Energy          =    -496.5434711057743016 [Eh]
	 Singles Energy            =      -0.0000000000000000 [Eh]
	 Same-Spin Energy          =      -0.5240679337359908 [Eh]
	 Opposite-Spin Energy      =      -1.6308058302639685 [Eh]
	 Correlation Energy        =      -2.1548737639999596 [Eh]
	 Total Energy              =    -498.6983448697742460 [Eh]

	 ================> DF-SCS-MP2 Energies <==================
	-----------------------------------------------------------
	 SCS Same-Spin Scale       =       0.3333333333333333 [-]
	 SCS Opposite-Spin Scale   =       1.2000000000000000 [-]
	 SCS Same-Spin Energy      =      -0.1746893112453303 [Eh]
	 SCS Opposite-Spin Energy  =      -1.9569669963167622 [Eh]
	 SCS Correlation Energy    =      -2.1316563075620922 [Eh]
	 SCS Total Energy          =    -498.6751274133363836 [Eh]
	-----------------------------------------------------------

  Dipole Moment: [D]
     X:     0.4944      Y:    -0.0703      Z:    -1.1694     Total:     1.2715

*** Psi4 exiting successfully. Buy a developer a beer!
