                               Psi4 1.4a3.dev225

  ==> Input File <==

--------------------------------------------------------------------------
#psi4
#
memory 32 gb

molecule  {
0 1
  O        3.4036770    -0.5312700    -0.1399000
  O        1.8951010     0.2455770     1.3601080
  C       -0.2772440    -0.3351030    -0.4349210
  C       -0.8873890     0.9145300    -0.2106810
  C        1.1586640    -0.4340120    -0.8715550
  C       -1.0136460    -1.5104990    -0.2499190
  C       -2.2266560     0.9408910     0.1955810
  C       -0.1273370     2.2020410    -0.3962590
  C       -2.3465050    -1.4683140     0.1589870
  C       -2.9558630    -0.2342200     0.3827420
  C        2.1430500    -0.1948310     0.2522150
  H        1.3959000     0.2860400    -1.6653130
  H        1.3705120    -1.4228390    -1.2930960
  H       -0.5342380    -2.4720800    -0.4282290
  H       -2.7941351     2.0793980     0.4019486
  H        0.7120030     2.2634110     0.3019610
  H        0.2711870     2.2951320    -1.4130380
  H       -0.7808240     3.0602230    -0.2184200
  H       -2.9035660    -2.3916010     0.2984300
  H       -3.9950070    -0.1842490     0.6994320
  H        3.9774380    -0.3341110     0.6295290
units angstrom
no_reorient  #important for SAPT in psi4, default
symmetry c1  #important for SAPT in psi4, default
}

set PROPERTIES_ORIGIN ["COM"]
properties('MP2/aug-cc-pvtz', properties = ['dipole'])
--------------------------------------------------------------------------

    Molecular point group: c1
  Charge       = 0
  Multiplicity = 1
  Basis Set: AUG-CC-PVTZ
    Blend: AUG-CC-PVTZ
  Basis Set: (AUG-CC-PVTZ AUX)
    Blend: AUG-CC-PVTZ-JKFIT

    Orbital Energies [Eh]
    ---------------------

    Doubly Occupied:

       1A    -20.619361     2A    -20.555400     3A    -11.395263
       4A    -11.259690     5A    -11.253297     6A    -11.246862
       7A    -11.245686     8A    -11.237973     9A    -11.237201
      10A    -11.234307    11A    -11.222655    12A     -1.463386
      13A     -1.360825    14A     -1.161847    15A     -1.071355
      16A     -1.040835    17A     -0.980980    18A     -0.930014
      19A     -0.840312    20A     -0.805648    21A     -0.777809
      22A     -0.708702    23A     -0.689534    24A     -0.677029
      25A     -0.666101    26A     -0.628916    27A     -0.612643
      28A     -0.596772    29A     -0.573584    30A     -0.567257
      31A     -0.564546    32A     -0.549605    33A     -0.532529
      34A     -0.492829    35A     -0.486236    36A     -0.482435
      37A     -0.473931    38A     -0.458422    39A     -0.335124
      40A     -0.325099

  @DF-RHF Final Energy:  -496.54230479658213

   => Energetics <=

    Nuclear Repulsion Energy =            582.5842524420984319
    One-Electron Energy =               -1831.5291125425517293
    Two-Electron Energy =                 752.4025553038711678
    Total Energy =                       -496.5423047965821297
  Basis Set: (AUG-CC-PVTZ AUX)
    Blend: AUG-CC-PVTZ-RI
    Molecular point group: c1

    Geometry (in Angstrom), charge = 0, multiplicity = 1:

       Center              X                  Y                   Z               Mass
    ------------   -----------------  -----------------  -----------------  -----------------
         O            3.383339645193    -0.512614221650    -0.158048983618    15.994914619570
         O            1.874763645193     0.264232778350     1.341959016382    15.994914619570
         C           -0.297581354807    -0.316447221650    -0.453069983618    12.000000000000
         C           -0.907726354807     0.933185778350    -0.228829983618    12.000000000000
         C            1.138326645193    -0.415356221650    -0.889703983618    12.000000000000
         C           -1.033983354807    -1.491843221650    -0.268067983618    12.000000000000
         C           -2.246993354807     0.959546778350     0.177432016382    12.000000000000
         C           -0.147674354807     2.220696778350    -0.414407983618    12.000000000000
         C           -2.366842354807    -1.449658221650     0.140838016382    12.000000000000
         C           -2.976200354807    -0.215564221650     0.364593016382    12.000000000000
         C            2.122712645193    -0.176175221650     0.234066016382    12.000000000000
         H            1.375562645193     0.304695778350    -1.683461983618     1.007825032230
         H            1.350174645193    -1.404183221650    -1.311244983618     1.007825032230
         H           -0.554575354807    -2.453424221650    -0.446377983618     1.007825032230
         H           -2.814472454807     2.098053778350     0.383799616382     1.007825032230
         H            0.691665645193     2.282066778350     0.283812016382     1.007825032230
         H            0.250849645193     2.313787778350    -1.431186983618     1.007825032230
         H           -0.801161354807     3.078878778350    -0.236568983618     1.007825032230
         H           -2.923903354807    -2.372945221650     0.280281016382     1.007825032230
         H           -4.015344354807    -0.165593221650     0.681283016382     1.007825032230
         H            3.957100645193    -0.315455221650     0.611380016382     1.007825032230

  Basis Set: AUG-CC-PVTZ
    Blend: AUG-CC-PVTZ
  Basis Set: (AUG-CC-PVTZ AUX)
    Blend: AUG-CC-PVTZ-JKFIT
	 Reference Energy          =    -496.5423047965821297 [Eh]
	 Singles Energy            =      -0.0000000000000000 [Eh]
	 Same-Spin Energy          =      -0.5242178048679819 [Eh]
	 Opposite-Spin Energy      =      -1.6308987038001921 [Eh]
	 Correlation Energy        =      -2.1551165086681738 [Eh]
	 Total Energy              =    -498.6974213052503160 [Eh]

	 ================> DF-SCS-MP2 Energies <==================
	-----------------------------------------------------------
	 SCS Same-Spin Scale       =       0.3333333333333333 [-]
	 SCS Opposite-Spin Scale   =       1.2000000000000000 [-]
	 SCS Same-Spin Energy      =      -0.1747392682893273 [Eh]
	 SCS Opposite-Spin Energy  =      -1.9570784445602305 [Eh]
	 SCS Correlation Energy    =      -2.1318177128495579 [Eh]
	 SCS Total Energy          =    -498.6741225094316974 [Eh]
	-----------------------------------------------------------

  Dipole Moment: [D]
     X:     0.6069      Y:    -0.2245      Z:    -1.2279     Total:     1.3880

*** Psi4 exiting successfully. Buy a developer a beer!
