                               Psi4 1.4a3.dev225

  ==> Input File <==

--------------------------------------------------------------------------
#psi4
#
memory 32 gb

molecule  {
0 1
  O        3.4036770    -0.5312700    -0.1399000
  O        1.8951010     0.2455770     1.3601080
  C       -0.2772440    -0.3351030    -0.4349210
  C       -0.8873890     0.9145300    -0.2106810
  C        1.1586640    -0.4340120    -0.8715550
  C       -1.0136460    -1.5104990    -0.2499190
  C       -2.2266560     0.9408910     0.1955810
  C       -0.1273370     2.2020410    -0.3962590
  C       -2.3465050    -1.4683140     0.1589870
  C       -2.9558630    -0.2342200     0.3827420
  C        2.1634116    -0.2309973     0.1612348
  H        1.3959000     0.2860400    -1.6653130
  H        1.3705120    -1.4228390    -1.2930960
  H       -0.5342380    -2.4720800    -0.4282290
  H       -2.7060670     1.9027110     0.3699220
  H        0.7120030     2.2634110     0.3019610
  H        0.2711870     2.2951320    -1.4130380
  H       -0.7808240     3.0602230    -0.2184200
  H       -2.9035660    -2.3916010     0.2984300
  H       -3.9950070    -0.1842490     0.6994320
  H        3.9774380    -0.3341110     0.6295290
units angstrom
no_reorient  #important for SAPT in psi4, default
symmetry c1  #important for SAPT in psi4, default
}

set PROPERTIES_ORIGIN ["COM"]
properties('MP2/aug-cc-pvtz', properties = ['dipole'])
--------------------------------------------------------------------------

    Molecular point group: c1
  Charge       = 0
  Multiplicity = 1
  Basis Set: AUG-CC-PVTZ
    Blend: AUG-CC-PVTZ
  Basis Set: (AUG-CC-PVTZ AUX)
    Blend: AUG-CC-PVTZ-JKFIT

    Orbital Energies [Eh]
    ---------------------

    Doubly Occupied:

       1A    -20.634623     2A    -20.535687     3A    -11.402085
       4A    -11.261939     5A    -11.246810     6A    -11.244197
       7A    -11.237786     8A    -11.235144     9A    -11.232470
      10A    -11.230826    11A    -11.221086    12A     -1.477948
      13A     -1.304368    14A     -1.161888    15A     -1.080645
      16A     -1.042344    17A     -0.992026    18A     -0.931370
      19A     -0.857080    20A     -0.814974    21A     -0.786108
      22A     -0.706977    23A     -0.693499    24A     -0.679248
      25A     -0.672320    26A     -0.632430    27A     -0.628300
      28A     -0.582158    29A     -0.578783    30A     -0.568007
      31A     -0.556026    32A     -0.552607    33A     -0.539702
      34A     -0.489612    35A     -0.486842    36A     -0.484724
      37A     -0.448791    38A     -0.445582    39A     -0.334251
      40A     -0.323412

  @DF-RHF Final Energy:  -496.54245332355390

   => Energetics <=

    Nuclear Repulsion Energy =            583.1647716256733247
    One-Electron Energy =               -1832.7450985429538832
    Two-Electron Energy =                 753.0378735937267720
    Total Energy =                       -496.5424533235539002
  Basis Set: (AUG-CC-PVTZ AUX)
    Blend: AUG-CC-PVTZ-RI
    Molecular point group: c1

    Geometry (in Angstrom), charge = 0, multiplicity = 1:

       Center              X                  Y                   Z               Mass
    ------------   -----------------  -----------------  -----------------  -----------------
         O            3.381120009700    -0.508535638228    -0.150558785753    15.994914619570
         O            1.872544009700     0.268311361772     1.349449214247    15.994914619570
         C           -0.299800990300    -0.312368638228    -0.445579785753    12.000000000000
         C           -0.909945990300     0.937264361772    -0.221339785753    12.000000000000
         C            1.136107009700    -0.411277638228    -0.882213785753    12.000000000000
         C           -1.036202990300    -1.487764638228    -0.260577785753    12.000000000000
         C           -2.249212990300     0.963625361772     0.184922214247    12.000000000000
         C           -0.149893990300     2.224775361772    -0.406917785753    12.000000000000
         C           -2.369061990300    -1.445579638228     0.148328214247    12.000000000000
         C           -2.978419990300    -0.211485638228     0.372083214247    12.000000000000
         C            2.140854609700    -0.208262938228     0.150576014247    12.000000000000
         H            1.373343009700     0.308774361772    -1.675971785753     1.007825032230
         H            1.347955009700    -1.400104638228    -1.303754785753     1.007825032230
         H           -0.556794990300    -2.449345638228    -0.438887785753     1.007825032230
         H           -2.728623990300     1.925445361772     0.359263214247     1.007825032230
         H            0.689446009700     2.286145361772     0.291302214247     1.007825032230
         H            0.248630009700     2.317866361772    -1.423696785753     1.007825032230
         H           -0.803380990300     3.082957361772    -0.229078785753     1.007825032230
         H           -2.926122990300    -2.368866638228     0.287771214247     1.007825032230
         H           -4.017563990300    -0.161514638228     0.688773214247     1.007825032230
         H            3.954881009700    -0.311376638228     0.618870214247     1.007825032230

  Basis Set: AUG-CC-PVTZ
    Blend: AUG-CC-PVTZ
  Basis Set: (AUG-CC-PVTZ AUX)
    Blend: AUG-CC-PVTZ-JKFIT
	 Reference Energy          =    -496.5424533235539002 [Eh]
	 Singles Energy            =      -0.0000000000000000 [Eh]
	 Same-Spin Energy          =      -0.5257339852417571 [Eh]
	 Opposite-Spin Energy      =      -1.6322069905326928 [Eh]
	 Correlation Energy        =      -2.1579409757744497 [Eh]
	 Total Energy              =    -498.7003942993283658 [Eh]

	 ================> DF-SCS-MP2 Energies <==================
	-----------------------------------------------------------
	 SCS Same-Spin Scale       =       0.3333333333333333 [-]
	 SCS Opposite-Spin Scale   =       1.2000000000000000 [-]
	 SCS Same-Spin Energy      =      -0.1752446617472523 [Eh]
	 SCS Opposite-Spin Energy  =      -1.9586483886392312 [Eh]
	 SCS Correlation Energy    =      -2.1338930503864835 [Eh]
	 SCS Total Energy          =    -498.6763463739403619 [Eh]
	-----------------------------------------------------------

  Dipole Moment: [D]
     X:     0.7895      Y:    -0.3315      Z:    -1.7055     Total:     1.9083

*** Psi4 exiting successfully. Buy a developer a beer!
