                               Psi4 1.4a3.dev225

  ==> Input File <==

--------------------------------------------------------------------------
#psi4
#
memory 32 gb

molecule  {
0 1
  O        3.4036770    -0.5312700    -0.1399000
  O        1.8951010     0.2455770     1.3601080
  C       -0.2772440    -0.3351030    -0.4349210
  C       -0.7531518     0.8398144    -0.2462673
  C        1.1586640    -0.4340120    -0.8715550
  C       -1.0136460    -1.5104990    -0.2499190
  C       -2.2266560     0.9408910     0.1955810
  C       -0.1273370     2.2020410    -0.3962590
  C       -2.3465050    -1.4683140     0.1589870
  C       -2.9558630    -0.2342200     0.3827420
  C        2.1430500    -0.1948310     0.2522150
  H        1.3959000     0.2860400    -1.6653130
  H        1.3705120    -1.4228390    -1.2930960
  H       -0.5342380    -2.4720800    -0.4282290
  H       -2.7060670     1.9027110     0.3699220
  H        0.7120030     2.2634110     0.3019610
  H        0.2711870     2.2951320    -1.4130380
  H       -0.7808240     3.0602230    -0.2184200
  H       -2.9035660    -2.3916010     0.2984300
  H       -3.9950070    -0.1842490     0.6994320
  H        3.9774380    -0.3341110     0.6295290
units angstrom
no_reorient  #important for SAPT in psi4, default
symmetry c1  #important for SAPT in psi4, default
}

set PROPERTIES_ORIGIN ["COM"]
properties('MP2/aug-cc-pvtz', properties = ['dipole'])
--------------------------------------------------------------------------

    Molecular point group: c1
  Charge       = 0
  Multiplicity = 1
  Basis Set: AUG-CC-PVTZ
    Blend: AUG-CC-PVTZ
  Basis Set: (AUG-CC-PVTZ AUX)
    Blend: AUG-CC-PVTZ-JKFIT

    Orbital Energies [Eh]
    ---------------------

    Doubly Occupied:

       1A    -20.618185     2A    -20.554539     3A    -11.393897
       4A    -11.255226     5A    -11.243273     6A    -11.241971
       7A    -11.237510     8A    -11.234179     9A    -11.232961
      10A    -11.227917    11A    -11.224804    12A     -1.462312
      13A     -1.359930    14A     -1.167716    15A     -1.074363
      16A     -1.031944    17A     -0.983556    18A     -0.933519
      19A     -0.839728    20A     -0.825648    21A     -0.765522
      22A     -0.708449    23A     -0.688675    24A     -0.678591
      25A     -0.665884    26A     -0.627598    27A     -0.626470
      28A     -0.597945    29A     -0.579523    30A     -0.570223
      31A     -0.564720    32A     -0.546879    33A     -0.541592
      34A     -0.505518    35A     -0.490907    36A     -0.481695
      37A     -0.457517    38A     -0.451817    39A     -0.347110
      40A     -0.314671

  @DF-RHF Final Energy:  -496.53460212446015

   => Energetics <=

    Nuclear Repulsion Energy =            584.7674177254514234
    One-Electron Energy =               -1835.8950676439242216
    Two-Electron Energy =                 754.5930477940125911
    Total Energy =                       -496.5346021244602071
  Basis Set: (AUG-CC-PVTZ AUX)
    Blend: AUG-CC-PVTZ-RI
    Molecular point group: c1

    Geometry (in Angstrom), charge = 0, multiplicity = 1:

       Center              X                  Y                   Z               Mass
    ------------   -----------------  -----------------  -----------------  -----------------
         O            3.372014094545    -0.505453093284    -0.154988287362    15.994914619570
         O            1.863438094545     0.271393906716     1.345019712638    15.994914619570
         C           -0.308906905455    -0.309286093284    -0.450009287362    12.000000000000
         C           -0.784814705455     0.865631306716    -0.261355587362    12.000000000000
         C            1.127001094545    -0.408195093284    -0.886643287362    12.000000000000
         C           -1.045308905455    -1.484682093284    -0.265007287362    12.000000000000
         C           -2.258318905455     0.966707906716     0.180492712638    12.000000000000
         C           -0.158999905455     2.227857906716    -0.411347287362    12.000000000000
         C           -2.378167905455    -1.442497093284     0.143898712638    12.000000000000
         C           -2.987525905455    -0.208403093284     0.367653712638    12.000000000000
         C            2.111387094545    -0.169014093284     0.237126712638    12.000000000000
         H            1.364237094545     0.311856906716    -1.680401287362     1.007825032230
         H            1.338849094545    -1.397022093284    -1.308184287362     1.007825032230
         H           -0.565900905455    -2.446263093284    -0.443317287362     1.007825032230
         H           -2.737729905455     1.928527906716     0.354833712638     1.007825032230
         H            0.680340094545     2.289227906716     0.286872712638     1.007825032230
         H            0.239524094545     2.320948906716    -1.428126287362     1.007825032230
         H           -0.812486905455     3.086039906716    -0.233508287362     1.007825032230
         H           -2.935228905455    -2.365784093284     0.283341712638     1.007825032230
         H           -4.026669905455    -0.158432093284     0.684343712638     1.007825032230
         H            3.945775094545    -0.308294093284     0.614440712638     1.007825032230

  Basis Set: AUG-CC-PVTZ
    Blend: AUG-CC-PVTZ
  Basis Set: (AUG-CC-PVTZ AUX)
    Blend: AUG-CC-PVTZ-JKFIT
	 Reference Energy          =    -496.5346021244601502 [Eh]
	 Singles Energy            =      -0.0000000000000000 [Eh]
	 Same-Spin Energy          =      -0.5232506599219745 [Eh]
	 Opposite-Spin Energy      =      -1.6299117400002223 [Eh]
	 Correlation Energy        =      -2.1531623999221967 [Eh]
	 Total Energy              =    -498.6877645243823736 [Eh]

	 ================> DF-SCS-MP2 Energies <==================
	-----------------------------------------------------------
	 SCS Same-Spin Scale       =       0.3333333333333333 [-]
	 SCS Opposite-Spin Scale   =       1.2000000000000000 [-]
	 SCS Same-Spin Energy      =      -0.1744168866406582 [Eh]
	 SCS Opposite-Spin Energy  =      -1.9558940880002667 [Eh]
	 SCS Correlation Energy    =      -2.1303109746409250 [Eh]
	 SCS Total Energy          =    -498.6649130991010566 [Eh]
	-----------------------------------------------------------

  Dipole Moment: [D]
     X:     0.4810      Y:    -0.0564      Z:    -1.1971     Total:     1.2913

*** Psi4 exiting successfully. Buy a developer a beer!
