                               Psi4 1.4a3.dev225

  ==> Input File <==

--------------------------------------------------------------------------
#psi4
#
memory 32 gb

molecule  {
0 1
  O        3.4036770    -0.5312700    -0.1399000
  O        1.8951010     0.2455770     1.3601080
  C       -0.2772440    -0.3351030    -0.4349210
  C       -0.8873890     0.9145300    -0.2106810
  C        1.1586640    -0.4340120    -0.8715550
  C       -1.0136460    -1.5104990    -0.2499190
  C       -2.2266560     0.9408910     0.1955810
  C       -0.1273370     2.2020410    -0.3962590
  C       -2.3465050    -1.4683140     0.1589870
  C       -2.9944526    -0.2072665     0.3952828
  C        2.1430500    -0.1948310     0.2522150
  H        1.3959000     0.2860400    -1.6653130
  H        1.3705120    -1.4228390    -1.2930960
  H       -0.5342380    -2.4720800    -0.4282290
  H       -2.7060670     1.9027110     0.3699220
  H        0.7120030     2.2634110     0.3019610
  H        0.2711870     2.2951320    -1.4130380
  H       -0.7808240     3.0602230    -0.2184200
  H       -2.9035660    -2.3916010     0.2984300
  H       -3.9950070    -0.1842490     0.6994320
  H        3.9774380    -0.3341110     0.6295290
units angstrom
no_reorient  #important for SAPT in psi4, default
symmetry c1  #important for SAPT in psi4, default
}

set PROPERTIES_ORIGIN ["COM"]
properties('MP2/aug-cc-pvtz', properties = ['dipole'])
--------------------------------------------------------------------------

    Molecular point group: c1
  Charge       = 0
  Multiplicity = 1
  Basis Set: AUG-CC-PVTZ
    Blend: AUG-CC-PVTZ
  Basis Set: (AUG-CC-PVTZ AUX)
    Blend: AUG-CC-PVTZ-JKFIT

    Orbital Energies [Eh]
    ---------------------

    Doubly Occupied:

       1A    -20.619005     2A    -20.555010     3A    -11.394886
       4A    -11.258871     5A    -11.245149     6A    -11.243693
       7A    -11.237879     8A    -11.236300     9A    -11.235808
      10A    -11.232049    11A    -11.222983    12A     -1.463017
      13A     -1.360445    14A     -1.158247    15A     -1.068505
      16A     -1.039969    17A     -0.983430    18A     -0.928188
      19A     -0.841976    20A     -0.810622    21A     -0.780951
      22A     -0.708859    23A     -0.689274    24A     -0.679812
      25A     -0.665607    26A     -0.630829    27A     -0.625652
      28A     -0.596442    29A     -0.582988    30A     -0.568582
      31A     -0.562233    32A     -0.548910    33A     -0.538508
      34A     -0.492372    35A     -0.488772    36A     -0.480998
      37A     -0.479824    38A     -0.457725    39A     -0.335089
      40A     -0.319363

  @DF-RHF Final Energy:  -496.56071733198434

   => Energetics <=

    Nuclear Repulsion Energy =            582.7238103772116347
    One-Electron Energy =               -1831.8314072530092744
    Two-Electron Energy =                 752.5468795438134748
    Total Energy =                       -496.5607173319842786
  Basis Set: (AUG-CC-PVTZ AUX)
    Blend: AUG-CC-PVTZ-RI
    Molecular point group: c1

    Geometry (in Angstrom), charge = 0, multiplicity = 1:

       Center              X                  Y                   Z               Mass
    ------------   -----------------  -----------------  -----------------  -----------------
         O            3.385833966206    -0.513582931445    -0.158836708703    15.994914619570
         O            1.877257966206     0.263264068555     1.341171291297    15.994914619570
         C           -0.295087033794    -0.317415931445    -0.453857708703    12.000000000000
         C           -0.905232033794     0.932217068555    -0.229617708703    12.000000000000
         C            1.140820966206    -0.416324931445    -0.890491708703    12.000000000000
         C           -1.031489033794    -1.492811931445    -0.268855708703    12.000000000000
         C           -2.244499033794     0.958578068555     0.176644291297    12.000000000000
         C           -0.145180033794     2.219728068555    -0.415195708703    12.000000000000
         C           -2.364348033794    -1.450626931445     0.140050291297    12.000000000000
         C           -3.012295633794    -0.189579431445     0.376346091297    12.000000000000
         C            2.125206966206    -0.177143931445     0.233278291297    12.000000000000
         H            1.378056966206     0.303727068555    -1.684249708703     1.007825032230
         H            1.352668966206    -1.405151931445    -1.312032708703     1.007825032230
         H           -0.552081033794    -2.454392931445    -0.447165708703     1.007825032230
         H           -2.723910033794     1.920398068555     0.350985291297     1.007825032230
         H            0.694159966206     2.281098068555     0.283024291297     1.007825032230
         H            0.253343966206     2.312819068555    -1.431974708703     1.007825032230
         H           -0.798667033794     3.077910068555    -0.237356708703     1.007825032230
         H           -2.921409033794    -2.373913931445     0.279493291297     1.007825032230
         H           -4.012850033794    -0.166561931445     0.680495291297     1.007825032230
         H            3.959594966206    -0.316423931445     0.610592291297     1.007825032230

  Basis Set: AUG-CC-PVTZ
    Blend: AUG-CC-PVTZ
  Basis Set: (AUG-CC-PVTZ AUX)
    Blend: AUG-CC-PVTZ-JKFIT
	 Reference Energy          =    -496.5607173319843355 [Eh]
	 Singles Energy            =      -0.0000000000000000 [Eh]
	 Same-Spin Energy          =      -0.5237135946686156 [Eh]
	 Opposite-Spin Energy      =      -1.6291712525501731 [Eh]
	 Correlation Energy        =      -2.1528848472187887 [Eh]
	 Total Energy              =    -498.7136021792031215 [Eh]

	 ================> DF-SCS-MP2 Energies <==================
	-----------------------------------------------------------
	 SCS Same-Spin Scale       =       0.3333333333333333 [-]
	 SCS Opposite-Spin Scale   =       1.2000000000000000 [-]
	 SCS Same-Spin Energy      =      -0.1745711982228718 [Eh]
	 SCS Opposite-Spin Energy  =      -1.9550055030602076 [Eh]
	 SCS Correlation Energy    =      -2.1295767012830793 [Eh]
	 SCS Total Energy          =    -498.6902940332674348 [Eh]
	-----------------------------------------------------------

  Dipole Moment: [D]
     X:     0.5384      Y:    -0.1149      Z:    -1.2079     Total:     1.3275

*** Psi4 exiting successfully. Buy a developer a beer!
