                               Psi4 1.4a3.dev225

  ==> Input File <==

--------------------------------------------------------------------------
#psi4
#
memory 32 gb

molecule  {
0 1
  O        3.4036770    -0.5312700    -0.1399000
  O        1.8951010     0.2455770     1.3601080
  C       -0.2772440    -0.3351030    -0.4349210
  C       -0.8873890     0.9145300    -0.2106810
  C        1.1586640    -0.4340120    -0.8715550
  C       -1.0136460    -1.5104990    -0.2499190
  C       -2.2266560     0.9408910     0.1955810
  C       -0.1273370     2.2020410    -0.3962590
  C       -2.3465050    -1.4683140     0.1589870
  C       -2.9558630    -0.2342200     0.3827420
  C        2.1430500    -0.1948310     0.2522150
  H        1.3959000     0.2860400    -1.6653130
  H        1.3705120    -1.4228390    -1.2930960
  H       -0.5782544    -2.3837933    -0.4118576
  H       -2.7060670     1.9027110     0.3699220
  H        0.7120030     2.2634110     0.3019610
  H        0.2711870     2.2951320    -1.4130380
  H       -0.7808240     3.0602230    -0.2184200
  H       -2.9035660    -2.3916010     0.2984300
  H       -3.9950070    -0.1842490     0.6994320
  H        3.9774380    -0.3341110     0.6295290
units angstrom
no_reorient  #important for SAPT in psi4, default
symmetry c1  #important for SAPT in psi4, default
}

set PROPERTIES_ORIGIN ["COM"]
properties('MP2/aug-cc-pvtz', properties = ['dipole'])
--------------------------------------------------------------------------

    Molecular point group: c1
  Charge       = 0
  Multiplicity = 1
  Basis Set: AUG-CC-PVTZ
    Blend: AUG-CC-PVTZ
  Basis Set: (AUG-CC-PVTZ AUX)
    Blend: AUG-CC-PVTZ-JKFIT

    Orbital Energies [Eh]
    ---------------------

    Doubly Occupied:

       1A    -20.618956     2A    -20.554967     3A    -11.394747
       4A    -11.258788     5A    -11.243743     6A    -11.242594
       7A    -11.234116     8A    -11.231697     9A    -11.230741
      10A    -11.224351    11A    -11.222470    12A     -1.462968
      13A     -1.360400    14A     -1.161037    15A     -1.070401
      16A     -1.043469    17A     -0.984070    18A     -0.929875
      19A     -0.843413    20A     -0.818084    21A     -0.777724
      22A     -0.709072    23A     -0.689570    24A     -0.682118
      25A     -0.668422    26A     -0.634580    27A     -0.627633
      28A     -0.596384    29A     -0.580257    30A     -0.569001
      31A     -0.564588    32A     -0.550229    33A     -0.540212
      34A     -0.491217    35A     -0.489486    36A     -0.483531
      37A     -0.481356    38A     -0.457880    39A     -0.333062
      40A     -0.322830

  @DF-RHF Final Energy:  -496.55873694142639

   => Energetics <=

    Nuclear Repulsion Energy =            584.0761146103233159
    One-Electron Energy =               -1834.5096263631749025
    Two-Electron Energy =                 753.8747748114253682
    Total Energy =                       -496.5587369414263321
  Basis Set: (AUG-CC-PVTZ AUX)
    Blend: AUG-CC-PVTZ-RI
    Molecular point group: c1

    Geometry (in Angstrom), charge = 0, multiplicity = 1:

       Center              X                  Y                   Z               Mass
    ------------   -----------------  -----------------  -----------------  -----------------
         O            3.383043803425    -0.512020544198    -0.157943846653    15.994914619570
         O            1.874467803425     0.264826455802     1.342064153347    15.994914619570
         C           -0.297877196575    -0.315853544198    -0.452964846653    12.000000000000
         C           -0.908022196575     0.933779455802    -0.228724846653    12.000000000000
         C            1.138030803425    -0.414762544198    -0.889598846653    12.000000000000
         C           -1.034279196575    -1.491249544198    -0.267962846653    12.000000000000
         C           -2.247289196575     0.960140455802     0.177537153347    12.000000000000
         C           -0.147970196575     2.221290455802    -0.414302846653    12.000000000000
         C           -2.367138196575    -1.449064544198     0.140943153347    12.000000000000
         C           -2.976496196575    -0.214970544198     0.364698153347    12.000000000000
         C            2.122416803425    -0.175581544198     0.234171153347    12.000000000000
         H            1.375266803425     0.305289455802    -1.683356846653     1.007825032230
         H            1.349878803425    -1.403589544198    -1.311139846653     1.007825032230
         H           -0.598887596575    -2.364543844198    -0.429901446653     1.007825032230
         H           -2.726700196575     1.921960455802     0.351878153347     1.007825032230
         H            0.691369803425     2.282660455802     0.283917153347     1.007825032230
         H            0.250553803425     2.314381455802    -1.431081846653     1.007825032230
         H           -0.801457196575     3.079472455802    -0.236463846653     1.007825032230
         H           -2.924199196575    -2.372351544198     0.280386153347     1.007825032230
         H           -4.015640196575    -0.164999544198     0.681388153347     1.007825032230
         H            3.956804803425    -0.314861544198     0.611485153347     1.007825032230

  Basis Set: AUG-CC-PVTZ
    Blend: AUG-CC-PVTZ
  Basis Set: (AUG-CC-PVTZ AUX)
    Blend: AUG-CC-PVTZ-JKFIT
	 Reference Energy          =    -496.5587369414263890 [Eh]
	 Singles Energy            =      -0.0000000000000000 [Eh]
	 Same-Spin Energy          =      -0.5234610604987201 [Eh]
	 Opposite-Spin Energy      =      -1.6281188018347619 [Eh]
	 Correlation Energy        =      -2.1515798623334819 [Eh]
	 Total Energy              =    -498.7103168037598948 [Eh]

	 ================> DF-SCS-MP2 Energies <==================
	-----------------------------------------------------------
	 SCS Same-Spin Scale       =       0.3333333333333333 [-]
	 SCS Opposite-Spin Scale   =       1.2000000000000000 [-]
	 SCS Same-Spin Energy      =      -0.1744870201662400 [Eh]
	 SCS Opposite-Spin Energy  =      -1.9537425622017142 [Eh]
	 SCS Correlation Energy    =      -2.1282295823679540 [Eh]
	 SCS Total Energy          =    -498.6869665237943536 [Eh]
	-----------------------------------------------------------

  Dipole Moment: [D]
     X:     0.5641      Y:    -0.1482      Z:    -1.2187     Total:     1.3511

*** Psi4 exiting successfully. Buy a developer a beer!
