                               Psi4 1.4a3.dev225

  ==> Input File <==

--------------------------------------------------------------------------
#psi4
#
memory 32 gb

molecule  {
0 1
  O        3.4036770    -0.5312700    -0.1399000
  O        1.8951010     0.2455770     1.3601080
  C       -0.2772440    -0.3351030    -0.4349210
  C       -0.8873890     0.9145300    -0.2106810
  C        1.1586640    -0.4340120    -0.8715550
  C       -1.0136460    -1.5104990    -0.2499190
  C       -2.2266560     0.9408910     0.1955810
  C       -0.1273370     2.2020410    -0.3962590
  C       -2.3465050    -1.4683140     0.1589870
  C       -2.9558630    -0.2342200     0.3827420
  C        2.1430500    -0.1948310     0.2522150
  H        1.3959000     0.2860400    -1.6653130
  H        1.3743792    -1.4408898    -1.3007911
  H       -0.5342380    -2.4720800    -0.4282290
  H       -2.7060670     1.9027110     0.3699220
  H        0.7120030     2.2634110     0.3019610
  H        0.2711870     2.2951320    -1.4130380
  H       -0.7808240     3.0602230    -0.2184200
  H       -2.9035660    -2.3916010     0.2984300
  H       -3.9950070    -0.1842490     0.6994320
  H        3.9774380    -0.3341110     0.6295290
units angstrom
no_reorient  #important for SAPT in psi4, default
symmetry c1  #important for SAPT in psi4, default
}

set PROPERTIES_ORIGIN ["COM"]
properties('MP2/aug-cc-pvtz', properties = ['dipole'])
--------------------------------------------------------------------------

    Molecular point group: c1
  Charge       = 0
  Multiplicity = 1
  Basis Set: AUG-CC-PVTZ
    Blend: AUG-CC-PVTZ
  Basis Set: (AUG-CC-PVTZ AUX)
    Blend: AUG-CC-PVTZ-JKFIT

    Orbital Energies [Eh]
    ---------------------

    Doubly Occupied:

       1A    -20.618802     2A    -20.554964     3A    -11.394786
       4A    -11.260866     5A    -11.244705     6A    -11.243528
       7A    -11.236679     8A    -11.234848     9A    -11.232435
      10A    -11.231175    11A    -11.222925    12A     -1.462862
      13A     -1.360352    14A     -1.160762    15A     -1.069992
      16A     -1.041551    17A     -0.981405    18A     -0.930377
      19A     -0.840787    20A     -0.811828    21A     -0.777760
      22A     -0.708742    23A     -0.688755    24A     -0.678374
      25A     -0.665990    26A     -0.627928    27A     -0.625573
      28A     -0.596403    29A     -0.577890    30A     -0.568073
      31A     -0.564496    32A     -0.547000    33A     -0.540647
      34A     -0.491473    35A     -0.486831    36A     -0.484026
      37A     -0.481411    38A     -0.457772    39A     -0.333520
      40A     -0.323497

  @DF-RHF Final Energy:  -496.56381479837574

   => Energetics <=

    Nuclear Repulsion Energy =            583.4265688853241727
    One-Electron Energy =               -1833.2571839452157292
    Two-Electron Energy =                 753.2668002615157548
    Total Energy =                       -496.5638147983756880
  Basis Set: (AUG-CC-PVTZ AUX)
    Blend: AUG-CC-PVTZ-RI
    Molecular point group: c1

    Geometry (in Angstrom), charge = 0, multiplicity = 1:

       Center              X                  Y                   Z               Mass
    ------------   -----------------  -----------------  -----------------  -----------------
         O            3.382722227438    -0.511306404358    -0.157782221201    15.994914619570
         O            1.874146227438     0.265540595642     1.342225778799    15.994914619570
         C           -0.298198772562    -0.315139404358    -0.452803221201    12.000000000000
         C           -0.908343772562     0.934493595642    -0.228563221201    12.000000000000
         C            1.137709227438    -0.414048404358    -0.889437221201    12.000000000000
         C           -1.034600772562    -1.490535404358    -0.267801221201    12.000000000000
         C           -2.247610772562     0.960854595642     0.177698778799    12.000000000000
         C           -0.148291772562     2.222004595642    -0.414141221201    12.000000000000
         C           -2.367459772562    -1.448350404358     0.141104778799    12.000000000000
         C           -2.976817772562    -0.214256404358     0.364859778799    12.000000000000
         C            2.122095227438    -0.174867404358     0.234332778799    12.000000000000
         H            1.374945227438     0.306003595642    -1.683195221201     1.007825032230
         H            1.353424427438    -1.420926204358    -1.318673321201     1.007825032230
         H           -0.555192772562    -2.452116404358    -0.446111221201     1.007825032230
         H           -2.727021772562     1.922674595642     0.352039778799     1.007825032230
         H            0.691048227438     2.283374595642     0.284078778799     1.007825032230
         H            0.250232227438     2.315095595642    -1.430920221201     1.007825032230
         H           -0.801778772562     3.080186595642    -0.236302221201     1.007825032230
         H           -2.924520772562    -2.371637404358     0.280547778799     1.007825032230
         H           -4.015961772562    -0.164285404358     0.681549778799     1.007825032230
         H            3.956483227438    -0.314147404358     0.611646778799     1.007825032230

  Basis Set: AUG-CC-PVTZ
    Blend: AUG-CC-PVTZ
  Basis Set: (AUG-CC-PVTZ AUX)
    Blend: AUG-CC-PVTZ-JKFIT
	 Reference Energy          =    -496.5638147983757449 [Eh]
	 Singles Energy            =      -0.0000000000000000 [Eh]
	 Same-Spin Energy          =      -0.5236818620385345 [Eh]
	 Opposite-Spin Energy      =      -1.6288344447031289 [Eh]
	 Correlation Energy        =      -2.1525163067416635 [Eh]
	 Total Energy              =    -498.7163311051174333 [Eh]

	 ================> DF-SCS-MP2 Energies <==================
	-----------------------------------------------------------
	 SCS Same-Spin Scale       =       0.3333333333333333 [-]
	 SCS Opposite-Spin Scale   =       1.2000000000000000 [-]
	 SCS Same-Spin Energy      =      -0.1745606206795115 [Eh]
	 SCS Opposite-Spin Energy  =      -1.9546013336437547 [Eh]
	 SCS Correlation Energy    =      -2.1291619543232660 [Eh]
	 SCS Total Energy          =    -498.6929767526989963 [Eh]
	-----------------------------------------------------------

  Dipole Moment: [D]
     X:     0.5398      Y:    -0.1122      Z:    -1.2086     Total:     1.3284

*** Psi4 exiting successfully. Buy a developer a beer!
