                               Psi4 1.4a3.dev225

  ==> Input File <==

--------------------------------------------------------------------------
#psi4
#
memory 32 gb

molecule  {
0 1
  O        3.4036770    -0.5312700    -0.1399000
  O        1.8951010     0.2455770     1.3601080
  C       -0.2772440    -0.3351030    -0.4349210
  C       -0.8873890     0.9145300    -0.2106810
  C        1.1586640    -0.4340120    -0.8715550
  C       -1.0136460    -1.5104990    -0.2499190
  C       -2.2266560     0.9408910     0.1955810
  C       -0.1273370     2.2020410    -0.3962590
  C       -2.3465050    -1.4683140     0.1589870
  C       -2.8513610    -0.0658159     0.3559201
  C        2.1430500    -0.1948310     0.2522150
  H        1.3959000     0.2860400    -1.6653130
  H        1.3705120    -1.4228390    -1.2930960
  H       -0.5342380    -2.4720800    -0.4282290
  H       -2.7060670     1.9027110     0.3699220
  H        0.7120030     2.2634110     0.3019610
  H        0.2711870     2.2951320    -1.4130380
  H       -0.7808240     3.0602230    -0.2184200
  H       -2.9035660    -2.3916010     0.2984300
  H       -3.9950070    -0.1842490     0.6994320
  H        3.9774380    -0.3341110     0.6295290
units angstrom
no_reorient  #important for SAPT in psi4, default
symmetry c1  #important for SAPT in psi4, default
}

set PROPERTIES_ORIGIN ["COM"]
properties('MP2/aug-cc-pvtz', properties = ['dipole'])
--------------------------------------------------------------------------

    Molecular point group: c1
  Charge       = 0
  Multiplicity = 1
  Basis Set: AUG-CC-PVTZ
    Blend: AUG-CC-PVTZ
  Basis Set: (AUG-CC-PVTZ AUX)
    Blend: AUG-CC-PVTZ-JKFIT

    Orbital Energies [Eh]
    ---------------------

    Doubly Occupied:

       1A    -20.618509     2A    -20.554461     3A    -11.394090
       4A    -11.257876     5A    -11.245756     6A    -11.240783
       7A    -11.240186     8A    -11.235913     9A    -11.228980
      10A    -11.223535    11A    -11.205509    12A     -1.462485
      13A     -1.359892    14A     -1.174085    15A     -1.082996
      16A     -1.037784    17A     -0.999324    18A     -0.924584
      19A     -0.833548    20A     -0.814099    21A     -0.776470
      22A     -0.708816    23A     -0.689007    24A     -0.677318
      25A     -0.669234    26A     -0.634295    27A     -0.618005
      28A     -0.596986    29A     -0.591821    30A     -0.569678
      31A     -0.553479    32A     -0.548814    33A     -0.534654
      34A     -0.501821    35A     -0.497386    36A     -0.482790
      37A     -0.458401    38A     -0.445395    39A     -0.363639
      40A     -0.308464

  @DF-RHF Final Energy:  -496.50135899301182

   => Energetics <=

    Nuclear Repulsion Energy =            586.1323680861680714
    One-Electron Energy =               -1838.5457186249871029
    Two-Electron Energy =                 755.9119915458072683
    Total Energy =                       -496.5013589930117632
  Basis Set: (AUG-CC-PVTZ AUX)
    Blend: AUG-CC-PVTZ-RI
    Molecular point group: c1

    Geometry (in Angstrom), charge = 0, multiplicity = 1:

       Center              X                  Y                   Z               Mass
    ------------   -----------------  -----------------  -----------------  -----------------
         O            3.374391831376    -0.524893845831    -0.155689121279    15.994914619570
         O            1.865815831376     0.251953154169     1.344318878721    15.994914619570
         C           -0.306529168624    -0.328726845831    -0.450710121279    12.000000000000
         C           -0.916674168624     0.920906154169    -0.226470121279    12.000000000000
         C            1.129378831376    -0.427635845831    -0.887344121279    12.000000000000
         C           -1.042931168624    -1.504122845831    -0.265708121279    12.000000000000
         C           -2.255941168624     0.947267154169     0.179791878721    12.000000000000
         C           -0.156622168624     2.208417154169    -0.412048121279    12.000000000000
         C           -2.375790168624    -1.461937845831     0.143197878721    12.000000000000
         C           -2.880646168624    -0.059439745831     0.340130978721    12.000000000000
         C            2.113764831376    -0.188454845831     0.236425878721    12.000000000000
         H            1.366614831376     0.292416154169    -1.681102121279     1.007825032230
         H            1.341226831376    -1.416462845831    -1.308885121279     1.007825032230
         H           -0.563523168624    -2.465703845831    -0.444018121279     1.007825032230
         H           -2.735352168624     1.909087154169     0.354132878721     1.007825032230
         H            0.682717831376     2.269787154169     0.286171878721     1.007825032230
         H            0.241901831376     2.301508154169    -1.428827121279     1.007825032230
         H           -0.810109168624     3.066599154169    -0.234209121279     1.007825032230
         H           -2.932851168624    -2.385224845831     0.282640878721     1.007825032230
         H           -4.024292168624    -0.177872845831     0.683642878721     1.007825032230
         H            3.948152831376    -0.327734845831     0.613739878721     1.007825032230

  Basis Set: AUG-CC-PVTZ
    Blend: AUG-CC-PVTZ
  Basis Set: (AUG-CC-PVTZ AUX)
    Blend: AUG-CC-PVTZ-JKFIT
	 Reference Energy          =    -496.5013589930118201 [Eh]
	 Singles Energy            =      -0.0000000000000000 [Eh]
	 Same-Spin Energy          =      -0.5235127290605842 [Eh]
	 Opposite-Spin Energy      =      -1.6304410887617082 [Eh]
	 Correlation Energy        =      -2.1539538178222926 [Eh]
	 Total Energy              =    -498.6553128108341184 [Eh]

	 ================> DF-SCS-MP2 Energies <==================
	-----------------------------------------------------------
	 SCS Same-Spin Scale       =       0.3333333333333333 [-]
	 SCS Opposite-Spin Scale   =       1.2000000000000000 [-]
	 SCS Same-Spin Energy      =      -0.1745042430201947 [Eh]
	 SCS Opposite-Spin Energy  =      -1.9565293065140499 [Eh]
	 SCS Correlation Energy    =      -2.1310335495342447 [Eh]
	 SCS Total Energy          =    -498.6323925425460857 [Eh]
	-----------------------------------------------------------

  Dipole Moment: [D]
     X:     0.5980      Y:    -0.1406      Z:    -1.2331     Total:     1.3776

*** Psi4 exiting successfully. Buy a developer a beer!
