                               Psi4 1.4a3.dev225

  ==> Input File <==

--------------------------------------------------------------------------
#psi4
#
memory 32 gb

molecule  {
0 1
  O        3.4036770    -0.5312700    -0.1399000
  O        1.8951010     0.2455770     1.3601080
  C       -0.2772440    -0.3351030    -0.4349210
  C       -0.8873890     0.9145300    -0.2106810
  C        1.1586640    -0.4340120    -0.8715550
  C       -1.0136460    -1.5104990    -0.2499190
  C       -2.0353019     0.9371245     0.1375344
  C       -0.1273370     2.2020410    -0.3962590
  C       -2.3465050    -1.4683140     0.1589870
  C       -2.9558630    -0.2342200     0.3827420
  C        2.1430500    -0.1948310     0.2522150
  H        1.3959000     0.2860400    -1.6653130
  H        1.3705120    -1.4228390    -1.2930960
  H       -0.5342380    -2.4720800    -0.4282290
  H       -2.7060670     1.9027110     0.3699220
  H        0.7120030     2.2634110     0.3019610
  H        0.2711870     2.2951320    -1.4130380
  H       -0.7808240     3.0602230    -0.2184200
  H       -2.9035660    -2.3916010     0.2984300
  H       -3.9950070    -0.1842490     0.6994320
  H        3.9774380    -0.3341110     0.6295290
units angstrom
no_reorient  #important for SAPT in psi4, default
symmetry c1  #important for SAPT in psi4, default
}

set PROPERTIES_ORIGIN ["COM"]
properties('MP2/aug-cc-pvtz', properties = ['dipole'])
--------------------------------------------------------------------------

    Molecular point group: c1
  Charge       = 0
  Multiplicity = 1
  Basis Set: AUG-CC-PVTZ
    Blend: AUG-CC-PVTZ
  Basis Set: (AUG-CC-PVTZ AUX)
    Blend: AUG-CC-PVTZ-JKFIT

    Orbital Energies [Eh]
    ---------------------

    Doubly Occupied:

       1A    -20.619301     2A    -20.555508     3A    -11.395315
       4A    -11.259211     5A    -11.248298     6A    -11.244057
       7A    -11.235758     8A    -11.233468     9A    -11.225492
      10A    -11.220395    11A    -11.214821    12A     -1.463386
      13A     -1.360938    14A     -1.178988    15A     -1.068115
      16A     -1.061050    17A     -0.968185    18A     -0.938081
      19A     -0.851144    20A     -0.799398    21A     -0.785280
      22A     -0.709128    23A     -0.690386    24A     -0.679043
      25A     -0.665450    26A     -0.632563    27A     -0.616670
      28A     -0.598199    29A     -0.577939    30A     -0.573074
      31A     -0.563861    32A     -0.550976    33A     -0.531535
      34A     -0.504372    35A     -0.496486    36A     -0.482673
      37A     -0.458618    38A     -0.442943    39A     -0.358928
      40A     -0.316616

  @DF-RHF Final Energy:  -496.50311633953822

   => Energetics <=

    Nuclear Repulsion Energy =            586.7873835283770632
    One-Electron Energy =               -1839.8297023085744968
    Two-Electron Energy =                 756.5392024406593237
    Total Energy =                       -496.5031163395382237
  Basis Set: (AUG-CC-PVTZ AUX)
    Blend: AUG-CC-PVTZ-RI
    Molecular point group: c1

    Geometry (in Angstrom), charge = 0, multiplicity = 1:

       Center              X                  Y                   Z               Mass
    ------------   -----------------  -----------------  -----------------  -----------------
         O            3.367446815467    -0.511126446355    -0.153192278506    15.994914619570
         O            1.858870815467     0.265720553645     1.346815721494    15.994914619570
         C           -0.313474184533    -0.314959446355    -0.448213278506    12.000000000000
         C           -0.923619184533     0.934673553645    -0.223973278506    12.000000000000
         C            1.122433815467    -0.413868446355    -0.884847278506    12.000000000000
         C           -1.049876184533    -1.490355446355    -0.263211278506    12.000000000000
         C           -2.071532084533     0.957268053645     0.124242121494    12.000000000000
         C           -0.163567184533     2.222184553645    -0.409551278506    12.000000000000
         C           -2.382735184533    -1.448170446355     0.145694721494    12.000000000000
         C           -2.992093184533    -0.214076446355     0.369449721494    12.000000000000
         C            2.106819815467    -0.174687446355     0.238922721494    12.000000000000
         H            1.359669815467     0.306183553645    -1.678605278506     1.007825032230
         H            1.334281815467    -1.402695446355    -1.306388278506     1.007825032230
         H           -0.570468184533    -2.451936446355    -0.441521278506     1.007825032230
         H           -2.742297184533     1.922854553645     0.356629721494     1.007825032230
         H            0.675772815467     2.283554553645     0.288668721494     1.007825032230
         H            0.234956815467     2.315275553645    -1.426330278506     1.007825032230
         H           -0.817054184533     3.080366553645    -0.231712278506     1.007825032230
         H           -2.939796184533    -2.371457446355     0.285137721494     1.007825032230
         H           -4.031237184533    -0.164105446355     0.686139721494     1.007825032230
         H            3.941207815467    -0.313967446355     0.616236721494     1.007825032230

  Basis Set: AUG-CC-PVTZ
    Blend: AUG-CC-PVTZ
  Basis Set: (AUG-CC-PVTZ AUX)
    Blend: AUG-CC-PVTZ-JKFIT
	 Reference Energy          =    -496.5031163395382237 [Eh]
	 Singles Energy            =      -0.0000000000000000 [Eh]
	 Same-Spin Energy          =      -0.5229439369795063 [Eh]
	 Opposite-Spin Energy      =      -1.6304223119357566 [Eh]
	 Correlation Energy        =      -2.1533662489152627 [Eh]
	 Total Energy              =    -498.6564825884535139 [Eh]

	 ================> DF-SCS-MP2 Energies <==================
	-----------------------------------------------------------
	 SCS Same-Spin Scale       =       0.3333333333333333 [-]
	 SCS Opposite-Spin Scale   =       1.2000000000000000 [-]
	 SCS Same-Spin Energy      =      -0.1743146456598354 [Eh]
	 SCS Opposite-Spin Energy  =      -1.9565067743229079 [Eh]
	 SCS Correlation Energy    =      -2.1308214199827433 [Eh]
	 SCS Total Energy          =    -498.6339377595209612 [Eh]
	-----------------------------------------------------------

  Dipole Moment: [D]
     X:     0.5229      Y:    -0.2891      Z:    -1.2165     Total:     1.3554

*** Psi4 exiting successfully. Buy a developer a beer!
