                               Psi4 1.4a3.dev225

  ==> Input File <==

--------------------------------------------------------------------------
#psi4
#
memory 32 gb

molecule  {
0 1
  O        3.4195270    -0.5186677    -0.0968725
  O        1.8951010     0.2455770     1.3601080
  C       -0.2772440    -0.3351030    -0.4349210
  C       -0.8873890     0.9145300    -0.2106810
  C        1.1586640    -0.4340120    -0.8715550
  C       -1.0136460    -1.5104990    -0.2499190
  C       -2.2266560     0.9408910     0.1955810
  C       -0.1273370     2.2020410    -0.3962590
  C       -2.3465050    -1.4683140     0.1589870
  C       -2.9558630    -0.2342200     0.3827420
  C        2.1430500    -0.1948310     0.2522150
  H        1.3959000     0.2860400    -1.6653130
  H        1.3705120    -1.4228390    -1.2930960
  H       -0.5342380    -2.4720800    -0.4282290
  H       -2.7060670     1.9027110     0.3699220
  H        0.7120030     2.2634110     0.3019610
  H        0.2711870     2.2951320    -1.4130380
  H       -0.7808240     3.0602230    -0.2184200
  H       -2.9035660    -2.3916010     0.2984300
  H       -3.9950070    -0.1842490     0.6994320
  H        3.9774380    -0.3341110     0.6295290
units angstrom
no_reorient  #important for SAPT in psi4, default
symmetry c1  #important for SAPT in psi4, default
}

set PROPERTIES_ORIGIN ["COM"]
properties('MP2/aug-cc-pvtz', properties = ['dipole'])
--------------------------------------------------------------------------

    Molecular point group: c1
  Charge       = 0
  Multiplicity = 1
  Basis Set: AUG-CC-PVTZ
    Blend: AUG-CC-PVTZ
  Basis Set: (AUG-CC-PVTZ AUX)
    Blend: AUG-CC-PVTZ-JKFIT

    Orbital Energies [Eh]
    ---------------------

    Doubly Occupied:

       1A    -20.612240     2A    -20.552513     3A    -11.394598
       4A    -11.260848     5A    -11.245475     6A    -11.244196
       7A    -11.237415     8A    -11.235409     9A    -11.232925
      10A    -11.231595    11A    -11.223158    12A     -1.467473
      13A     -1.360537    14A     -1.161514    15A     -1.072004
      16A     -1.042260    17A     -0.983579    18A     -0.931126
      19A     -0.848107    20A     -0.813985    21A     -0.782022
      22A     -0.709030    23A     -0.690630    24A     -0.679143
      25A     -0.667175    26A     -0.627949    27A     -0.626841
      28A     -0.595107    29A     -0.579047    30A     -0.568487
      31A     -0.565873    32A     -0.550382    33A     -0.541016
      34A     -0.491261    35A     -0.487620    36A     -0.484684
      37A     -0.480020    38A     -0.457148    39A     -0.334193
      40A     -0.324057

  @DF-RHF Final Energy:  -496.56564472027685

   => Energetics <=

    Nuclear Repulsion Energy =            583.5959098307829436
    One-Electron Energy =               -1833.5378309298541808
    Two-Electron Energy =                 753.3762763787945005
    Total Energy =                       -496.5656447202768504
  Basis Set: (AUG-CC-PVTZ AUX)
    Blend: AUG-CC-PVTZ-RI
    Molecular point group: c1

    Geometry (in Angstrom), charge = 0, multiplicity = 1:

       Center              X                  Y                   Z               Mass
    ------------   -----------------  -----------------  -----------------  -----------------
         O            3.396908836153    -0.500168538108    -0.119392459654    15.994914619570
         O            1.872482836153     0.264076161892     1.337588040346    15.994914619570
         C           -0.299862163847    -0.316603838108    -0.457440959654    12.000000000000
         C           -0.910007163847     0.933029161892    -0.233200959654    12.000000000000
         C            1.136045836153    -0.415512838108    -0.894074959654    12.000000000000
         C           -1.036264163847    -1.491999838108    -0.272438959654    12.000000000000
         C           -2.249274163847     0.959390161892     0.173061040346    12.000000000000
         C           -0.149955163847     2.220540161892    -0.418778959654    12.000000000000
         C           -2.369123163847    -1.449814838108     0.136467040346    12.000000000000
         C           -2.978481163847    -0.215720838108     0.360222040346    12.000000000000
         C            2.120431836153    -0.176331838108     0.229695040346    12.000000000000
         H            1.373281836153     0.304539161892    -1.687832959654     1.007825032230
         H            1.347893836153    -1.404339838108    -1.315615959654     1.007825032230
         H           -0.556856163847    -2.453580838108    -0.450748959654     1.007825032230
         H           -2.728685163847     1.921210161892     0.347402040346     1.007825032230
         H            0.689384836153     2.281910161892     0.279441040346     1.007825032230
         H            0.248568836153     2.313631161892    -1.435557959654     1.007825032230
         H           -0.803442163847     3.078722161892    -0.240939959654     1.007825032230
         H           -2.926184163847    -2.373101838108     0.275910040346     1.007825032230
         H           -4.017625163847    -0.165749838108     0.676912040346     1.007825032230
         H            3.954819836153    -0.315611838108     0.607009040346     1.007825032230

  Basis Set: AUG-CC-PVTZ
    Blend: AUG-CC-PVTZ
  Basis Set: (AUG-CC-PVTZ AUX)
    Blend: AUG-CC-PVTZ-JKFIT
	 Reference Energy          =    -496.5656447202768504 [Eh]
	 Singles Energy            =      -0.0000000000000000 [Eh]
	 Same-Spin Energy          =      -0.5227862613263288 [Eh]
	 Opposite-Spin Energy      =      -1.6268299914876505 [Eh]
	 Correlation Energy        =      -2.1496162528139795 [Eh]
	 Total Energy              =    -498.7152609730908353 [Eh]

	 ================> DF-SCS-MP2 Energies <==================
	-----------------------------------------------------------
	 SCS Same-Spin Scale       =       0.3333333333333333 [-]
	 SCS Opposite-Spin Scale   =       1.2000000000000000 [-]
	 SCS Same-Spin Energy      =      -0.1742620871087762 [Eh]
	 SCS Opposite-Spin Energy  =      -1.9521959897851806 [Eh]
	 SCS Correlation Energy    =      -2.1264580768939569 [Eh]
	 SCS Total Energy          =    -498.6921027971708327 [Eh]
	-----------------------------------------------------------

  Dipole Moment: [D]
     X:     0.4477      Y:    -0.1234      Z:    -1.2710     Total:     1.3532

*** Psi4 exiting successfully. Buy a developer a beer!
