                               Psi4 1.4a3.dev225

  ==> Input File <==

--------------------------------------------------------------------------
#psi4
#
memory 32 gb

molecule  {
0 1
  O        3.4036770    -0.5312700    -0.1399000
  O        1.8951010     0.2455770     1.3601080
  C       -0.2772440    -0.3351030    -0.4349210
  C       -0.8873890     0.9145300    -0.2106810
  C        1.1586640    -0.4340120    -0.8715550
  C       -1.0136460    -1.5104990    -0.2499190
  C       -2.2266560     0.9408910     0.1955810
  C       -0.1273370     2.2020410    -0.3962590
  C       -2.3465050    -1.4683140     0.1589870
  C       -2.9558630    -0.2342200     0.3827420
  C        2.1430500    -0.1948310     0.2522150
  H        1.3959000     0.2860400    -1.6653130
  H        1.3705120    -1.4228390    -1.2930960
  H       -0.4462052    -2.6486533    -0.4609717
  H       -2.7060670     1.9027110     0.3699220
  H        0.7120030     2.2634110     0.3019610
  H        0.2711870     2.2951320    -1.4130380
  H       -0.7808240     3.0602230    -0.2184200
  H       -2.9035660    -2.3916010     0.2984300
  H       -3.9950070    -0.1842490     0.6994320
  H        3.9774380    -0.3341110     0.6295290
units angstrom
no_reorient  #important for SAPT in psi4, default
symmetry c1  #important for SAPT in psi4, default
}

set PROPERTIES_ORIGIN ["COM"]
properties('MP2/aug-cc-pvtz', properties = ['dipole'])
--------------------------------------------------------------------------

    Molecular point group: c1
  Charge       = 0
  Multiplicity = 1
  Basis Set: AUG-CC-PVTZ
    Blend: AUG-CC-PVTZ
  Basis Set: (AUG-CC-PVTZ AUX)
    Blend: AUG-CC-PVTZ-JKFIT

    Orbital Energies [Eh]
    ---------------------

    Doubly Occupied:

       1A    -20.618743     2A    -20.554757     3A    -11.394597
       4A    -11.258733     5A    -11.258458     6A    -11.247039
       7A    -11.245592     8A    -11.236820     9A    -11.235045
      10A    -11.232461    11A    -11.223933    12A     -1.462753
      13A     -1.360217    14A     -1.161675    15A     -1.071571
      16A     -1.040504    17A     -0.979935    18A     -0.931735
      19A     -0.839316    20A     -0.804111    21A     -0.779307
      22A     -0.708654    23A     -0.689087    24A     -0.676386
      25A     -0.664757    26A     -0.628735    27A     -0.612146
      28A     -0.596501    29A     -0.573924    30A     -0.567411
      31A     -0.562896    32A     -0.542855    33A     -0.541588
      34A     -0.492771    35A     -0.486127    36A     -0.482097
      37A     -0.475357    38A     -0.457747    39A     -0.335180
      40A     -0.325127

  @DF-RHF Final Energy:  -496.54238413446444

   => Energetics <=

    Nuclear Repulsion Energy =            582.6032205399018267
    One-Electron Energy =               -1831.5779105943261129
    Two-Electron Energy =                 752.4323059199597310
    Total Energy =                       -496.5423841344644416
  Basis Set: (AUG-CC-PVTZ AUX)
    Blend: AUG-CC-PVTZ-RI
    Molecular point group: c1

    Geometry (in Angstrom), charge = 0, multiplicity = 1:

       Center              X                  Y                   Z               Mass
    ------------   -----------------  -----------------  -----------------  -----------------
         O            3.382156989323    -0.510241801251    -0.157614006892    15.994914619570
         O            1.873580989323     0.266605198749     1.342393993108    15.994914619570
         C           -0.298764010677    -0.314074801251    -0.452635006892    12.000000000000
         C           -0.908909010677     0.935558198749    -0.228395006892    12.000000000000
         C            1.137143989323    -0.412983801251    -0.889269006892    12.000000000000
         C           -1.035166010677    -1.489470801251    -0.267633006892    12.000000000000
         C           -2.248176010677     0.961919198749     0.177866993108    12.000000000000
         C           -0.148857010677     2.223069198749    -0.413973006892    12.000000000000
         C           -2.368025010677    -1.447285801251     0.141272993108    12.000000000000
         C           -2.977383010677    -0.213191801251     0.365027993108    12.000000000000
         C            2.121529989323    -0.173802801251     0.234500993108    12.000000000000
         H            1.374379989323     0.307068198749    -1.683027006892     1.007825032230
         H            1.348991989323    -1.401810801251    -1.310810006892     1.007825032230
         H           -0.467725210677    -2.627625101251    -0.478685706892     1.007825032230
         H           -2.727587010677     1.923739198749     0.352207993108     1.007825032230
         H            0.690482989323     2.284439198749     0.284246993108     1.007825032230
         H            0.249666989323     2.316160198749    -1.430752006892     1.007825032230
         H           -0.802344010677     3.081251198749    -0.236134006892     1.007825032230
         H           -2.925086010677    -2.370572801251     0.280715993108     1.007825032230
         H           -4.016527010677    -0.163220801251     0.681717993108     1.007825032230
         H            3.955917989323    -0.313082801251     0.611814993108     1.007825032230

  Basis Set: AUG-CC-PVTZ
    Blend: AUG-CC-PVTZ
  Basis Set: (AUG-CC-PVTZ AUX)
    Blend: AUG-CC-PVTZ-JKFIT
	 Reference Energy          =    -496.5423841344644416 [Eh]
	 Singles Energy            =      -0.0000000000000000 [Eh]
	 Same-Spin Energy          =      -0.5242132602620645 [Eh]
	 Opposite-Spin Energy      =      -1.6309341412821352 [Eh]
	 Correlation Energy        =      -2.1551474015441996 [Eh]
	 Total Energy              =    -498.6975315360086256 [Eh]

	 ================> DF-SCS-MP2 Energies <==================
	-----------------------------------------------------------
	 SCS Same-Spin Scale       =       0.3333333333333333 [-]
	 SCS Opposite-Spin Scale   =       1.2000000000000000 [-]
	 SCS Same-Spin Energy      =      -0.1747377534206881 [Eh]
	 SCS Opposite-Spin Energy  =      -1.9571209695385621 [Eh]
	 SCS Correlation Energy    =      -2.1318587229592501 [Eh]
	 SCS Total Energy          =    -498.6742428574236783 [Eh]
	-----------------------------------------------------------

  Dipole Moment: [D]
     X:     0.4856      Y:    -0.0031      Z:    -1.1898     Total:     1.2851

*** Psi4 exiting successfully. Buy a developer a beer!
