                               Psi4 1.4a3.dev225

  ==> Input File <==

--------------------------------------------------------------------------
#psi4
#
memory 32 gb

molecule  {
0 1
  O        3.4036770    -0.5312700    -0.1399000
  O        1.8951010     0.2455770     1.3601080
  C       -0.2772440    -0.3351030    -0.4349210
  C       -0.8873890     0.9145300    -0.2106810
  C        1.1586640    -0.4340120    -0.8715550
  C       -1.0136460    -1.5104990    -0.2499190
  C       -2.2266560     0.9408910     0.1955810
  C       -0.1273370     2.2020410    -0.3962590
  C       -2.3465050    -1.4683140     0.1589870
  C       -2.9558630    -0.2342200     0.3827420
  C        2.1430500    -0.1948310     0.2522150
  H        1.3959000     0.2860400    -1.6653130
  H        1.3705120    -1.4228390    -1.2930960
  H       -0.5342380    -2.4720800    -0.4282290
  H       -2.7060670     1.9027110     0.3699220
  H        0.7120030     2.2634110     0.3019610
  H        0.2711870     2.2951320    -1.4130380
  H       -0.7808240     3.0602230    -0.2184200
  H       -2.8010991    -2.2217698     0.2727806
  H       -3.9950070    -0.1842490     0.6994320
  H        3.9774380    -0.3341110     0.6295290
units angstrom
no_reorient  #important for SAPT in psi4, default
symmetry c1  #important for SAPT in psi4, default
}

set PROPERTIES_ORIGIN ["COM"]
properties('MP2/aug-cc-pvtz', properties = ['dipole'])
--------------------------------------------------------------------------

    Molecular point group: c1
  Charge       = 0
  Multiplicity = 1
  Basis Set: AUG-CC-PVTZ
    Blend: AUG-CC-PVTZ
  Basis Set: (AUG-CC-PVTZ AUX)
    Blend: AUG-CC-PVTZ-JKFIT

    Orbital Energies [Eh]
    ---------------------

    Doubly Occupied:

       1A    -20.618595     2A    -20.554567     3A    -11.394307
       4A    -11.258051     5A    -11.243905     6A    -11.242692
       7A    -11.235346     8A    -11.233427     9A    -11.230057
      10A    -11.222515    11A    -11.208518    12A     -1.462591
      13A     -1.360023    14A     -1.161188    15A     -1.072997
      16A     -1.045053    17A     -0.981083    18A     -0.939013
      19A     -0.840223    20A     -0.818488    21A     -0.788977
      22A     -0.710920    23A     -0.697695    24A     -0.684044
      25A     -0.666351    26A     -0.633373    27A     -0.627409
      28A     -0.596088    29A     -0.584758    30A     -0.571019
      31A     -0.567278    32A     -0.548308    33A     -0.540116
      34A     -0.491851    35A     -0.488726    36A     -0.485747
      37A     -0.480984    38A     -0.457486    39A     -0.332590
      40A     -0.323004

  @DF-RHF Final Energy:  -496.52974239668674

   => Energetics <=

    Nuclear Repulsion Energy =            584.7231723190035382
    One-Electron Energy =               -1835.7071048750124191
    Two-Electron Energy =                 754.4541901593220246
    Total Energy =                       -496.5297423966867427
  Basis Set: (AUG-CC-PVTZ AUX)
    Blend: AUG-CC-PVTZ-RI
    Molecular point group: c1

    Geometry (in Angstrom), charge = 0, multiplicity = 1:

       Center              X                  Y                   Z               Mass
    ------------   -----------------  -----------------  -----------------  -----------------
         O            3.382060053003    -0.512568179568    -0.157661643973    15.994914619570
         O            1.873484053003     0.264278820432     1.342346356027    15.994914619570
         C           -0.298860946997    -0.316401179568    -0.452682643973    12.000000000000
         C           -0.909005946997     0.933231820432    -0.228442643973    12.000000000000
         C            1.137047053003    -0.415310179568    -0.889316643973    12.000000000000
         C           -1.035262946997    -1.491797179568    -0.267680643973    12.000000000000
         C           -2.248272946997     0.959592820432     0.177819356027    12.000000000000
         C           -0.148953946997     2.220742820432    -0.414020643973    12.000000000000
         C           -2.368121946997    -1.449612179568     0.141225356027    12.000000000000
         C           -2.977479946997    -0.215518179568     0.364980356027    12.000000000000
         C            2.121433053003    -0.176129179568     0.234453356027    12.000000000000
         H            1.374283053003     0.304741820432    -1.683074643973     1.007825032230
         H            1.348895053003    -1.404137179568    -1.310857643973     1.007825032230
         H           -0.555854946997    -2.453378179568    -0.445990643973     1.007825032230
         H           -2.727683946997     1.921412820432     0.352160356027     1.007825032230
         H            0.690386053003     2.282112820432     0.284199356027     1.007825032230
         H            0.249570053003     2.313833820432    -1.430799643973     1.007825032230
         H           -0.802440946997     3.078924820432    -0.236181643973     1.007825032230
         H           -2.822716046997    -2.203067979568     0.255018956027     1.007825032230
         H           -4.016623946997    -0.165547179568     0.681670356027     1.007825032230
         H            3.955821053003    -0.315409179568     0.611767356027     1.007825032230

  Basis Set: AUG-CC-PVTZ
    Blend: AUG-CC-PVTZ
  Basis Set: (AUG-CC-PVTZ AUX)
    Blend: AUG-CC-PVTZ-JKFIT
	 Reference Energy          =    -496.5297423966867427 [Eh]
	 Singles Energy            =      -0.0000000000000000 [Eh]
	 Same-Spin Energy          =      -0.5234889932586760 [Eh]
	 Opposite-Spin Energy      =      -1.6281172222726226 [Eh]
	 Correlation Energy        =      -2.1516062155312987 [Eh]
	 Total Energy              =    -498.6813486122180166 [Eh]

	 ================> DF-SCS-MP2 Energies <==================
	-----------------------------------------------------------
	 SCS Same-Spin Scale       =       0.3333333333333333 [-]
	 SCS Opposite-Spin Scale   =       1.2000000000000000 [-]
	 SCS Same-Spin Energy      =      -0.1744963310862253 [Eh]
	 SCS Opposite-Spin Energy  =      -1.9537406667271471 [Eh]
	 SCS Correlation Energy    =      -2.1282369978133726 [Eh]
	 SCS Total Energy          =    -498.6579793945001029 [Eh]
	-----------------------------------------------------------

  Dipole Moment: [D]
     X:     0.5128      Y:    -0.1541      Z:    -1.2063     Total:     1.3198

*** Psi4 exiting successfully. Buy a developer a beer!
