                               Psi4 1.4a3.dev225

  ==> Input File <==

--------------------------------------------------------------------------
#psi4
#
memory 32 gb

molecule  {
0 1
  O        3.4036770    -0.5312700    -0.1399000
  O        1.8951010     0.2455770     1.3601080
  C       -0.2772440    -0.3351030    -0.4349210
  C       -0.8873890     0.9145300    -0.2106810
  C        1.1586640    -0.4340120    -0.8715550
  C       -1.0136460    -1.5104990    -0.2499190
  C       -2.3223331     0.9427742     0.2246043
  C       -0.1273370     2.2020410    -0.3962590
  C       -2.3465050    -1.4683140     0.1589870
  C       -2.9558630    -0.2342200     0.3827420
  C        2.1430500    -0.1948310     0.2522150
  H        1.3959000     0.2860400    -1.6653130
  H        1.3705120    -1.4228390    -1.2930960
  H       -0.5342380    -2.4720800    -0.4282290
  H       -2.7060670     1.9027110     0.3699220
  H        0.7120030     2.2634110     0.3019610
  H        0.2711870     2.2951320    -1.4130380
  H       -0.7808240     3.0602230    -0.2184200
  H       -2.9035660    -2.3916010     0.2984300
  H       -3.9950070    -0.1842490     0.6994320
  H        3.9774380    -0.3341110     0.6295290
units angstrom
no_reorient  #important for SAPT in psi4, default
symmetry c1  #important for SAPT in psi4, default
}

set PROPERTIES_ORIGIN ["COM"]
properties('MP2/aug-cc-pvtz', properties = ['dipole'])
--------------------------------------------------------------------------

    Molecular point group: c1
  Charge       = 0
  Multiplicity = 1
  Basis Set: AUG-CC-PVTZ
    Blend: AUG-CC-PVTZ
  Basis Set: (AUG-CC-PVTZ AUX)
    Blend: AUG-CC-PVTZ-JKFIT

    Orbital Energies [Eh]
    ---------------------

    Doubly Occupied:

       1A    -20.618713     2A    -20.554643     3A    -11.394380
       4A    -11.258408     5A    -11.253699     6A    -11.242251
       7A    -11.237804     8A    -11.232628     9A    -11.232252
      10A    -11.229313    11A    -11.224243    12A     -1.462692
      13A     -1.360086    14A     -1.156272    15A     -1.073889
      16A     -1.034493    17A     -0.988654    18A     -0.927969
      19A     -0.836991    20A     -0.816787    21A     -0.774287
      22A     -0.708945    23A     -0.689353    24A     -0.679700
      25A     -0.666162    26A     -0.634590    27A     -0.623893
      28A     -0.596035    29A     -0.582197    30A     -0.567922
      31A     -0.561724    32A     -0.547041    33A     -0.545795
      34A     -0.496053    35A     -0.489542    36A     -0.481550
      37A     -0.469104    38A     -0.457580    39A     -0.340799
      40A     -0.313731

  @DF-RHF Final Energy:  -496.55275524423439

   => Energetics <=

    Nuclear Repulsion Energy =            582.1622497957730502
    One-Electron Energy =               -1830.7056676818926917
    Two-Electron Energy =                 751.9906626418852511
    Total Energy =                       -496.5527552442343904
  Basis Set: (AUG-CC-PVTZ AUX)
    Blend: AUG-CC-PVTZ-RI
    Molecular point group: c1

    Geometry (in Angstrom), charge = 0, multiplicity = 1:

       Center              X                  Y                   Z               Mass
    ------------   -----------------  -----------------  -----------------  -----------------
         O            3.390398894351    -0.511578217312    -0.160154710510    15.994914619570
         O            1.881822894351     0.265268782688     1.339853289490    15.994914619570
         C           -0.290522105649    -0.315411217312    -0.455175710510    12.000000000000
         C           -0.900667105649     0.934221782688    -0.230935710510    12.000000000000
         C            1.145385894351    -0.414320217312    -0.891809710510    12.000000000000
         C           -1.026924105649    -1.490807217312    -0.270173710510    12.000000000000
         C           -2.335611205649     0.962465982688     0.204349589490    12.000000000000
         C           -0.140615105649     2.221732782688    -0.416513710510    12.000000000000
         C           -2.359783105649    -1.448622217312     0.138732289490    12.000000000000
         C           -2.969141105649    -0.214528217312     0.362487289490    12.000000000000
         C            2.129771894351    -0.175139217312     0.231960289490    12.000000000000
         H            1.382621894351     0.305731782688    -1.685567710510     1.007825032230
         H            1.357233894351    -1.403147217312    -1.313350710510     1.007825032230
         H           -0.547516105649    -2.452388217312    -0.448483710510     1.007825032230
         H           -2.719345105649     1.922402782688     0.349667289490     1.007825032230
         H            0.698724894351     2.283102782688     0.281706289490     1.007825032230
         H            0.257908894351     2.314823782688    -1.433292710510     1.007825032230
         H           -0.794102105649     3.079914782688    -0.238674710510     1.007825032230
         H           -2.916844105649    -2.371909217312     0.278175289490     1.007825032230
         H           -4.008285105649    -0.164557217312     0.679177289490     1.007825032230
         H            3.964159894351    -0.314419217312     0.609274289490     1.007825032230

  Basis Set: AUG-CC-PVTZ
    Blend: AUG-CC-PVTZ
  Basis Set: (AUG-CC-PVTZ AUX)
    Blend: AUG-CC-PVTZ-JKFIT
	 Reference Energy          =    -496.5527552442343904 [Eh]
	 Singles Energy            =      -0.0000000000000000 [Eh]
	 Same-Spin Energy          =      -0.5235678606407443 [Eh]
	 Opposite-Spin Energy      =      -1.6291978947688426 [Eh]
	 Correlation Energy        =      -2.1527657554095869 [Eh]
	 Total Energy              =    -498.7055209996439658 [Eh]

	 ================> DF-SCS-MP2 Energies <==================
	-----------------------------------------------------------
	 SCS Same-Spin Scale       =       0.3333333333333333 [-]
	 SCS Opposite-Spin Scale   =       1.2000000000000000 [-]
	 SCS Same-Spin Energy      =      -0.1745226202135814 [Eh]
	 SCS Opposite-Spin Energy  =      -1.9550374737226111 [Eh]
	 SCS Correlation Energy    =      -2.1295600939361923 [Eh]
	 SCS Total Energy          =    -498.6823153381706106 [Eh]
	-----------------------------------------------------------

  Dipole Moment: [D]
     X:     0.5643      Y:    -0.0660      Z:    -1.2131     Total:     1.3395

*** Psi4 exiting successfully. Buy a developer a beer!
