                               Psi4 1.4a3.dev225

  ==> Input File <==

--------------------------------------------------------------------------
#psi4
#
memory 32 gb

molecule  {
0 1
  O        3.4036770    -0.5312700    -0.1399000
  O        1.8951010     0.2455770     1.3601080
  C       -0.2772440    -0.3351030    -0.4349210
  C       -0.8873890     0.9145300    -0.2106810
  C        1.1586640    -0.4340120    -0.8715550
  C       -1.0136460    -1.5104990    -0.2499190
  C       -2.2266560     0.9408910     0.1955810
  C       -0.1273370     2.2020410    -0.3962590
  C       -2.3465050    -1.4683140     0.1589870
  C       -2.9558630    -0.2342200     0.3827420
  C        2.1328692    -0.1767478     0.2977051
  H        1.3959000     0.2860400    -1.6653130
  H        1.3705120    -1.4228390    -1.2930960
  H       -0.5342380    -2.4720800    -0.4282290
  H       -2.7060670     1.9027110     0.3699220
  H        0.7120030     2.2634110     0.3019610
  H        0.2711870     2.2951320    -1.4130380
  H       -0.7808240     3.0602230    -0.2184200
  H       -2.9035660    -2.3916010     0.2984300
  H       -3.9950070    -0.1842490     0.6994320
  H        3.9774380    -0.3341110     0.6295290
units angstrom
no_reorient  #important for SAPT in psi4, default
symmetry c1  #important for SAPT in psi4, default
}

set PROPERTIES_ORIGIN ["COM"]
properties('MP2/aug-cc-pvtz', properties = ['dipole'])
--------------------------------------------------------------------------

    Molecular point group: c1
  Charge       = 0
  Multiplicity = 1
  Basis Set: AUG-CC-PVTZ
    Blend: AUG-CC-PVTZ
  Basis Set: (AUG-CC-PVTZ AUX)
    Blend: AUG-CC-PVTZ-JKFIT

    Orbital Energies [Eh]
    ---------------------

    Doubly Occupied:

       1A    -20.610359     2A    -20.564108     3A    -11.390258
       4A    -11.256875     5A    -11.243964     6A    -11.242659
       7A    -11.236110     8A    -11.234620     9A    -11.232415
      10A    -11.231296    11A    -11.223775    12A     -1.471587
      13A     -1.376395    14A     -1.160308    15A     -1.066684
      16A     -1.041187    17A     -0.976618    18A     -0.929659
      19A     -0.833898    20A     -0.810476    21A     -0.774319
      22A     -0.713261    23A     -0.691650    24A     -0.678396
      25A     -0.666026    26A     -0.628767    27A     -0.625225
      28A     -0.603869    29A     -0.577477    30A     -0.570658
      31A     -0.563466    32A     -0.545641    33A     -0.540974
      34A     -0.501249    35A     -0.489302    36A     -0.485669
      37A     -0.483418    38A     -0.457936    39A     -0.333023
      40A     -0.323313

  @DF-RHF Final Energy:  -496.56358297462930

   => Energetics <=

    Nuclear Repulsion Energy =            583.7992461529423736
    One-Electron Energy =               -1833.9518799429545197
    Two-Electron Energy =                 753.5890508153829614
    Total Energy =                       -496.5635829746292984
  Basis Set: (AUG-CC-PVTZ AUX)
    Blend: AUG-CC-PVTZ-RI
    Molecular point group: c1

    Geometry (in Angstrom), charge = 0, multiplicity = 1:

       Center              X                  Y                   Z               Mass
    ------------   -----------------  -----------------  -----------------  -----------------
         O            3.383562293236    -0.512873629372    -0.161471456887    15.994914619570
         O            1.874986293236     0.263973370628     1.338536543113    15.994914619570
         C           -0.297358706764    -0.316706629372    -0.456492456887    12.000000000000
         C           -0.907503706764     0.932926370628    -0.232252456887    12.000000000000
         C            1.138549293236    -0.415615629372    -0.893126456887    12.000000000000
         C           -1.033760706764    -1.492102629372    -0.271490456887    12.000000000000
         C           -2.246770706764     0.959287370628     0.174009543113    12.000000000000
         C           -0.147451706764     2.220437370628    -0.417830456887    12.000000000000
         C           -2.366619706764    -1.449917629372     0.137415543113    12.000000000000
         C           -2.975977706764    -0.215823629372     0.361170543113    12.000000000000
         C            2.112754493236    -0.158351429372     0.276133643113    12.000000000000
         H            1.375785293236     0.304436370628    -1.686884456887     1.007825032230
         H            1.350397293236    -1.404442629372    -1.314667456887     1.007825032230
         H           -0.554352706764    -2.453683629372    -0.449800456887     1.007825032230
         H           -2.726181706764     1.921107370628     0.348350543113     1.007825032230
         H            0.691888293236     2.281807370628     0.280389543113     1.007825032230
         H            0.251072293236     2.313528370628    -1.434609456887     1.007825032230
         H           -0.800938706764     3.078619370628    -0.239991456887     1.007825032230
         H           -2.923680706764    -2.373204629372     0.276858543113     1.007825032230
         H           -4.015121706764    -0.165852629372     0.677860543113     1.007825032230
         H            3.957323293236    -0.315714629372     0.607957543113     1.007825032230

  Basis Set: AUG-CC-PVTZ
    Blend: AUG-CC-PVTZ
  Basis Set: (AUG-CC-PVTZ AUX)
    Blend: AUG-CC-PVTZ-JKFIT
	 Reference Energy          =    -496.5635829746292984 [Eh]
	 Singles Energy            =      -0.0000000000000000 [Eh]
	 Same-Spin Energy          =      -0.5227669861629368 [Eh]
	 Opposite-Spin Energy      =      -1.6271330290878798 [Eh]
	 Correlation Energy        =      -2.1499000152508168 [Eh]
	 Total Energy              =    -498.7134829898801058 [Eh]

	 ================> DF-SCS-MP2 Energies <==================
	-----------------------------------------------------------
	 SCS Same-Spin Scale       =       0.3333333333333333 [-]
	 SCS Opposite-Spin Scale   =       1.2000000000000000 [-]
	 SCS Same-Spin Energy      =      -0.1742556620543123 [Eh]
	 SCS Opposite-Spin Energy  =      -1.9525596349054557 [Eh]
	 SCS Correlation Energy    =      -2.1268152969597680 [Eh]
	 SCS Total Energy          =    -498.6903982715890606 [Eh]
	-----------------------------------------------------------

  Dipole Moment: [D]
     X:     0.4100      Y:     0.0041      Z:    -0.9408     Total:     1.0262

*** Psi4 exiting successfully. Buy a developer a beer!
