                               Psi4 1.4a3.dev225

  ==> Input File <==

--------------------------------------------------------------------------
#psi4
#
memory 32 gb

molecule  {
0 1
  O        3.4036770    -0.5312700    -0.1399000
  O        1.8951010     0.2455770     1.3601080
  C       -0.2772440    -0.3351030    -0.4349210
  C       -0.8873890     0.9145300    -0.2106810
  C        1.1586640    -0.4340120    -0.8715550
  C       -1.0136460    -1.5104990    -0.2499190
  C       -2.2266560     0.9408910     0.1955810
  C       -0.1273370     2.2020410    -0.3962590
  C       -2.3465050    -1.4683140     0.1589870
  C       -2.9454128    -0.2173796     0.3800598
  C        2.1430500    -0.1948310     0.2522150
  H        1.3959000     0.2860400    -1.6653130
  H        1.3705120    -1.4228390    -1.2930960
  H       -0.5342380    -2.4720800    -0.4282290
  H       -2.7060670     1.9027110     0.3699220
  H        0.7120030     2.2634110     0.3019610
  H        0.2711870     2.2951320    -1.4130380
  H       -0.7808240     3.0602230    -0.2184200
  H       -2.9035660    -2.3916010     0.2984300
  H       -3.9950070    -0.1842490     0.6994320
  H        3.9774380    -0.3341110     0.6295290
units angstrom
no_reorient  #important for SAPT in psi4, default
symmetry c1  #important for SAPT in psi4, default
}

set PROPERTIES_ORIGIN ["COM"]
properties('MP2/aug-cc-pvtz', properties = ['dipole'])
--------------------------------------------------------------------------

    Molecular point group: c1
  Charge       = 0
  Multiplicity = 1
  Basis Set: AUG-CC-PVTZ
    Blend: AUG-CC-PVTZ
  Basis Set: (AUG-CC-PVTZ AUX)
    Blend: AUG-CC-PVTZ-JKFIT

    Orbital Energies [Eh]
    ---------------------

    Doubly Occupied:

       1A    -20.618818     2A    -20.554812     3A    -11.394579
       4A    -11.258529     5A    -11.244437     6A    -11.243244
       7A    -11.236632     8A    -11.234619     9A    -11.233121
      10A    -11.229071    11A    -11.222901    12A     -1.462822
      13A     -1.360255    14A     -1.161566    15A     -1.071051
      16A     -1.041462    17A     -0.983288    18A     -0.930086
      19A     -0.839785    20A     -0.812609    21A     -0.778032
      22A     -0.708821    23A     -0.689198    24A     -0.678281
      25A     -0.666823    26A     -0.628533    27A     -0.624923
      28A     -0.596386    29A     -0.579150    30A     -0.568471
      31A     -0.563398    32A     -0.548778    33A     -0.540248
      34A     -0.492027    35A     -0.486137    36A     -0.484089
      37A     -0.481399    38A     -0.457806    39A     -0.336038
      40A     -0.321710

  @DF-RHF Final Energy:  -496.56395494389506

   => Energetics <=

    Nuclear Repulsion Energy =            583.7611290034387821
    One-Electron Energy =               -1833.9222961179880258
    Two-Electron Energy =                 753.5972121706541884
    Total Energy =                       -496.5639549438950553
  Basis Set: (AUG-CC-PVTZ AUX)
    Blend: AUG-CC-PVTZ-RI
    Molecular point group: c1

    Geometry (in Angstrom), charge = 0, multiplicity = 1:

       Center              X                  Y                   Z               Mass
    ------------   -----------------  -----------------  -----------------  -----------------
         O            3.381912561989    -0.512774250476    -0.157619421186    15.994914619570
         O            1.873336561989     0.264072749524     1.342388578814    15.994914619570
         C           -0.299008438011    -0.316607250476    -0.452640421186    12.000000000000
         C           -0.909153438011     0.933025749524    -0.228400421186    12.000000000000
         C            1.136899561989    -0.415516250476    -0.889274421186    12.000000000000
         C           -1.035410438011    -1.492003250476    -0.267638421186    12.000000000000
         C           -2.248420438011     0.959386749524     0.177861578814    12.000000000000
         C           -0.149101438011     2.220536749524    -0.413978421186    12.000000000000
         C           -2.368269438011    -1.449818250476     0.141267578814    12.000000000000
         C           -2.967177238011    -0.198883850476     0.362340378814    12.000000000000
         C            2.121285561989    -0.176335250476     0.234495578814    12.000000000000
         H            1.374135561989     0.304535749524    -1.683032421186     1.007825032230
         H            1.348747561989    -1.404343250476    -1.310815421186     1.007825032230
         H           -0.556002438011    -2.453584250476    -0.445948421186     1.007825032230
         H           -2.727831438011     1.921206749524     0.352202578814     1.007825032230
         H            0.690238561989     2.281906749524     0.284241578814     1.007825032230
         H            0.249422561989     2.313627749524    -1.430757421186     1.007825032230
         H           -0.802588438011     3.078718749524    -0.236139421186     1.007825032230
         H           -2.925330438011    -2.373105250476     0.280710578814     1.007825032230
         H           -4.016771438011    -0.165753250476     0.681712578814     1.007825032230
         H            3.955673561989    -0.315615250476     0.611809578814     1.007825032230

  Basis Set: AUG-CC-PVTZ
    Blend: AUG-CC-PVTZ
  Basis Set: (AUG-CC-PVTZ AUX)
    Blend: AUG-CC-PVTZ-JKFIT
	 Reference Energy          =    -496.5639549438950553 [Eh]
	 Singles Energy            =      -0.0000000000000000 [Eh]
	 Same-Spin Energy          =      -0.5236821620232442 [Eh]
	 Opposite-Spin Energy      =      -1.6286565069056704 [Eh]
	 Correlation Energy        =      -2.1523386689289148 [Eh]
	 Total Energy              =    -498.7162936128239608 [Eh]

	 ================> DF-SCS-MP2 Energies <==================
	-----------------------------------------------------------
	 SCS Same-Spin Scale       =       0.3333333333333333 [-]
	 SCS Opposite-Spin Scale   =       1.2000000000000000 [-]
	 SCS Same-Spin Energy      =      -0.1745607206744147 [Eh]
	 SCS Opposite-Spin Energy  =      -1.9543878082868045 [Eh]
	 SCS Correlation Energy    =      -2.1289485289612191 [Eh]
	 SCS Total Energy          =    -498.6929034728563011 [Eh]
	-----------------------------------------------------------

  Dipole Moment: [D]
     X:     0.5460      Y:    -0.1185      Z:    -1.2127     Total:     1.3352

*** Psi4 exiting successfully. Buy a developer a beer!
