                               Psi4 1.4a3.dev225

  ==> Input File <==

--------------------------------------------------------------------------
#psi4
#
memory 32 gb

molecule  {
0 1
  O        3.4036770    -0.5312700    -0.1399000
  O        1.8951010     0.2455770     1.3601080
  C       -0.2772440    -0.3351030    -0.4349210
  C       -0.8873890     0.9145300    -0.2106810
  C        1.1586640    -0.4340120    -0.8715550
  C       -1.0136460    -1.5104990    -0.2499190
  C       -2.2266560     0.9408910     0.1955810
  C       -0.1273370     2.2020410    -0.3962590
  C       -2.5376218    -1.4622652     0.2176195
  C       -2.9558630    -0.2342200     0.3827420
  C        2.1430500    -0.1948310     0.2522150
  H        1.3959000     0.2860400    -1.6653130
  H        1.3705120    -1.4228390    -1.2930960
  H       -0.5342380    -2.4720800    -0.4282290
  H       -2.7060670     1.9027110     0.3699220
  H        0.7120030     2.2634110     0.3019610
  H        0.2711870     2.2951320    -1.4130380
  H       -0.7808240     3.0602230    -0.2184200
  H       -2.9035660    -2.3916010     0.2984300
  H       -3.9950070    -0.1842490     0.6994320
  H        3.9774380    -0.3341110     0.6295290
units angstrom
no_reorient  #important for SAPT in psi4, default
symmetry c1  #important for SAPT in psi4, default
}

set PROPERTIES_ORIGIN ["COM"]
properties('MP2/aug-cc-pvtz', properties = ['dipole'])
--------------------------------------------------------------------------

    Molecular point group: c1
  Charge       = 0
  Multiplicity = 1
  Basis Set: AUG-CC-PVTZ
    Blend: AUG-CC-PVTZ
  Basis Set: (AUG-CC-PVTZ AUX)
    Blend: AUG-CC-PVTZ-JKFIT

    Orbital Energies [Eh]
    ---------------------

    Doubly Occupied:

       1A    -20.618949     2A    -20.554992     3A    -11.394661
       4A    -11.258940     5A    -11.251893     6A    -11.247366
       7A    -11.244896     8A    -11.234996     9A    -11.230488
      10A    -11.226568    11A    -11.223854    12A     -1.462974
      13A     -1.360455    14A     -1.155648    15A     -1.077270
      16A     -1.036480    17A     -0.974686    18A     -0.936230
      19A     -0.836881    20A     -0.818011    21A     -0.779743
      22A     -0.709702    23A     -0.689496    24A     -0.681003
      25A     -0.667162    26A     -0.639136    27A     -0.624946
      28A     -0.596453    29A     -0.583445    30A     -0.572752
      31A     -0.562829    32A     -0.545330    33A     -0.535559
      34A     -0.500932    35A     -0.488244    36A     -0.479974
      37A     -0.459318    38A     -0.451048    39A     -0.345571
      40A     -0.312203

  @DF-RHF Final Energy:  -496.52359119484811

   => Energetics <=

    Nuclear Repulsion Energy =            581.2485294339487609
    One-Electron Energy =               -1828.8020736996479627
    Two-Electron Energy =                 751.0299530708510929
    Total Energy =                       -496.5235911948481089
  Basis Set: (AUG-CC-PVTZ AUX)
    Blend: AUG-CC-PVTZ-RI
    Molecular point group: c1

    Geometry (in Angstrom), charge = 0, multiplicity = 1:

       Center              X                  Y                   Z               Mass
    ------------   -----------------  -----------------  -----------------  -----------------
         O            3.398030606593    -0.511911314132    -0.162522371915    15.994914619570
         O            1.889454606593     0.264935685868     1.337485628085    15.994914619570
         C           -0.282890393407    -0.315744314132    -0.457543371915    12.000000000000
         C           -0.893035393407     0.933888685868    -0.233303371915    12.000000000000
         C            1.153017606593    -0.414653314132    -0.894177371915    12.000000000000
         C           -1.019292393407    -1.491140314132    -0.272541371915    12.000000000000
         C           -2.232302393407     0.960249685868     0.172958628085    12.000000000000
         C           -0.132983393407     2.221399685868    -0.418881371915    12.000000000000
         C           -2.543268193407    -1.442906514132     0.194997128085    12.000000000000
         C           -2.961509393407    -0.214861314132     0.360119628085    12.000000000000
         C            2.137403606593    -0.175472314132     0.229592628085    12.000000000000
         H            1.390253606593     0.305398685868    -1.687935371915     1.007825032230
         H            1.364865606593    -1.403480314132    -1.315718371915     1.007825032230
         H           -0.539884393407    -2.452721314132    -0.450851371915     1.007825032230
         H           -2.711713393407     1.922069685868     0.347299628085     1.007825032230
         H            0.706356606593     2.282769685868     0.279338628085     1.007825032230
         H            0.265540606593     2.314490685868    -1.435660371915     1.007825032230
         H           -0.786470393407     3.079581685868    -0.241042371915     1.007825032230
         H           -2.909212393407    -2.372242314132     0.275807628085     1.007825032230
         H           -4.000653393407    -0.164890314132     0.676809628085     1.007825032230
         H            3.971791606593    -0.314752314132     0.606906628085     1.007825032230

  Basis Set: AUG-CC-PVTZ
    Blend: AUG-CC-PVTZ
  Basis Set: (AUG-CC-PVTZ AUX)
    Blend: AUG-CC-PVTZ-JKFIT
	 Reference Energy          =    -496.5235911948481089 [Eh]
	 Singles Energy            =      -0.0000000000000000 [Eh]
	 Same-Spin Energy          =      -0.5228394747596934 [Eh]
	 Opposite-Spin Energy      =      -1.6308317498424492 [Eh]
	 Correlation Energy        =      -2.1536712246021423 [Eh]
	 Total Energy              =    -498.6772624194502441 [Eh]

	 ================> DF-SCS-MP2 Energies <==================
	-----------------------------------------------------------
	 SCS Same-Spin Scale       =       0.3333333333333333 [-]
	 SCS Opposite-Spin Scale   =       1.2000000000000000 [-]
	 SCS Same-Spin Energy      =      -0.1742798249198978 [Eh]
	 SCS Opposite-Spin Energy  =      -1.9569980998109389 [Eh]
	 SCS Correlation Energy    =      -2.1312779247308367 [Eh]
	 SCS Total Energy          =    -498.6548691195789615 [Eh]
	-----------------------------------------------------------

  Dipole Moment: [D]
     X:     0.5700      Y:    -0.1447      Z:    -1.2175     Total:     1.3521

*** Psi4 exiting successfully. Buy a developer a beer!
