                               Psi4 1.4a3.dev225

  ==> Input File <==

--------------------------------------------------------------------------
#psi4
#
memory 32 gb

molecule  {
0 1
  O        3.4036770    -0.5312700    -0.1399000
  O        1.8951010     0.2455770     1.3601080
  C       -0.2772440    -0.3351030    -0.4349210
  C       -0.8873890     0.9145300    -0.2106810
  C        1.1586640    -0.4340120    -0.8715550
  C       -1.0136460    -1.5104990    -0.2499190
  C       -2.2266560     0.9408910     0.1955810
  C       -0.1273370     2.2020410    -0.3962590
  C       -2.1553882    -1.4743628     0.1003545
  C       -2.9558630    -0.2342200     0.3827420
  C        2.1430500    -0.1948310     0.2522150
  H        1.3959000     0.2860400    -1.6653130
  H        1.3705120    -1.4228390    -1.2930960
  H       -0.5342380    -2.4720800    -0.4282290
  H       -2.7060670     1.9027110     0.3699220
  H        0.7120030     2.2634110     0.3019610
  H        0.2711870     2.2951320    -1.4130380
  H       -0.7808240     3.0602230    -0.2184200
  H       -2.9035660    -2.3916010     0.2984300
  H       -3.9950070    -0.1842490     0.6994320
  H        3.9774380    -0.3341110     0.6295290
units angstrom
no_reorient  #important for SAPT in psi4, default
symmetry c1  #important for SAPT in psi4, default
}

set PROPERTIES_ORIGIN ["COM"]
properties('MP2/aug-cc-pvtz', properties = ['dipole'])
--------------------------------------------------------------------------

    Molecular point group: c1
  Charge       = 0
  Multiplicity = 1
  Basis Set: AUG-CC-PVTZ
    Blend: AUG-CC-PVTZ
  Basis Set: (AUG-CC-PVTZ AUX)
    Blend: AUG-CC-PVTZ-JKFIT

    Orbital Energies [Eh]
    ---------------------

    Doubly Occupied:

       1A    -20.618738     2A    -20.554759     3A    -11.394547
       4A    -11.258059     5A    -11.243704     6A    -11.243025
       7A    -11.241668     8A    -11.232224     9A    -11.227303
      10A    -11.222498    11A    -11.209090    12A     -1.462747
      13A     -1.360169    14A     -1.174874    15A     -1.071113
      16A     -1.058349    17A     -0.986238    18A     -0.925960
      19A     -0.843749    20A     -0.803554    21A     -0.779069
      22A     -0.708621    23A     -0.688366    24A     -0.678730
      25A     -0.669761    26A     -0.631600    27A     -0.619305
      28A     -0.596664    29A     -0.593998    30A     -0.569505
      31A     -0.552211    32A     -0.544368    33A     -0.537328
      34A     -0.503873    35A     -0.497645    36A     -0.483327
      37A     -0.458001    38A     -0.445447    39A     -0.359567
      40A     -0.311103

  @DF-RHF Final Energy:  -496.50088389047698

   => Energetics <=

    Nuclear Repulsion Energy =            586.3696695993190815
    One-Electron Energy =               -1839.0193996574221273
    Two-Electron Energy =                 756.1488461676261750
    Total Energy =                       -496.5008838904769846
  Basis Set: (AUG-CC-PVTZ AUX)
    Blend: AUG-CC-PVTZ-RI
    Molecular point group: c1

    Geometry (in Angstrom), charge = 0, multiplicity = 1:

       Center              X                  Y                   Z               Mass
    ------------   -----------------  -----------------  -----------------  -----------------
         O            3.367465790855    -0.510943945185    -0.153145427770    15.994914619570
         O            1.858889790855     0.265903054815     1.346862572231    15.994914619570
         C           -0.313455209145    -0.314776945185    -0.448166427770    12.000000000000
         C           -0.923600209145     0.934856054815    -0.223926427770    12.000000000000
         C            1.122452790855    -0.413685945185    -0.884800427769    12.000000000000
         C           -1.049857209145    -1.490172945185    -0.263164427770    12.000000000000
         C           -2.262867209145     0.961217054815     0.182335572230    12.000000000000
         C           -0.163548209145     2.222367054815    -0.409504427769    12.000000000000
         C           -2.191599409145    -1.454036745185     0.087109072230    12.000000000000
         C           -2.992074209145    -0.213893945185     0.369496572230    12.000000000000
         C            2.106838790855    -0.174504945185     0.238969572230    12.000000000000
         H            1.359688790855     0.306366054815    -1.678558427770     1.007825032230
         H            1.334300790855    -1.402512945185    -1.306341427770     1.007825032230
         H           -0.570449209145    -2.451753945185    -0.441474427770     1.007825032230
         H           -2.742278209145     1.923037054815     0.356676572230     1.007825032230
         H            0.675791790855     2.283737054815     0.288715572230     1.007825032230
         H            0.234975790855     2.315458054815    -1.426283427770     1.007825032230
         H           -0.817035209145     3.080549054815    -0.231665427770     1.007825032230
         H           -2.939777209145    -2.371274945185     0.285184572230     1.007825032230
         H           -4.031218209145    -0.163922945185     0.686186572230     1.007825032230
         H            3.941226790855    -0.313784945185     0.616283572230     1.007825032230

  Basis Set: AUG-CC-PVTZ
    Blend: AUG-CC-PVTZ
  Basis Set: (AUG-CC-PVTZ AUX)
    Blend: AUG-CC-PVTZ-JKFIT
	 Reference Energy          =    -496.5008838904769846 [Eh]
	 Singles Energy            =      -0.0000000000000000 [Eh]
	 Same-Spin Energy          =      -0.5236064684248065 [Eh]
	 Opposite-Spin Energy      =      -1.6305987044312484 [Eh]
	 Correlation Energy        =      -2.1542051728560550 [Eh]
	 Total Energy              =    -498.6550890633330368 [Eh]

	 ================> DF-SCS-MP2 Energies <==================
	-----------------------------------------------------------
	 SCS Same-Spin Scale       =       0.3333333333333333 [-]
	 SCS Opposite-Spin Scale   =       1.2000000000000000 [-]
	 SCS Same-Spin Energy      =      -0.1745354894749355 [Eh]
	 SCS Opposite-Spin Energy  =      -1.9567184453174979 [Eh]
	 SCS Correlation Energy    =      -2.1312539347924333 [Eh]
	 SCS Total Energy          =    -498.6321378252694103 [Eh]
	-----------------------------------------------------------

  Dipole Moment: [D]
     X:     0.5454      Y:    -0.0404      Z:    -1.2133     Total:     1.3309

*** Psi4 exiting successfully. Buy a developer a beer!
