                               Psi4 1.4a3.dev225

  ==> Input File <==

--------------------------------------------------------------------------
#psi4
#
memory 32 gb

molecule  {
0 1
  O        3.4036770    -0.5312700    -0.1399000
  O        1.8951010     0.2455770     1.3601080
  C       -0.2772440    -0.3351030    -0.4349210
  C       -0.8873890     0.9145300    -0.2106810
  C        1.1586640    -0.4340120    -0.8715550
  C       -1.0136460    -1.5104990    -0.2499190
  C       -2.2266560     0.9408910     0.1955810
  C       -0.1273370     2.2020410    -0.3962590
  C       -2.3465050    -1.4683140     0.1589870
  C       -2.9558630    -0.2342200     0.3827420
  C        2.1430500    -0.1948310     0.2522150
  H        1.3959000     0.2860400    -1.6653130
  H        1.3705120    -1.4228390    -1.2930960
  H       -0.5342380    -2.4720800    -0.4282290
  H       -2.7060670     1.9027110     0.3699220
  H        0.7120030     2.2634110     0.3019610
  H        0.2711870     2.2951320    -1.4130380
  H       -0.7808240     3.0602230    -0.2184200
  H       -3.0060329    -2.5614322     0.3240794
  H       -3.9950070    -0.1842490     0.6994320
  H        3.9774380    -0.3341110     0.6295290
units angstrom
no_reorient  #important for SAPT in psi4, default
symmetry c1  #important for SAPT in psi4, default
}

set PROPERTIES_ORIGIN ["COM"]
properties('MP2/aug-cc-pvtz', properties = ['dipole'])
--------------------------------------------------------------------------

    Molecular point group: c1
  Charge       = 0
  Multiplicity = 1
  Basis Set: AUG-CC-PVTZ
    Blend: AUG-CC-PVTZ
  Basis Set: (AUG-CC-PVTZ AUX)
    Blend: AUG-CC-PVTZ-JKFIT

    Orbital Energies [Eh]
    ---------------------

    Doubly Occupied:

       1A    -20.619415     2A    -20.555491     3A    -11.395339
       4A    -11.259668     5A    -11.254520     6A    -11.246143
       7A    -11.244715     8A    -11.238974     9A    -11.237066
      10A    -11.232906    11A    -11.223664    12A     -1.463451
      13A     -1.360906    14A     -1.161917    15A     -1.070893
      16A     -1.040869    17A     -0.983303    18A     -0.926930
      19A     -0.841903    20A     -0.811330    21A     -0.772365
      22A     -0.708865    23A     -0.688261    24A     -0.671155
      25A     -0.667565    26A     -0.628896    27A     -0.620444
      28A     -0.597060    29A     -0.576780    30A     -0.569108
      31A     -0.549850    32A     -0.548410    33A     -0.541538
      34A     -0.492647    35A     -0.488420    36A     -0.482388
      37A     -0.472776    38A     -0.458443    39A     -0.335073
      40A     -0.324867

  @DF-RHF Final Energy:  -496.54227201198830

   => Energetics <=

    Nuclear Repulsion Energy =            582.5916220982896903
    One-Electron Energy =               -1831.5391612245693977
    Two-Electron Energy =                 752.4052671142914051
    Total Energy =                       -496.5422720119883024
  Basis Set: (AUG-CC-PVTZ AUX)
    Blend: AUG-CC-PVTZ-RI
    Molecular point group: c1

    Geometry (in Angstrom), charge = 0, multiplicity = 1:

       Center              X                  Y                   Z               Mass
    ------------   -----------------  -----------------  -----------------  -----------------
         O            3.383436344445    -0.510287079749    -0.158006155711    15.994914619570
         O            1.874860344445     0.266559920251     1.342001844289    15.994914619570
         C           -0.297484655555    -0.314120079749    -0.453027155711    12.000000000000
         C           -0.907629655555     0.935512920251    -0.228787155711    12.000000000000
         C            1.138423344445    -0.413029079749    -0.889661155711    12.000000000000
         C           -1.033886655555    -1.489516079749    -0.268025155711    12.000000000000
         C           -2.246896655555     0.961873920251     0.177474844289    12.000000000000
         C           -0.147577655555     2.223023920251    -0.414365155711    12.000000000000
         C           -2.366745655555    -1.447331079749     0.140880844289    12.000000000000
         C           -2.976103655555    -0.213237079749     0.364635844289    12.000000000000
         C            2.122809344445    -0.173848079749     0.234108844289    12.000000000000
         H            1.375659344445     0.307022920251    -1.683419155711     1.007825032230
         H            1.350271344445    -1.401856079749    -1.311202155711     1.007825032230
         H           -0.554478655555    -2.451097079749    -0.446335155711     1.007825032230
         H           -2.726307655555     1.923693920251     0.351815844289     1.007825032230
         H            0.691762344445     2.284393920251     0.283854844289     1.007825032230
         H            0.250946344445     2.316114920251    -1.431144155711     1.007825032230
         H           -0.801064655555     3.081205920251    -0.236526155711     1.007825032230
         H           -3.026273555555    -2.540449279749     0.305973244289     1.007825032230
         H           -4.015247655555    -0.163266079749     0.681325844289     1.007825032230
         H            3.957197344445    -0.313128079749     0.611422844289     1.007825032230

  Basis Set: AUG-CC-PVTZ
    Blend: AUG-CC-PVTZ
  Basis Set: (AUG-CC-PVTZ AUX)
    Blend: AUG-CC-PVTZ-JKFIT
	 Reference Energy          =    -496.5422720119883024 [Eh]
	 Singles Energy            =      -0.0000000000000000 [Eh]
	 Same-Spin Energy          =      -0.5240977515625909 [Eh]
	 Opposite-Spin Energy      =      -1.6308667569329367 [Eh]
	 Correlation Energy        =      -2.1549645084955276 [Eh]
	 Total Energy              =    -498.6972365204838411 [Eh]

	 ================> DF-SCS-MP2 Energies <==================
	-----------------------------------------------------------
	 SCS Same-Spin Scale       =       0.3333333333333333 [-]
	 SCS Opposite-Spin Scale   =       1.2000000000000000 [-]
	 SCS Same-Spin Energy      =      -0.1746992505208636 [Eh]
	 SCS Opposite-Spin Energy  =      -1.9570401083195239 [Eh]
	 SCS Correlation Energy    =      -2.1317393588403877 [Eh]
	 SCS Total Energy          =    -498.6740113708286799 [Eh]
	-----------------------------------------------------------

  Dipole Moment: [D]
     X:     0.6185      Y:    -0.0157      Z:    -1.2260     Total:     1.3732

*** Psi4 exiting successfully. Buy a developer a beer!
