                               Psi4 1.4a3.dev225

  ==> Input File <==

--------------------------------------------------------------------------
#psi4
#
memory 32 gb

molecule  {
0 1
  O        3.4036770    -0.5312700    -0.1399000
  O        1.8951010     0.2455770     1.3601080
  C       -0.2772440    -0.3351030    -0.4349210
  C       -0.8873890     0.9145300    -0.2106810
  C        1.1586640    -0.4340120    -0.8715550
  C       -1.0136460    -1.5104990    -0.2499190
  C       -2.2266560     0.9408910     0.1955810
  C       -0.1273370     2.2020410    -0.3962590
  C       -2.3465050    -1.4683140     0.1589870
  C       -2.9558630    -0.2342200     0.3827420
  C        2.1430500    -0.1948310     0.2522150
  H        1.3959000     0.2860400    -1.6653130
  H        1.3705120    -1.4228390    -1.2930960
  H       -0.6222708    -2.2955067    -0.3954863
  H       -2.7060670     1.9027110     0.3699220
  H        0.7120030     2.2634110     0.3019610
  H        0.2711870     2.2951320    -1.4130380
  H       -0.7808240     3.0602230    -0.2184200
  H       -2.9035660    -2.3916010     0.2984300
  H       -3.9950070    -0.1842490     0.6994320
  H        3.9774380    -0.3341110     0.6295290
units angstrom
no_reorient  #important for SAPT in psi4, default
symmetry c1  #important for SAPT in psi4, default
}

set PROPERTIES_ORIGIN ["COM"]
properties('MP2/aug-cc-pvtz', properties = ['dipole'])
--------------------------------------------------------------------------

    Molecular point group: c1
  Charge       = 0
  Multiplicity = 1
  Basis Set: AUG-CC-PVTZ
    Blend: AUG-CC-PVTZ
  Basis Set: (AUG-CC-PVTZ AUX)
    Blend: AUG-CC-PVTZ-JKFIT

    Orbital Energies [Eh]
    ---------------------

    Doubly Occupied:

       1A    -20.619038     2A    -20.555065     3A    -11.394848
       4A    -11.258953     5A    -11.243172     6A    -11.242021
       7A    -11.233587     8A    -11.231132     9A    -11.230529
      10A    -11.222195    11A    -11.212193    12A     -1.463057
      13A     -1.360487    14A     -1.161883    15A     -1.070242
      16A     -1.046695    17A     -0.987332    18A     -0.929558
      19A     -0.849191    20A     -0.823891    21A     -0.777467
      22A     -0.709459    23A     -0.691799    24A     -0.686884
      25A     -0.669708    26A     -0.641708    27A     -0.627498
      28A     -0.596416    29A     -0.582006    30A     -0.569363
      31A     -0.564326    32A     -0.551079    33A     -0.539972
      34A     -0.492172    35A     -0.490395    36A     -0.483162
      37A     -0.481284    38A     -0.457948    39A     -0.332881
      40A     -0.322372

  @DF-RHF Final Energy:  -496.53032862453858

   => Energetics <=

    Nuclear Repulsion Energy =            584.6952688023844757
    One-Electron Energy =               -1835.6452621559419640
    Two-Electron Energy =                 754.4196647290190185
    Total Energy =                       -496.5303286245385834
  Basis Set: (AUG-CC-PVTZ AUX)
    Blend: AUG-CC-PVTZ-RI
    Molecular point group: c1

    Geometry (in Angstrom), charge = 0, multiplicity = 1:

       Center              X                  Y                   Z               Mass
    ------------   -----------------  -----------------  -----------------  -----------------
         O            3.383339408126    -0.512613458066    -0.158053792792    15.994914619570
         O            1.874763408126     0.264233541934     1.341954207208    15.994914619570
         C           -0.297581591874    -0.316446458066    -0.453074792792    12.000000000000
         C           -0.907726591874     0.933186541934    -0.228834792792    12.000000000000
         C            1.138326408126    -0.415355458066    -0.889708792792    12.000000000000
         C           -1.033983591874    -1.491842458066    -0.268072792792    12.000000000000
         C           -2.246993591874     0.959547541934     0.177427207208    12.000000000000
         C           -0.147674591874     2.220697541934    -0.414412792792    12.000000000000
         C           -2.366842591874    -1.449657458066     0.140833207208    12.000000000000
         C           -2.976200591874    -0.215563458066     0.364588207208    12.000000000000
         C            2.122712408126    -0.176174458066     0.234061207208    12.000000000000
         H            1.375562408126     0.304696541934    -1.683466792792     1.007825032230
         H            1.350174408126    -1.404182458066    -1.311249792792     1.007825032230
         H           -0.642608391874    -2.276850158066    -0.413640092792     1.007825032230
         H           -2.726404591874     1.921367541934     0.351768207208     1.007825032230
         H            0.691665408126     2.282067541934     0.283807207208     1.007825032230
         H            0.250849408126     2.313788541934    -1.431191792792     1.007825032230
         H           -0.801161591874     3.078879541934    -0.236573792792     1.007825032230
         H           -2.923903591874    -2.372944458066     0.280276207208     1.007825032230
         H           -4.015344591874    -0.165592458066     0.681278207208     1.007825032230
         H            3.957100408126    -0.315454458066     0.611375207208     1.007825032230

  Basis Set: AUG-CC-PVTZ
    Blend: AUG-CC-PVTZ
  Basis Set: (AUG-CC-PVTZ AUX)
    Blend: AUG-CC-PVTZ-JKFIT
	 Reference Energy          =    -496.5303286245385834 [Eh]
	 Singles Energy            =      -0.0000000000000000 [Eh]
	 Same-Spin Energy          =      -0.5233862924579412 [Eh]
	 Opposite-Spin Energy      =      -1.6280475997655401 [Eh]
	 Correlation Energy        =      -2.1514338922234812 [Eh]
	 Total Energy              =    -498.6817625167620918 [Eh]

	 ================> DF-SCS-MP2 Energies <==================
	-----------------------------------------------------------
	 SCS Same-Spin Scale       =       0.3333333333333333 [-]
	 SCS Opposite-Spin Scale   =       1.2000000000000000 [-]
	 SCS Same-Spin Energy      =      -0.1744620974859804 [Eh]
	 SCS Opposite-Spin Energy  =      -1.9536571197186481 [Eh]
	 SCS Correlation Energy    =      -2.1281192172046284 [Eh]
	 SCS Total Energy          =    -498.6584478417432251 [Eh]
	-----------------------------------------------------------

  Dipole Moment: [D]
     X:     0.5776      Y:    -0.1661      Z:    -1.2234     Total:     1.3631

*** Psi4 exiting successfully. Buy a developer a beer!
