                               Psi4 1.4a3.dev225

  ==> Input File <==

--------------------------------------------------------------------------
#psi4
#
memory 32 gb

molecule  {
0 1
  O        3.4036770    -0.5312700    -0.1399000
  O        1.8951010     0.2455770     1.3601080
  C       -0.2772440    -0.3351030    -0.4349210
  C       -0.8873890     0.9145300    -0.2106810
  C        1.1586640    -0.4340120    -0.8715550
  C       -1.0136460    -1.5104990    -0.2499190
  C       -2.2266560     0.9408910     0.1955810
  C       -0.1273370     2.2020410    -0.3962590
  C       -2.3465050    -1.4683140     0.1589870
  C       -2.9163850    -0.2597419     0.3699731
  C        2.1430500    -0.1948310     0.2522150
  H        1.3959000     0.2860400    -1.6653130
  H        1.3705120    -1.4228390    -1.2930960
  H       -0.5342380    -2.4720800    -0.4282290
  H       -2.7060670     1.9027110     0.3699220
  H        0.7120030     2.2634110     0.3019610
  H        0.2711870     2.2951320    -1.4130380
  H       -0.7808240     3.0602230    -0.2184200
  H       -2.9035660    -2.3916010     0.2984300
  H       -3.9950070    -0.1842490     0.6994320
  H        3.9774380    -0.3341110     0.6295290
units angstrom
no_reorient  #important for SAPT in psi4, default
symmetry c1  #important for SAPT in psi4, default
}

set PROPERTIES_ORIGIN ["COM"]
properties('MP2/aug-cc-pvtz', properties = ['dipole'])
--------------------------------------------------------------------------

    Molecular point group: c1
  Charge       = 0
  Multiplicity = 1
  Basis Set: AUG-CC-PVTZ
    Blend: AUG-CC-PVTZ
  Basis Set: (AUG-CC-PVTZ AUX)
    Blend: AUG-CC-PVTZ-JKFIT

    Orbital Energies [Eh]
    ---------------------

    Doubly Occupied:

       1A    -20.618797     2A    -20.554804     3A    -11.394510
       4A    -11.258493     5A    -11.244303     6A    -11.243115
       7A    -11.236856     8A    -11.233512     9A    -11.230577
      10A    -11.227553    11A    -11.222767    12A     -1.462805
      13A     -1.360252    14A     -1.163987    15A     -1.073387
      16A     -1.043334    17A     -0.980421    18A     -0.932802
      19A     -0.840427    20A     -0.813389    21A     -0.775485
      22A     -0.708929    23A     -0.689324    24A     -0.678033
      25A     -0.668153    26A     -0.629203    27A     -0.622876
      28A     -0.596388    29A     -0.575202    30A     -0.568656
      31A     -0.564442    32A     -0.548775    33A     -0.542164
      34A     -0.494138    35A     -0.490113    36A     -0.482281
      37A     -0.476836    38A     -0.457933    39A     -0.332421
      40A     -0.327507

  @DF-RHF Final Energy:  -496.56172326116535

   => Energetics <=

    Nuclear Repulsion Energy =            584.3792464732744065
    One-Electron Energy =               -1835.1520392878983330
    Two-Electron Energy =                 754.2110695534586284
    Total Energy =                       -496.5617232611652980
  Basis Set: (AUG-CC-PVTZ AUX)
    Blend: AUG-CC-PVTZ-RI
    Molecular point group: c1

    Geometry (in Angstrom), charge = 0, multiplicity = 1:

       Center              X                  Y                   Z               Mass
    ------------   -----------------  -----------------  -----------------  -----------------
         O            3.379591391484    -0.509386803915    -0.156812851259    15.994914619570
         O            1.871015391484     0.267460196085     1.343195148741    15.994914619570
         C           -0.301329608516    -0.313219803915    -0.451833851259    12.000000000000
         C           -0.911474608516     0.936413196085    -0.227593851259    12.000000000000
         C            1.134578391484    -0.412128803915    -0.888467851259    12.000000000000
         C           -1.037731608516    -1.488615803915    -0.266831851259    12.000000000000
         C           -2.250741608516     0.962774196085     0.178668148741    12.000000000000
         C           -0.151422608516     2.223924196085    -0.413171851259    12.000000000000
         C           -2.370590608516    -1.446430803915     0.142074148741    12.000000000000
         C           -2.940470608516    -0.237858703915     0.353060248741    12.000000000000
         C            2.118964391484    -0.172947803915     0.235302148741    12.000000000000
         H            1.371814391484     0.307923196085    -1.682225851259     1.007825032230
         H            1.346426391484    -1.400955803915    -1.310008851259     1.007825032230
         H           -0.558323608516    -2.450196803915    -0.445141851259     1.007825032230
         H           -2.730152608516     1.924594196085     0.353009148741     1.007825032230
         H            0.687917391484     2.285294196085     0.285048148741     1.007825032230
         H            0.247101391484     2.317015196085    -1.429950851259     1.007825032230
         H           -0.804909608516     3.082106196085    -0.235332851259     1.007825032230
         H           -2.927651608516    -2.369717803915     0.281517148741     1.007825032230
         H           -4.019092608516    -0.162365803915     0.682519148741     1.007825032230
         H            3.953352391484    -0.312227803915     0.612616148741     1.007825032230

  Basis Set: AUG-CC-PVTZ
    Blend: AUG-CC-PVTZ
  Basis Set: (AUG-CC-PVTZ AUX)
    Blend: AUG-CC-PVTZ-JKFIT
	 Reference Energy          =    -496.5617232611653549 [Eh]
	 Singles Energy            =      -0.0000000000000000 [Eh]
	 Same-Spin Energy          =      -0.5236384352285472 [Eh]
	 Opposite-Spin Energy      =      -1.6284840395823701 [Eh]
	 Correlation Energy        =      -2.1521224748109171 [Eh]
	 Total Energy              =    -498.7138457359762924 [Eh]

	 ================> DF-SCS-MP2 Energies <==================
	-----------------------------------------------------------
	 SCS Same-Spin Scale       =       0.3333333333333333 [-]
	 SCS Opposite-Spin Scale   =       1.2000000000000000 [-]
	 SCS Same-Spin Energy      =      -0.1745461450761824 [Eh]
	 SCS Opposite-Spin Energy  =      -1.9541808474988440 [Eh]
	 SCS Correlation Energy    =      -2.1287269925750265 [Eh]
	 SCS Total Energy          =    -498.6904502537403800 [Eh]
	-----------------------------------------------------------

  Dipole Moment: [D]
     X:     0.5627      Y:    -0.1151      Z:    -1.2188     Total:     1.3474

*** Psi4 exiting successfully. Buy a developer a beer!
