                               Psi4 1.4a3.dev225

  ==> Input File <==

--------------------------------------------------------------------------
#psi4
#
memory 32 gb

molecule  {
0 1
  O        3.4036770    -0.5312700    -0.1399000
  O        1.8951010     0.2455770     1.3601080
  C       -0.2772440    -0.3351030    -0.4349210
  C       -0.8873890     0.9145300    -0.2106810
  C        1.1586640    -0.4340120    -0.8715550
  C       -1.0136460    -1.5104990    -0.2499190
  C       -2.2266560     0.9408910     0.1955810
  C       -0.1273370     2.2020410    -0.3962590
  C       -2.3465050    -1.4683140     0.1589870
  C       -2.9558630    -0.2342200     0.3827420
  C        2.1430500    -0.1948310     0.2522150
  H        1.3959000     0.2860400    -1.6653130
  H        1.3705120    -1.4228390    -1.2930960
  H       -0.5342380    -2.4720800    -0.4282290
  H       -2.7280840     1.9468828     0.3779286
  H        0.7120030     2.2634110     0.3019610
  H        0.2711870     2.2951320    -1.4130380
  H       -0.7808240     3.0602230    -0.2184200
  H       -2.9035660    -2.3916010     0.2984300
  H       -3.9950070    -0.1842490     0.6994320
  H        3.9774380    -0.3341110     0.6295290
units angstrom
no_reorient  #important for SAPT in psi4, default
symmetry c1  #important for SAPT in psi4, default
}

set PROPERTIES_ORIGIN ["COM"]
properties('MP2/aug-cc-pvtz', properties = ['dipole'])
--------------------------------------------------------------------------

    Molecular point group: c1
  Charge       = 0
  Multiplicity = 1
  Basis Set: AUG-CC-PVTZ
    Blend: AUG-CC-PVTZ
  Basis Set: (AUG-CC-PVTZ AUX)
    Blend: AUG-CC-PVTZ-JKFIT

    Orbital Energies [Eh]
    ---------------------

    Doubly Occupied:

       1A    -20.618975     2A    -20.554984     3A    -11.394789
       4A    -11.258864     5A    -11.245079     6A    -11.243933
       7A    -11.237231     8A    -11.236923     9A    -11.235068
      10A    -11.232806    11A    -11.222785    12A     -1.462986
      13A     -1.360423    14A     -1.160932    15A     -1.070714
      16A     -1.041255    17A     -0.981417    18A     -0.930123
      19A     -0.840442    20A     -0.809961    21A     -0.777960
      22A     -0.708730    23A     -0.689191    24A     -0.677817
      25A     -0.666517    26A     -0.628095    27A     -0.621631
      28A     -0.596453    29A     -0.576602    30A     -0.568066
      31A     -0.564963    32A     -0.548971    33A     -0.538853
      34A     -0.491714    35A     -0.485545    36A     -0.483607
      37A     -0.481458    38A     -0.457948    39A     -0.333815
      40A     -0.323789

  @DF-RHF Final Energy:  -496.56194004941710

   => Energetics <=

    Nuclear Repulsion Energy =            583.2762943483213576
    One-Electron Energy =               -1832.9536440296344608
    Two-Electron Energy =                 753.1154096318958864
    Total Energy =                       -496.5619400494171032
  Basis Set: (AUG-CC-PVTZ AUX)
    Blend: AUG-CC-PVTZ-RI
    Molecular point group: c1

    Geometry (in Angstrom), charge = 0, multiplicity = 1:

       Center              X                  Y                   Z               Mass
    ------------   -----------------  -----------------  -----------------  -----------------
         O            3.382896060173    -0.511724277992    -0.157887670450    15.994914619570
         O            1.874320060173     0.265122722008     1.342120329550    15.994914619570
         C           -0.298024939827    -0.315557277992    -0.452908670450    12.000000000000
         C           -0.908169939827     0.934075722008    -0.228668670450    12.000000000000
         C            1.137883060173    -0.414466277992    -0.889542670450    12.000000000000
         C           -1.034426939827    -1.490953277992    -0.267906670450    12.000000000000
         C           -2.247436939827     0.960436722008     0.177593329550    12.000000000000
         C           -0.148117939827     2.221586722008    -0.414246670450    12.000000000000
         C           -2.367285939827    -1.448768277992     0.140999329550    12.000000000000
         C           -2.976643939827    -0.214674277992     0.364754329550    12.000000000000
         C            2.122269060173    -0.175285277992     0.234227329550    12.000000000000
         H            1.375119060173     0.305585722008    -1.683300670450     1.007825032230
         H            1.349731060173    -1.403293277992    -1.311083670450     1.007825032230
         H           -0.555018939827    -2.452534277992    -0.446216670450     1.007825032230
         H           -2.748864939827     1.966428522008     0.359940929550     1.007825032230
         H            0.691222060173     2.282956722008     0.283973329550     1.007825032230
         H            0.250406060173     2.314677722008    -1.431025670450     1.007825032230
         H           -0.801604939827     3.079768722008    -0.236407670450     1.007825032230
         H           -2.924346939827    -2.372055277992     0.280442329550     1.007825032230
         H           -4.015787939827    -0.164703277992     0.681444329550     1.007825032230
         H            3.956657060173    -0.314565277992     0.611541329550     1.007825032230

  Basis Set: AUG-CC-PVTZ
    Blend: AUG-CC-PVTZ
  Basis Set: (AUG-CC-PVTZ AUX)
    Blend: AUG-CC-PVTZ-JKFIT
	 Reference Energy          =    -496.5619400494171032 [Eh]
	 Singles Energy            =      -0.0000000000000000 [Eh]
	 Same-Spin Energy          =      -0.5237694737877642 [Eh]
	 Opposite-Spin Energy      =      -1.6290900579858776 [Eh]
	 Correlation Energy        =      -2.1528595317736419 [Eh]
	 Total Energy              =    -498.7147995811907322 [Eh]

	 ================> DF-SCS-MP2 Energies <==================
	-----------------------------------------------------------
	 SCS Same-Spin Scale       =       0.3333333333333333 [-]
	 SCS Opposite-Spin Scale   =       1.2000000000000000 [-]
	 SCS Same-Spin Energy      =      -0.1745898245959214 [Eh]
	 SCS Opposite-Spin Energy  =      -1.9549080695830530 [Eh]
	 SCS Correlation Energy    =      -2.1294978941789742 [Eh]
	 SCS Total Energy          =    -498.6914379435960996 [Eh]
	-----------------------------------------------------------

  Dipole Moment: [D]
     X:     0.5564      Y:    -0.1372      Z:    -1.2146     Total:     1.3430

*** Psi4 exiting successfully. Buy a developer a beer!
