                               Psi4 1.4a3.dev225

  ==> Input File <==

--------------------------------------------------------------------------
#psi4
#
memory 32 gb

molecule  {
0 1
  O        3.4036770    -0.5312700    -0.1399000
  O        1.8951010     0.2455770     1.3601080
  C       -0.2772440    -0.3351030    -0.4349210
  C       -0.8873890     0.9145300    -0.2106810
  C        1.1586640    -0.4340120    -0.8715550
  C       -1.0136460    -1.5104990    -0.2499190
  C       -2.2266560     0.9408910     0.1955810
  C       -0.1273370     2.2020410    -0.3962590
  C       -2.3465050    -1.4683140     0.1589870
  C       -3.0081140    -0.3184220     0.3961529
  C        2.1430500    -0.1948310     0.2522150
  H        1.3959000     0.2860400    -1.6653130
  H        1.3705120    -1.4228390    -1.2930960
  H       -0.5342380    -2.4720800    -0.4282290
  H       -2.7060670     1.9027110     0.3699220
  H        0.7120030     2.2634110     0.3019610
  H        0.2711870     2.2951320    -1.4130380
  H       -0.7808240     3.0602230    -0.2184200
  H       -2.9035660    -2.3916010     0.2984300
  H       -3.9950070    -0.1842490     0.6994320
  H        3.9774380    -0.3341110     0.6295290
units angstrom
no_reorient  #important for SAPT in psi4, default
symmetry c1  #important for SAPT in psi4, default
}

set PROPERTIES_ORIGIN ["COM"]
properties('MP2/aug-cc-pvtz', properties = ['dipole'])
--------------------------------------------------------------------------

    Molecular point group: c1
  Charge       = 0
  Multiplicity = 1
  Basis Set: AUG-CC-PVTZ
    Blend: AUG-CC-PVTZ
  Basis Set: (AUG-CC-PVTZ AUX)
    Blend: AUG-CC-PVTZ-JKFIT

    Orbital Energies [Eh]
    ---------------------

    Doubly Occupied:

       1A    -20.619209     2A    -20.555258     3A    -11.395169
       4A    -11.259276     5A    -11.246741     6A    -11.243119
       7A    -11.239773     8A    -11.236973     9A    -11.235387
      10A    -11.228628    11A    -11.222585    12A     -1.463242
      13A     -1.360700    14A     -1.158065    15A     -1.071081
      16A     -1.041871    17A     -0.977096    18A     -0.930131
      19A     -0.845728    20A     -0.810032    21A     -0.778890
      22A     -0.709080    23A     -0.689138    24A     -0.680508
      25A     -0.667875    26A     -0.630676    27A     -0.625342
      28A     -0.596432    29A     -0.577914    30A     -0.569020
      31A     -0.565153    32A     -0.549041    33A     -0.540763
      34A     -0.496305    35A     -0.489780    36A     -0.481166
      37A     -0.470374    38A     -0.457989    39A     -0.332590
      40A     -0.322624

  @DF-RHF Final Energy:  -496.55296411576194

   => Energetics <=

    Nuclear Repulsion Energy =            582.4539096939886349
    One-Electron Energy =               -1831.2723006880455614
    Two-Electron Energy =                 752.2654268782949885
    Total Energy =                       -496.5529641157619380
  Basis Set: (AUG-CC-PVTZ AUX)
    Blend: AUG-CC-PVTZ-RI
    Molecular point group: c1

    Geometry (in Angstrom), charge = 0, multiplicity = 1:

       Center              X                  Y                   Z               Mass
    ------------   -----------------  -----------------  -----------------  -----------------
         O            3.386926382398    -0.504694525570    -0.158906285125    15.994914619570
         O            1.878350382398     0.272152474430     1.341101714875    15.994914619570
         C           -0.293994617602    -0.308527525570    -0.453927285125    12.000000000000
         C           -0.904139617602     0.941105474430    -0.229687285125    12.000000000000
         C            1.141913382398    -0.407436525570    -0.890561285125    12.000000000000
         C           -1.030396617602    -1.483923525570    -0.268925285125    12.000000000000
         C           -2.243406617602     0.967466474430     0.176574714875    12.000000000000
         C           -0.144087617602     2.228616474430    -0.415265285125    12.000000000000
         C           -2.363255617602    -1.441738525570     0.139980714875    12.000000000000
         C           -3.024864617602    -0.291846525570     0.377146614875    12.000000000000
         C            2.126299382398    -0.168255525570     0.233208714875    12.000000000000
         H            1.379149382398     0.312615474430    -1.684319285125     1.007825032230
         H            1.353761382398    -1.396263525570    -1.312102285125     1.007825032230
         H           -0.550988617602    -2.445504525570    -0.447235285125     1.007825032230
         H           -2.722817617602     1.929286474430     0.350915714875     1.007825032230
         H            0.695252382398     2.289986474430     0.282954714875     1.007825032230
         H            0.254436382398     2.321707474430    -1.432044285125     1.007825032230
         H           -0.797574617602     3.086798474430    -0.237426285125     1.007825032230
         H           -2.920316617602    -2.365025525570     0.279423714875     1.007825032230
         H           -4.011757617602    -0.157673525570     0.680425714875     1.007825032230
         H            3.960687382398    -0.307535525570     0.610522714875     1.007825032230

  Basis Set: AUG-CC-PVTZ
    Blend: AUG-CC-PVTZ
  Basis Set: (AUG-CC-PVTZ AUX)
    Blend: AUG-CC-PVTZ-JKFIT
	 Reference Energy          =    -496.5529641157619380 [Eh]
	 Singles Energy            =      -0.0000000000000000 [Eh]
	 Same-Spin Energy          =      -0.5233132447182046 [Eh]
	 Opposite-Spin Energy      =      -1.6293546336063345 [Eh]
	 Correlation Energy        =      -2.1526678783245390 [Eh]
	 Total Energy              =    -498.7056319940865023 [Eh]

	 ================> DF-SCS-MP2 Energies <==================
	-----------------------------------------------------------
	 SCS Same-Spin Scale       =       0.3333333333333333 [-]
	 SCS Opposite-Spin Scale   =       1.2000000000000000 [-]
	 SCS Same-Spin Energy      =      -0.1744377482394015 [Eh]
	 SCS Opposite-Spin Energy  =      -1.9552255603276012 [Eh]
	 SCS Correlation Energy    =      -2.1296633085670029 [Eh]
	 SCS Total Energy          =    -498.6826274243289276 [Eh]
	-----------------------------------------------------------

  Dipole Moment: [D]
     X:     0.5415      Y:    -0.1020      Z:    -1.2077     Total:     1.3275

*** Psi4 exiting successfully. Buy a developer a beer!
