                               Psi4 1.4a3.dev225

  ==> Input File <==

--------------------------------------------------------------------------
#psi4
#
memory 32 gb

molecule  {
0 1
  O        3.4036770    -0.5312700    -0.1399000
  O        1.8951010     0.2455770     1.3601080
  C       -0.2772440    -0.3351030    -0.4349210
  C       -0.8873890     0.9145300    -0.2106810
  C        1.1586640    -0.4340120    -0.8715550
  C       -1.0136460    -1.5104990    -0.2499190
  C       -2.2266560     0.9408910     0.1955810
  C       -0.1273370     2.2020410    -0.3962590
  C       -2.3465050    -1.4683140     0.1589870
  C       -2.9558630    -0.2342200     0.3827420
  C        2.1430500    -0.1948310     0.2522150
  H        1.3959000     0.2860400    -1.6653130
  H        1.3705120    -1.4228390    -1.2930960
  H       -0.4902216    -2.5603667    -0.4446004
  H       -2.7060670     1.9027110     0.3699220
  H        0.7120030     2.2634110     0.3019610
  H        0.2711870     2.2951320    -1.4130380
  H       -0.7808240     3.0602230    -0.2184200
  H       -2.9035660    -2.3916010     0.2984300
  H       -3.9950070    -0.1842490     0.6994320
  H        3.9774380    -0.3341110     0.6295290
units angstrom
no_reorient  #important for SAPT in psi4, default
symmetry c1  #important for SAPT in psi4, default
}

set PROPERTIES_ORIGIN ["COM"]
properties('MP2/aug-cc-pvtz', properties = ['dipole'])
--------------------------------------------------------------------------

    Molecular point group: c1
  Charge       = 0
  Multiplicity = 1
  Basis Set: AUG-CC-PVTZ
    Blend: AUG-CC-PVTZ
  Basis Set: (AUG-CC-PVTZ AUX)
    Blend: AUG-CC-PVTZ-JKFIT

    Orbital Energies [Eh]
    ---------------------

    Doubly Occupied:

       1A    -20.618804     2A    -20.554806     3A    -11.394615
       4A    -11.258528     5A    -11.248276     6A    -11.245576
       7A    -11.244382     8A    -11.235719     9A    -11.233630
      10A    -11.231697    11A    -11.223337    12A     -1.462811
      13A     -1.360258    14A     -1.161049    15A     -1.071058
      16A     -1.040746    17A     -0.980549    18A     -0.930964
      19A     -0.839697    20A     -0.807415    21A     -0.778646
      22A     -0.708724    23A     -0.689087    24A     -0.676930
      25A     -0.665519    26A     -0.628266    27A     -0.617752
      28A     -0.596415    29A     -0.575432    30A     -0.567482
      31A     -0.564574    32A     -0.546460    33A     -0.541081
      34A     -0.491999    35A     -0.485320    36A     -0.482557
      37A     -0.480952    38A     -0.457785    39A     -0.334215
      40A     -0.324201

  @DF-RHF Final Energy:  -496.55706307891842

   => Energetics <=

    Nuclear Repulsion Energy =            583.0445134572861434
    One-Electron Energy =               -1832.4885283574444657
    Two-Electron Energy =                 752.8869518212400180
    Total Energy =                       -496.5570630789184179
  Basis Set: (AUG-CC-PVTZ AUX)
    Blend: AUG-CC-PVTZ-RI
    Molecular point group: c1

    Geometry (in Angstrom), charge = 0, multiplicity = 1:

       Center              X                  Y                   Z               Mass
    ------------   -----------------  -----------------  -----------------  -----------------
         O            3.382452594023    -0.510834715119    -0.157723953031    15.994914619570
         O            1.873876594023     0.266012284881     1.342284046969    15.994914619570
         C           -0.298468405977    -0.314667715119    -0.452744953031    12.000000000000
         C           -0.908613405977     0.934965284881    -0.228504953031    12.000000000000
         C            1.137439594023    -0.413576715119    -0.889378953031    12.000000000000
         C           -1.034870405977    -1.490063715119    -0.267742953031    12.000000000000
         C           -2.247880405977     0.961326284881     0.177757046969    12.000000000000
         C           -0.148561405977     2.222476284881    -0.414082953031    12.000000000000
         C           -2.367729405977    -1.447878715119     0.141163046969    12.000000000000
         C           -2.977087405977    -0.213784715119     0.364918046969    12.000000000000
         C            2.121825594023    -0.174395715119     0.234391046969    12.000000000000
         H            1.374675594023     0.306475284881    -1.683136953031     1.007825032230
         H            1.349287594023    -1.402403715119    -1.310919953031     1.007825032230
         H           -0.511446005977    -2.539931415119    -0.462424353031     1.007825032230
         H           -2.727291405977     1.923146284881     0.352098046969     1.007825032230
         H            0.690778594023     2.283846284881     0.284137046969     1.007825032230
         H            0.249962594023     2.315567284881    -1.430861953031     1.007825032230
         H           -0.802048405977     3.080658284881    -0.236243953031     1.007825032230
         H           -2.924790405977    -2.371165715119     0.280606046969     1.007825032230
         H           -4.016231405977    -0.163813715119     0.681608046969     1.007825032230
         H            3.956213594023    -0.313675715119     0.611705046969     1.007825032230

  Basis Set: AUG-CC-PVTZ
    Blend: AUG-CC-PVTZ
  Basis Set: (AUG-CC-PVTZ AUX)
    Blend: AUG-CC-PVTZ-JKFIT
	 Reference Energy          =    -496.5570630789184179 [Eh]
	 Singles Energy            =      -0.0000000000000000 [Eh]
	 Same-Spin Energy          =      -0.5239056845909045 [Eh]
	 Opposite-Spin Energy      =      -1.6296302401973364 [Eh]
	 Correlation Energy        =      -2.1535359247882409 [Eh]
	 Total Energy              =    -498.7105990037066476 [Eh]

	 ================> DF-SCS-MP2 Energies <==================
	-----------------------------------------------------------
	 SCS Same-Spin Scale       =       0.3333333333333333 [-]
	 SCS Opposite-Spin Scale   =       1.2000000000000000 [-]
	 SCS Same-Spin Energy      =      -0.1746352281969681 [Eh]
	 SCS Opposite-Spin Energy  =      -1.9555562882368036 [Eh]
	 SCS Correlation Energy    =      -2.1301915164337717 [Eh]
	 SCS Total Energy          =    -498.6872545953522149 [Eh]
	-----------------------------------------------------------

  Dipole Moment: [D]
     X:     0.5178      Y:    -0.0667      Z:    -1.2018     Total:     1.3103

*** Psi4 exiting successfully. Buy a developer a beer!
