                               Psi4 1.4a3.dev225

  ==> Input File <==

--------------------------------------------------------------------------
#psi4
#
memory 32 gb

molecule  {
0 1
  O        3.4036770    -0.5312700    -0.1399000
  O        1.8951010     0.2455770     1.3601080
  C       -0.2772440    -0.3351030    -0.4349210
  C       -0.8873890     0.9145300    -0.2106810
  C        1.1395705    -0.4326968    -0.8657490
  C       -1.0136460    -1.5104990    -0.2499190
  C       -2.2266560     0.9408910     0.1955810
  C       -0.1273370     2.2020410    -0.3962590
  C       -2.3465050    -1.4683140     0.1589870
  C       -2.9558630    -0.2342200     0.3827420
  C        2.1430500    -0.1948310     0.2522150
  H        1.3959000     0.2860400    -1.6653130
  H        1.3705120    -1.4228390    -1.2930960
  H       -0.5342380    -2.4720800    -0.4282290
  H       -2.7060670     1.9027110     0.3699220
  H        0.7120030     2.2634110     0.3019610
  H        0.2711870     2.2951320    -1.4130380
  H       -0.7808240     3.0602230    -0.2184200
  H       -2.9035660    -2.3916010     0.2984300
  H       -3.9950070    -0.1842490     0.6994320
  H        3.9774380    -0.3341110     0.6295290
units angstrom
no_reorient  #important for SAPT in psi4, default
symmetry c1  #important for SAPT in psi4, default
}

set PROPERTIES_ORIGIN ["COM"]
properties('MP2/aug-cc-pvtz', properties = ['dipole'])
--------------------------------------------------------------------------

    Molecular point group: c1
  Charge       = 0
  Multiplicity = 1
  Basis Set: AUG-CC-PVTZ
    Blend: AUG-CC-PVTZ
  Basis Set: (AUG-CC-PVTZ AUX)
    Blend: AUG-CC-PVTZ-JKFIT

    Orbital Energies [Eh]
    ---------------------

    Doubly Occupied:

       1A    -20.619323     2A    -20.554285     3A    -11.394685
       4A    -11.259261     5A    -11.244309     6A    -11.242729
       7A    -11.236827     8A    -11.235046     9A    -11.232518
      10A    -11.231229    11A    -11.222886    12A     -1.462677
      13A     -1.360108    14A     -1.161854    15A     -1.071649
      16A     -1.041829    17A     -0.980566    18A     -0.930376
      19A     -0.841796    20A     -0.812453    21A     -0.777830
      22A     -0.708647    23A     -0.688892    24A     -0.678418
      25A     -0.666248    26A     -0.628070    27A     -0.627073
      28A     -0.595846    29A     -0.578640    30A     -0.567601
      31A     -0.566558    32A     -0.546244    33A     -0.541047
      34A     -0.491444    35A     -0.488181    36A     -0.484109
      37A     -0.481208    38A     -0.456569    39A     -0.333474
      40A     -0.323494

  @DF-RHF Final Energy:  -496.56383263945111

   => Energetics <=

    Nuclear Repulsion Energy =            583.7357957431107707
    One-Electron Energy =               -1833.8672539173944642
    Two-Electron Energy =                 753.5676255348324730
    Total Energy =                       -496.5638326394511068
  Basis Set: (AUG-CC-PVTZ AUX)
    Blend: AUG-CC-PVTZ-RI
    Molecular point group: c1

    Geometry (in Angstrom), charge = 0, multiplicity = 1:

       Center              X                  Y                   Z               Mass
    ------------   -----------------  -----------------  -----------------  -----------------
         O            3.384274985771    -0.511532797926    -0.158298169127    15.994914619570
         O            1.875698985771     0.265314202074     1.341709830873    15.994914619570
         C           -0.296646014229    -0.315365797926    -0.453319169127    12.000000000000
         C           -0.906791014229     0.934267202074    -0.229079169127    12.000000000000
         C            1.120168485771    -0.412959597926    -0.884147169127    12.000000000000
         C           -1.033048014229    -1.490761797926    -0.268317169127    12.000000000000
         C           -2.246058014229     0.960628202074     0.177182830873    12.000000000000
         C           -0.146739014229     2.221778202074    -0.414657169127    12.000000000000
         C           -2.365907014229    -1.448576797926     0.140588830873    12.000000000000
         C           -2.975265014229    -0.214482797926     0.364343830873    12.000000000000
         C            2.123647985771    -0.175093797926     0.233816830873    12.000000000000
         H            1.376497985771     0.305777202074    -1.683711169127     1.007825032230
         H            1.351109985771    -1.403101797926    -1.311494169127     1.007825032230
         H           -0.553640014229    -2.452342797926    -0.446627169127     1.007825032230
         H           -2.725469014229     1.922448202074     0.351523830873     1.007825032230
         H            0.692600985771     2.283148202074     0.283562830873     1.007825032230
         H            0.251784985771     2.314869202074    -1.431436169127     1.007825032230
         H           -0.800226014229     3.079960202074    -0.236818169127     1.007825032230
         H           -2.922968014229    -2.371863797926     0.280031830873     1.007825032230
         H           -4.014409014229    -0.164511797926     0.681033830873     1.007825032230
         H            3.958035985771    -0.314373797926     0.611130830873     1.007825032230

  Basis Set: AUG-CC-PVTZ
    Blend: AUG-CC-PVTZ
  Basis Set: (AUG-CC-PVTZ AUX)
    Blend: AUG-CC-PVTZ-JKFIT
	 Reference Energy          =    -496.5638326394511068 [Eh]
	 Singles Energy            =      -0.0000000000000000 [Eh]
	 Same-Spin Energy          =      -0.5238017448795999 [Eh]
	 Opposite-Spin Energy      =      -1.6287904526065731 [Eh]
	 Correlation Energy        =      -2.1525921974861730 [Eh]
	 Total Energy              =    -498.7164248369372785 [Eh]

	 ================> DF-SCS-MP2 Energies <==================
	-----------------------------------------------------------
	 SCS Same-Spin Scale       =       0.3333333333333333 [-]
	 SCS Opposite-Spin Scale   =       1.2000000000000000 [-]
	 SCS Same-Spin Energy      =      -0.1746005816265333 [Eh]
	 SCS Opposite-Spin Energy  =      -1.9545485431278875 [Eh]
	 SCS Correlation Energy    =      -2.1291491247544210 [Eh]
	 SCS Total Energy          =    -498.6929817642055127 [Eh]
	-----------------------------------------------------------

  Dipole Moment: [D]
     X:     0.5350      Y:    -0.1155      Z:    -1.2077     Total:     1.3259

*** Psi4 exiting successfully. Buy a developer a beer!
