                               Psi4 1.4a3.dev225

  ==> Input File <==

--------------------------------------------------------------------------
#psi4
#
memory 32 gb

molecule  {
0 1
  O        3.4036770    -0.5312700    -0.1399000
  O        1.8951010     0.2455770     1.3601080
  C       -0.2772440    -0.3351030    -0.4349210
  C       -0.8873890     0.9145300    -0.2106810
  C        1.1586640    -0.4340120    -0.8715550
  C       -1.0136460    -1.5104990    -0.2499190
  C       -2.2266560     0.9408910     0.1955810
  C       -0.1273370     2.2020410    -0.3962590
  C       -2.3465050    -1.4683140     0.1589870
  C       -2.9297375    -0.1921190     0.3760365
  C        2.1430500    -0.1948310     0.2522150
  H        1.3959000     0.2860400    -1.6653130
  H        1.3705120    -1.4228390    -1.2930960
  H       -0.5342380    -2.4720800    -0.4282290
  H       -2.7060670     1.9027110     0.3699220
  H        0.7120030     2.2634110     0.3019610
  H        0.2711870     2.2951320    -1.4130380
  H       -0.7808240     3.0602230    -0.2184200
  H       -2.9035660    -2.3916010     0.2984300
  H       -3.9950070    -0.1842490     0.6994320
  H        3.9774380    -0.3341110     0.6295290
units angstrom
no_reorient  #important for SAPT in psi4, default
symmetry c1  #important for SAPT in psi4, default
}

set PROPERTIES_ORIGIN ["COM"]
properties('MP2/aug-cc-pvtz', properties = ['dipole'])
--------------------------------------------------------------------------

    Molecular point group: c1
  Charge       = 0
  Multiplicity = 1
  Basis Set: AUG-CC-PVTZ
    Blend: AUG-CC-PVTZ
  Basis Set: (AUG-CC-PVTZ AUX)
    Blend: AUG-CC-PVTZ-JKFIT

    Orbital Energies [Eh]
    ---------------------

    Doubly Occupied:

       1A    -20.618737     2A    -20.554720     3A    -11.394457
       4A    -11.258371     5A    -11.244459     6A    -11.242765
       7A    -11.236616     8A    -11.234814     9A    -11.233568
      10A    -11.225730    11A    -11.222983    12A     -1.462735
      13A     -1.360162    14A     -1.162884    15A     -1.071970
      16A     -1.041098    17A     -0.985664    18A     -0.929526
      19A     -0.838294    20A     -0.813275    21A     -0.777907
      22A     -0.708779    23A     -0.689193    24A     -0.677964
      25A     -0.666932    26A     -0.629500    27A     -0.623711
      28A     -0.596409    29A     -0.581305    30A     -0.568643
      31A     -0.561168    32A     -0.548703    33A     -0.539568
      34A     -0.493113    35A     -0.488525    36A     -0.482136
      37A     -0.479031    38A     -0.457787    39A     -0.340063
      40A     -0.319199

  @DF-RHF Final Energy:  -496.56122748610937

   => Energetics <=

    Nuclear Repulsion Energy =            584.1161887669502448
    One-Electron Energy =               -1834.6299070739078161
    Two-Electron Energy =                 753.9524908208481975
    Total Energy =                       -496.5612274861093738
  Basis Set: (AUG-CC-PVTZ AUX)
    Blend: AUG-CC-PVTZ-RI
    Molecular point group: c1

    Geometry (in Angstrom), charge = 0, multiplicity = 1:

       Center              X                  Y                   Z               Mass
    ------------   -----------------  -----------------  -----------------  -----------------
         O            3.380659106887    -0.514794181703    -0.157297703202    15.994914619570
         O            1.872083106887     0.262052818297     1.342710296798    15.994914619570
         C           -0.300261893113    -0.318627181703    -0.452318703202    12.000000000000
         C           -0.910406893113     0.931005818297    -0.228078703202    12.000000000000
         C            1.135646106887    -0.417536181703    -0.888952703202    12.000000000000
         C           -1.036663893113    -1.494023181703    -0.267316703202    12.000000000000
         C           -2.249673893113     0.957366818297     0.178183296798    12.000000000000
         C           -0.150354893113     2.218516818297    -0.413656703202    12.000000000000
         C           -2.369522893113    -1.451838181703     0.141589296798    12.000000000000
         C           -2.952755393113    -0.175643181703     0.358638796798    12.000000000000
         C            2.120032106887    -0.178355181703     0.234817296798    12.000000000000
         H            1.372882106887     0.302515818297    -1.682710703202     1.007825032230
         H            1.347494106887    -1.406363181703    -1.310493703202     1.007825032230
         H           -0.557255893113    -2.455604181703    -0.445626703202     1.007825032230
         H           -2.729084893113     1.919186818297     0.352524296798     1.007825032230
         H            0.688985106887     2.279886818297     0.284563296798     1.007825032230
         H            0.248169106887     2.311607818297    -1.430435703202     1.007825032230
         H           -0.803841893113     3.076698818297    -0.235817703202     1.007825032230
         H           -2.926583893113    -2.375125181703     0.281032296798     1.007825032230
         H           -4.018024893113    -0.167773181703     0.682034296798     1.007825032230
         H            3.954420106887    -0.317635181703     0.612131296798     1.007825032230

  Basis Set: AUG-CC-PVTZ
    Blend: AUG-CC-PVTZ
  Basis Set: (AUG-CC-PVTZ AUX)
    Blend: AUG-CC-PVTZ-JKFIT
	 Reference Energy          =    -496.5612274861093738 [Eh]
	 Singles Energy            =      -0.0000000000000000 [Eh]
	 Same-Spin Energy          =      -0.5237122819592818 [Eh]
	 Opposite-Spin Energy      =      -1.6287379223405702 [Eh]
	 Correlation Energy        =      -2.1524502042998521 [Eh]
	 Total Energy              =    -498.7136776904092130 [Eh]

	 ================> DF-SCS-MP2 Energies <==================
	-----------------------------------------------------------
	 SCS Same-Spin Scale       =       0.3333333333333333 [-]
	 SCS Opposite-Spin Scale   =       1.2000000000000000 [-]
	 SCS Same-Spin Energy      =      -0.1745707606530939 [Eh]
	 SCS Opposite-Spin Energy  =      -1.9544855068086842 [Eh]
	 SCS Correlation Energy    =      -2.1290562674617779 [Eh]
	 SCS Total Energy          =    -498.6902837535711797 [Eh]
	-----------------------------------------------------------

  Dipole Moment: [D]
     X:     0.5498      Y:    -0.1237      Z:    -1.2147     Total:     1.3391

*** Psi4 exiting successfully. Buy a developer a beer!
