                               Psi4 1.4a3.dev225

  ==> Input File <==

--------------------------------------------------------------------------
#psi4
#
memory 32 gb

molecule  {
0 1
  O        3.4036770    -0.5312700    -0.1399000
  O        1.8951010     0.2455770     1.3601080
  C       -0.2772440    -0.3351030    -0.4349210
  C       -0.7987337     0.8630985    -0.2342029
  C        1.1586640    -0.4340120    -0.8715550
  C       -1.0136460    -1.5104990    -0.2499190
  C       -2.2266560     0.9408910     0.1955810
  C       -0.1273370     2.2020410    -0.3962590
  C       -2.3465050    -1.4683140     0.1589870
  C       -2.9558630    -0.2342200     0.3827420
  C        2.1430500    -0.1948310     0.2522150
  H        1.3959000     0.2860400    -1.6653130
  H        1.3705120    -1.4228390    -1.2930960
  H       -0.5342380    -2.4720800    -0.4282290
  H       -2.7060670     1.9027110     0.3699220
  H        0.7120030     2.2634110     0.3019610
  H        0.2711870     2.2951320    -1.4130380
  H       -0.7808240     3.0602230    -0.2184200
  H       -2.9035660    -2.3916010     0.2984300
  H       -3.9950070    -0.1842490     0.6994320
  H        3.9774380    -0.3341110     0.6295290
units angstrom
no_reorient  #important for SAPT in psi4, default
symmetry c1  #important for SAPT in psi4, default
}

set PROPERTIES_ORIGIN ["COM"]
properties('MP2/aug-cc-pvtz', properties = ['dipole'])
--------------------------------------------------------------------------

    Molecular point group: c1
  Charge       = 0
  Multiplicity = 1
  Basis Set: AUG-CC-PVTZ
    Blend: AUG-CC-PVTZ
  Basis Set: (AUG-CC-PVTZ AUX)
    Blend: AUG-CC-PVTZ-JKFIT

    Orbital Energies [Eh]
    ---------------------

    Doubly Occupied:

       1A    -20.618399     2A    -20.554617     3A    -11.394134
       4A    -11.256356     5A    -11.243209     6A    -11.239942
       7A    -11.237430     8A    -11.234214     9A    -11.233470
      10A    -11.232812    11A    -11.223840    12A     -1.462479
      13A     -1.360027    14A     -1.164709    15A     -1.072781
      16A     -1.034964    17A     -0.983051    18A     -0.931871
      19A     -0.838658    20A     -0.823017    21A     -0.769796
      22A     -0.708548    23A     -0.688718    24A     -0.678418
      25A     -0.666620    26A     -0.627094    27A     -0.626942
      28A     -0.597248    29A     -0.577355    30A     -0.569203
      31A     -0.565585    32A     -0.546376    33A     -0.542364
      34A     -0.500684    35A     -0.490787    36A     -0.481656
      37A     -0.464893    38A     -0.457167    39A     -0.340263
      40A     -0.318679

  @DF-RHF Final Energy:  -496.55109972007932

   => Energetics <=

    Nuclear Repulsion Energy =            584.3327908599513876
    One-Electron Energy =               -1835.0510312220085325
    Two-Electron Energy =                 754.1671406419778805
    Total Energy =                       -496.5510997200793781
  Basis Set: (AUG-CC-PVTZ AUX)
    Blend: AUG-CC-PVTZ-RI
    Molecular point group: c1

    Geometry (in Angstrom), charge = 0, multiplicity = 1:

       Center              X                  Y                   Z               Mass
    ------------   -----------------  -----------------  -----------------  -----------------
         O            3.375658992258    -0.507314976243    -0.155953001514    15.994914619570
         O            1.867082992258     0.269532023757     1.344054998486    15.994914619570
         C           -0.305262007742    -0.311147976243    -0.450974001514    12.000000000000
         C           -0.826751707742     0.887053523757    -0.250255901514    12.000000000000
         C            1.130645992258    -0.410056976243    -0.887608001514    12.000000000000
         C           -1.041664007742    -1.486543976243    -0.265972001514    12.000000000000
         C           -2.254674007742     0.964846023757     0.179527998486    12.000000000000
         C           -0.155355007742     2.225996023757    -0.412312001514    12.000000000000
         C           -2.374523007742    -1.444358976243     0.142933998486    12.000000000000
         C           -2.983881007742    -0.210264976243     0.366688998486    12.000000000000
         C            2.115031992258    -0.170875976243     0.236161998486    12.000000000000
         H            1.367881992258     0.309995023757    -1.681366001514     1.007825032230
         H            1.342493992258    -1.398883976243    -1.309149001514     1.007825032230
         H           -0.562256007742    -2.448124976243    -0.444282001514     1.007825032230
         H           -2.734085007742     1.926666023757     0.353868998486     1.007825032230
         H            0.683984992258     2.287366023757     0.285907998486     1.007825032230
         H            0.243168992258     2.319087023757    -1.429091001514     1.007825032230
         H           -0.808842007742     3.084178023757    -0.234473001514     1.007825032230
         H           -2.931584007742    -2.367645976243     0.282376998486     1.007825032230
         H           -4.023025007742    -0.160293976243     0.683378998486     1.007825032230
         H            3.949419992258    -0.310155976243     0.613475998486     1.007825032230

  Basis Set: AUG-CC-PVTZ
    Blend: AUG-CC-PVTZ
  Basis Set: (AUG-CC-PVTZ AUX)
    Blend: AUG-CC-PVTZ-JKFIT
	 Reference Energy          =    -496.5510997200793213 [Eh]
	 Singles Energy            =      -0.0000000000000000 [Eh]
	 Same-Spin Energy          =      -0.5234934988477588 [Eh]
	 Opposite-Spin Energy      =      -1.6292539556091943 [Eh]
	 Correlation Energy        =      -2.1527474544569531 [Eh]
	 Total Energy              =    -498.7038471745362926 [Eh]

	 ================> DF-SCS-MP2 Energies <==================
	-----------------------------------------------------------
	 SCS Same-Spin Scale       =       0.3333333333333333 [-]
	 SCS Opposite-Spin Scale   =       1.2000000000000000 [-]
	 SCS Same-Spin Energy      =      -0.1744978329492529 [Eh]
	 SCS Opposite-Spin Energy  =      -1.9551047467310330 [Eh]
	 SCS Correlation Energy    =      -2.1296025796802858 [Eh]
	 SCS Total Energy          =    -498.6807022997596164 [Eh]
	-----------------------------------------------------------

  Dipole Moment: [D]
     X:     0.4988      Y:    -0.0763      Z:    -1.2008     Total:     1.3025

*** Psi4 exiting successfully. Buy a developer a beer!
