                               Psi4 1.4a3.dev225

  ==> Input File <==

--------------------------------------------------------------------------
#psi4
#
memory 32 gb

molecule  {
0 1
  O        3.4036770    -0.5312700    -0.1399000
  O        1.8951010     0.2455770     1.3601080
  C       -0.2772440    -0.3351030    -0.4349210
  C       -0.8873890     0.9145300    -0.2106810
  C        1.2541314    -0.4405880    -0.9005849
  C       -1.0136460    -1.5104990    -0.2499190
  C       -2.2266560     0.9408910     0.1955810
  C       -0.1273370     2.2020410    -0.3962590
  C       -2.3465050    -1.4683140     0.1589870
  C       -2.9558630    -0.2342200     0.3827420
  C        2.1430500    -0.1948310     0.2522150
  H        1.3959000     0.2860400    -1.6653130
  H        1.3705120    -1.4228390    -1.2930960
  H       -0.5342380    -2.4720800    -0.4282290
  H       -2.7060670     1.9027110     0.3699220
  H        0.7120030     2.2634110     0.3019610
  H        0.2711870     2.2951320    -1.4130380
  H       -0.7808240     3.0602230    -0.2184200
  H       -2.9035660    -2.3916010     0.2984300
  H       -3.9950070    -0.1842490     0.6994320
  H        3.9774380    -0.3341110     0.6295290
units angstrom
no_reorient  #important for SAPT in psi4, default
symmetry c1  #important for SAPT in psi4, default
}

set PROPERTIES_ORIGIN ["COM"]
properties('MP2/aug-cc-pvtz', properties = ['dipole'])
--------------------------------------------------------------------------

    Molecular point group: c1
  Charge       = 0
  Multiplicity = 1
  Basis Set: AUG-CC-PVTZ
    Blend: AUG-CC-PVTZ
  Basis Set: (AUG-CC-PVTZ AUX)
    Blend: AUG-CC-PVTZ-JKFIT

    Orbital Energies [Eh]
    ---------------------

    Doubly Occupied:

       1A    -20.616674     2A    -20.557870     3A    -11.394888
       4A    -11.256781     5A    -11.249032     6A    -11.243074
       7A    -11.236130     8A    -11.233870     9A    -11.232036
      10A    -11.230704    11A    -11.222691    12A     -1.464136
      13A     -1.361454    14A     -1.156731    15A     -1.067625
      16A     -1.041044    17A     -0.987502    18A     -0.929984
      19A     -0.836929    20A     -0.811098    21A     -0.779468
      22A     -0.710059    23A     -0.692231    24A     -0.678824
      25A     -0.670324    26A     -0.628217    27A     -0.620115
      28A     -0.599739    29A     -0.578444    30A     -0.570731
      31A     -0.559303    32A     -0.554717    33A     -0.536888
      34A     -0.491851    35A     -0.485840    36A     -0.482132
      37A     -0.473305    38A     -0.463318    39A     -0.333482
      40A     -0.323045

  @DF-RHF Final Energy:  -496.55545330170310

   => Energetics <=

    Nuclear Repulsion Energy =            582.5645703077276494
    One-Electron Energy =               -1831.5154734453651599
    Two-Electron Energy =                 752.3954498359343006
    Total Energy =                       -496.5554533017030963
  Basis Set: (AUG-CC-PVTZ AUX)
    Blend: AUG-CC-PVTZ-RI
    Molecular point group: c1

    Geometry (in Angstrom), charge = 0, multiplicity = 1:

       Center              X                  Y                   Z               Mass
    ------------   -----------------  -----------------  -----------------  -----------------
         O            3.375114271487    -0.510901788319    -0.155512561413    15.994914619570
         O            1.866538271487     0.265945211681     1.344495438587    15.994914619570
         C           -0.305806728513    -0.314734788319    -0.450533561413    12.000000000000
         C           -0.915951728513     0.934898211681    -0.226293561413    12.000000000000
         C            1.225568671487    -0.420219788319    -0.916197461413    12.000000000000
         C           -1.042208728513    -1.490130788319    -0.265531561413    12.000000000000
         C           -2.255218728513     0.961259211681     0.179968438587    12.000000000000
         C           -0.155899728513     2.222409211681    -0.411871561413    12.000000000000
         C           -2.375067728513    -1.447945788319     0.143374438587    12.000000000000
         C           -2.984425728513    -0.213851788319     0.367129438587    12.000000000000
         C            2.114487271487    -0.174462788319     0.236602438587    12.000000000000
         H            1.367337271487     0.306408211681    -1.680925561413     1.007825032230
         H            1.341949271487    -1.402470788319    -1.308708561413     1.007825032230
         H           -0.562800728513    -2.451711788319    -0.443841561413     1.007825032230
         H           -2.734629728513     1.923079211681     0.354309438587     1.007825032230
         H            0.683440271487     2.283779211681     0.286348438587     1.007825032230
         H            0.242624271487     2.315500211681    -1.428650561413     1.007825032230
         H           -0.809386728513     3.080591211681    -0.234032561413     1.007825032230
         H           -2.932128728513    -2.371232788319     0.282817438587     1.007825032230
         H           -4.023569728513    -0.163880788319     0.683819438587     1.007825032230
         H            3.948875271487    -0.313742788319     0.613916438587     1.007825032230

  Basis Set: AUG-CC-PVTZ
    Blend: AUG-CC-PVTZ
  Basis Set: (AUG-CC-PVTZ AUX)
    Blend: AUG-CC-PVTZ-JKFIT
	 Reference Energy          =    -496.5554533017030963 [Eh]
	 Singles Energy            =      -0.0000000000000000 [Eh]
	 Same-Spin Energy          =      -0.5234976449962294 [Eh]
	 Opposite-Spin Energy      =      -1.6291034418250128 [Eh]
	 Correlation Energy        =      -2.1526010868212424 [Eh]
	 Total Energy              =    -498.7080543885243173 [Eh]

	 ================> DF-SCS-MP2 Energies <==================
	-----------------------------------------------------------
	 SCS Same-Spin Scale       =       0.3333333333333333 [-]
	 SCS Opposite-Spin Scale   =       1.2000000000000000 [-]
	 SCS Same-Spin Energy      =      -0.1744992149987431 [Eh]
	 SCS Opposite-Spin Energy  =      -1.9549241301900153 [Eh]
	 SCS Correlation Energy    =      -2.1294233451887585 [Eh]
	 SCS Total Energy          =    -498.6848766468918370 [Eh]
	-----------------------------------------------------------

  Dipole Moment: [D]
     X:     0.5715      Y:    -0.1107      Z:    -1.2189     Total:     1.3507

*** Psi4 exiting successfully. Buy a developer a beer!
