                               Psi4 1.4a3.dev225

  ==> Input File <==

--------------------------------------------------------------------------
#psi4
#
memory 32 gb

molecule  {
0 1
  O        3.4036770    -0.5312700    -0.1399000
  O        1.8951010     0.2455770     1.3601080
  C       -0.2772440    -0.3351030    -0.4349210
  C       -0.8873890     0.9145300    -0.2106810
  C        1.1586640    -0.4340120    -0.8715550
  C       -1.0136460    -1.5104990    -0.2499190
  C       -2.2266560     0.9408910     0.1955810
  C       -0.1273370     2.2020410    -0.3962590
  C       -2.3472308    -1.4926400     0.1584061
  C       -2.9558630    -0.2342200     0.3827420
  C        2.1430500    -0.1948310     0.2522150
  H        1.3959000     0.2860400    -1.6653130
  H        1.3705120    -1.4228390    -1.2930960
  H       -0.5342380    -2.4720800    -0.4282290
  H       -2.7060670     1.9027110     0.3699220
  H        0.7120030     2.2634110     0.3019610
  H        0.2711870     2.2951320    -1.4130380
  H       -0.7808240     3.0602230    -0.2184200
  H       -2.9035660    -2.3916010     0.2984300
  H       -3.9950070    -0.1842490     0.6994320
  H        3.9774380    -0.3341110     0.6295290
units angstrom
no_reorient  #important for SAPT in psi4, default
symmetry c1  #important for SAPT in psi4, default
}

set PROPERTIES_ORIGIN ["COM"]
properties('MP2/aug-cc-pvtz', properties = ['dipole'])
--------------------------------------------------------------------------

    Molecular point group: c1
  Charge       = 0
  Multiplicity = 1
  Basis Set: AUG-CC-PVTZ
    Blend: AUG-CC-PVTZ
  Basis Set: (AUG-CC-PVTZ AUX)
    Blend: AUG-CC-PVTZ-JKFIT

    Orbital Energies [Eh]
    ---------------------

    Doubly Occupied:

       1A    -20.618824     2A    -20.554814     3A    -11.394581
       4A    -11.258658     5A    -11.244812     6A    -11.243591
       7A    -11.237250     8A    -11.236960     9A    -11.233091
      10A    -11.231238    11A    -11.223044    12A     -1.462826
      13A     -1.360258    14A     -1.159454    15A     -1.069075
      16A     -1.041755    17A     -0.981138    18A     -0.930802
      19A     -0.839960    20A     -0.811863    21A     -0.779714
      22A     -0.708894    23A     -0.689502    24A     -0.678749
      25A     -0.665979    26A     -0.627523    27A     -0.626985
      28A     -0.596365    29A     -0.579357    30A     -0.568902
      31A     -0.564884    32A     -0.548379    33A     -0.540182
      34A     -0.490755    35A     -0.486735    36A     -0.484447
      37A     -0.480823    38A     -0.457662    39A     -0.333948
      40A     -0.321755

  @DF-RHF Final Energy:  -496.56342965873370

   => Energetics <=

    Nuclear Repulsion Energy =            583.1450993350350700
    One-Electron Energy =               -1832.6859964014913658
    Two-Electron Energy =                 752.9774674077225427
    Total Energy =                       -496.5634296587336394
  Basis Set: (AUG-CC-PVTZ AUX)
    Blend: AUG-CC-PVTZ-RI
    Molecular point group: c1

    Geometry (in Angstrom), charge = 0, multiplicity = 1:

       Center              X                  Y                   Z               Mass
    ------------   -----------------  -----------------  -----------------  -----------------
         O            3.382806236383    -0.509482432513    -0.157787448924    15.994914619570
         O            1.874230236383     0.267364567487     1.342220551076    15.994914619570
         C           -0.298114763617    -0.313315432513    -0.452808448924    12.000000000000
         C           -0.908259763617     0.936317567487    -0.228568448924    12.000000000000
         C            1.137793236383    -0.412224432513    -0.889442448924    12.000000000000
         C           -1.034516763617    -1.488711432513    -0.267806448924    12.000000000000
         C           -2.247526763617     0.962678567487     0.177693551076    12.000000000000
         C           -0.148207763617     2.223828567487    -0.414146448924    12.000000000000
         C           -2.368101563617    -1.470852432513     0.140518651076    12.000000000000
         C           -2.976733763617    -0.212432432513     0.364854551076    12.000000000000
         C            2.122179236383    -0.173043432513     0.234327551076    12.000000000000
         H            1.375029236383     0.307827567487    -1.683200448924     1.007825032230
         H            1.349641236383    -1.401051432513    -1.310983448924     1.007825032230
         H           -0.555108763617    -2.450292432513    -0.446116448924     1.007825032230
         H           -2.726937763617     1.924498567487     0.352034551076     1.007825032230
         H            0.691132236383     2.285198567487     0.284073551076     1.007825032230
         H            0.250316236383     2.316919567487    -1.430925448924     1.007825032230
         H           -0.801694763617     3.082010567487    -0.236307448924     1.007825032230
         H           -2.924436763617    -2.369813432513     0.280542551076     1.007825032230
         H           -4.015877763617    -0.162461432513     0.681544551076     1.007825032230
         H            3.956567236383    -0.312323432513     0.611641551076     1.007825032230

  Basis Set: AUG-CC-PVTZ
    Blend: AUG-CC-PVTZ
  Basis Set: (AUG-CC-PVTZ AUX)
    Blend: AUG-CC-PVTZ-JKFIT
	 Reference Energy          =    -496.5634296587336962 [Eh]
	 Singles Energy            =      -0.0000000000000000 [Eh]
	 Same-Spin Energy          =      -0.5236491243123080 [Eh]
	 Opposite-Spin Energy      =      -1.6288429260045763 [Eh]
	 Correlation Energy        =      -2.1524920503168845 [Eh]
	 Total Energy              =    -498.7159217090505763 [Eh]

	 ================> DF-SCS-MP2 Energies <==================
	-----------------------------------------------------------
	 SCS Same-Spin Scale       =       0.3333333333333333 [-]
	 SCS Opposite-Spin Scale   =       1.2000000000000000 [-]
	 SCS Same-Spin Energy      =      -0.1745497081041027 [Eh]
	 SCS Opposite-Spin Energy  =      -1.9546115112054914 [Eh]
	 SCS Correlation Energy    =      -2.1291612193095939 [Eh]
	 SCS Total Energy          =    -498.6925908780432906 [Eh]
	-----------------------------------------------------------

  Dipole Moment: [D]
     X:     0.5413      Y:    -0.1183      Z:    -1.2103     Total:     1.3311

*** Psi4 exiting successfully. Buy a developer a beer!
