                               Psi4 1.4a3.dev225

  ==> Input File <==

--------------------------------------------------------------------------
#psi4
#
memory 32 gb

molecule  {
0 1
  O        3.4036770    -0.5312700    -0.1399000
  O        1.8951010     0.2455770     1.3601080
  C       -0.2772440    -0.3351030    -0.4349210
  C       -0.8873890     0.9145300    -0.2106810
  C        1.2063977    -0.4373000    -0.8860700
  C       -1.0136460    -1.5104990    -0.2499190
  C       -2.2266560     0.9408910     0.1955810
  C       -0.1273370     2.2020410    -0.3962590
  C       -2.3465050    -1.4683140     0.1589870
  C       -2.9558630    -0.2342200     0.3827420
  C        2.1430500    -0.1948310     0.2522150
  H        1.3959000     0.2860400    -1.6653130
  H        1.3705120    -1.4228390    -1.2930960
  H       -0.5342380    -2.4720800    -0.4282290
  H       -2.7060670     1.9027110     0.3699220
  H        0.7120030     2.2634110     0.3019610
  H        0.2711870     2.2951320    -1.4130380
  H       -0.7808240     3.0602230    -0.2184200
  H       -2.9035660    -2.3916010     0.2984300
  H       -3.9950070    -0.1842490     0.6994320
  H        3.9774380    -0.3341110     0.6295290
units angstrom
no_reorient  #important for SAPT in psi4, default
symmetry c1  #important for SAPT in psi4, default
}

set PROPERTIES_ORIGIN ["COM"]
properties('MP2/aug-cc-pvtz', properties = ['dipole'])
--------------------------------------------------------------------------

    Molecular point group: c1
  Charge       = 0
  Multiplicity = 1
  Basis Set: AUG-CC-PVTZ
    Blend: AUG-CC-PVTZ
  Basis Set: (AUG-CC-PVTZ AUX)
    Blend: AUG-CC-PVTZ-JKFIT

    Orbital Energies [Eh]
    ---------------------

    Doubly Occupied:

       1A    -20.617760     2A    -20.556371     3A    -11.394704
       4A    -11.257430     5A    -11.246869     6A    -11.243354
       7A    -11.236363     8A    -11.234295     9A    -11.232216
      10A    -11.230898    11A    -11.222767    12A     -1.463459
      13A     -1.360869    14A     -1.158555    15A     -1.068783
      16A     -1.041274    17A     -0.984878    18A     -0.930194
      19A     -0.838624    20A     -0.811534    21A     -0.778809
      22A     -0.709430    23A     -0.690521    24A     -0.678582
      25A     -0.668541    26A     -0.628036    27A     -0.622597
      28A     -0.597935    29A     -0.577354    30A     -0.569882
      31A     -0.559713    32A     -0.554653    33A     -0.539073
      34A     -0.491589    35A     -0.485734    36A     -0.482001
      37A     -0.480027    38A     -0.460756    39A     -0.333531
      40A     -0.323257

  @DF-RHF Final Energy:  -496.56225020614761

   => Energetics <=

    Nuclear Repulsion Energy =            583.0379804634847005
    One-Electron Energy =               -1832.4740241409313057
    Two-Electron Energy =                 752.8737934712989954
    Total Energy =                       -496.5622502061476098
  Basis Set: (AUG-CC-PVTZ AUX)
    Blend: AUG-CC-PVTZ-RI
    Molecular point group: c1

    Geometry (in Angstrom), charge = 0, multiplicity = 1:

       Center              X                  Y                   Z               Mass
    ------------   -----------------  -----------------  -----------------  -----------------
         O            3.378931235105    -0.511164708989    -0.156673226630    15.994914619570
         O            1.870355235105     0.265682291011     1.343334773370    15.994914619570
         C           -0.301989764895    -0.314997708989    -0.451694226630    12.000000000000
         C           -0.912134764895     0.934635291011    -0.227454226630    12.000000000000
         C            1.181651935105    -0.417194708989    -0.902843226630    12.000000000000
         C           -1.038391764895    -1.490393708989    -0.266692226630    12.000000000000
         C           -2.251401764895     0.960996291011     0.178807773370    12.000000000000
         C           -0.152082764895     2.222146291011    -0.413032226630    12.000000000000
         C           -2.371250764895    -1.448208708989     0.142213773370    12.000000000000
         C           -2.980608764895    -0.214114708989     0.365968773370    12.000000000000
         C            2.118304235105    -0.174725708989     0.235441773370    12.000000000000
         H            1.371154235105     0.306145291011    -1.682086226630     1.007825032230
         H            1.345766235105    -1.402733708989    -1.309869226630     1.007825032230
         H           -0.558983764895    -2.451974708989    -0.445002226630     1.007825032230
         H           -2.730812764895     1.922816291011     0.353148773370     1.007825032230
         H            0.687257235105     2.283516291011     0.285187773370     1.007825032230
         H            0.246441235105     2.315237291011    -1.429811226630     1.007825032230
         H           -0.805569764895     3.080328291011    -0.235193226630     1.007825032230
         H           -2.928311764895    -2.371495708989     0.281656773370     1.007825032230
         H           -4.019752764895    -0.164143708989     0.682658773370     1.007825032230
         H            3.952692235105    -0.314005708989     0.612755773370     1.007825032230

  Basis Set: AUG-CC-PVTZ
    Blend: AUG-CC-PVTZ
  Basis Set: (AUG-CC-PVTZ AUX)
    Blend: AUG-CC-PVTZ-JKFIT
	 Reference Energy          =    -496.5622502061476098 [Eh]
	 Singles Energy            =      -0.0000000000000000 [Eh]
	 Same-Spin Energy          =      -0.5234427735030122 [Eh]
	 Opposite-Spin Energy      =      -1.6286556198134181 [Eh]
	 Correlation Energy        =      -2.1520983933164302 [Eh]
	 Total Energy              =    -498.7143485994640173 [Eh]

	 ================> DF-SCS-MP2 Energies <==================
	-----------------------------------------------------------
	 SCS Same-Spin Scale       =       0.3333333333333333 [-]
	 SCS Opposite-Spin Scale   =       1.2000000000000000 [-]
	 SCS Same-Spin Energy      =      -0.1744809245010041 [Eh]
	 SCS Opposite-Spin Energy  =      -1.9543867437761016 [Eh]
	 SCS Correlation Energy    =      -2.1288676682771057 [Eh]
	 SCS Total Energy          =    -498.6911178744247195 [Eh]
	-----------------------------------------------------------

  Dipole Moment: [D]
     X:     0.5612      Y:    -0.1134      Z:    -1.2175     Total:     1.3454

*** Psi4 exiting successfully. Buy a developer a beer!
