                               Psi4 1.4a3.dev225

  ==> Input File <==

--------------------------------------------------------------------------
#psi4
#
memory 32 gb

molecule  {
0 1
  O        3.4036770    -0.5312700    -0.1399000
  O        1.8951010     0.2455770     1.3601080
  C       -0.2772440    -0.3351030    -0.4349210
  C       -0.8873890     0.9145300    -0.2106810
  C        1.1586640    -0.4340120    -0.8715550
  C       -1.0136460    -1.5104990    -0.2499190
  C       -2.2266560     0.9408910     0.1955810
  C       -0.1273370     2.2020410    -0.3962590
  C       -2.3465050    -1.4683140     0.1589870
  C       -2.9558630    -0.2342200     0.3827420
  C        2.1430500    -0.1948310     0.2522150
  H        1.3959000     0.2860400    -1.6653130
  H        1.3705120    -1.4228390    -1.2930960
  H       -0.5342380    -2.4720800    -0.4282290
  H       -2.7060670     1.9027110     0.3699220
  H        0.7120030     2.2634110     0.3019610
  H        0.2711870     2.2951320    -1.4130380
  H       -0.7808240     3.0602230    -0.2184200
  H       -2.9035660    -2.3916010     0.2984300
  H       -3.9950070    -0.1842490     0.6994320
  H        4.0067162    -0.3240503     0.6687918
units angstrom
no_reorient  #important for SAPT in psi4, default
symmetry c1  #important for SAPT in psi4, default
}

set PROPERTIES_ORIGIN ["COM"]
properties('MP2/aug-cc-pvtz', properties = ['dipole'])
--------------------------------------------------------------------------

    Molecular point group: c1
  Charge       = 0
  Multiplicity = 1
  Basis Set: AUG-CC-PVTZ
    Blend: AUG-CC-PVTZ
  Basis Set: (AUG-CC-PVTZ AUX)
    Blend: AUG-CC-PVTZ-JKFIT

    Orbital Energies [Eh]
    ---------------------

    Doubly Occupied:

       1A    -20.621740     2A    -20.553929     3A    -11.393738
       4A    -11.258432     5A    -11.244412     6A    -11.243236
       7A    -11.236489     8A    -11.234644     9A    -11.232258
      10A    -11.230958    11A    -11.222650    12A     -1.456337
      13A     -1.355535    14A     -1.160582    15A     -1.069953
      16A     -1.041373    17A     -0.980561    18A     -0.929837
      19A     -0.835853    20A     -0.810860    21A     -0.775506
      22A     -0.704162    23A     -0.688014    24A     -0.677474
      25A     -0.666160    26A     -0.626887    27A     -0.625293
      28A     -0.593555    29A     -0.577121    30A     -0.567620
      31A     -0.564369    32A     -0.548005    33A     -0.540324
      34A     -0.490860    35A     -0.486531    36A     -0.483763
      37A     -0.480488    38A     -0.456984    39A     -0.333317
      40A     -0.323242

  @DF-RHF Final Energy:  -496.55935470078680

   => Energetics <=

    Nuclear Repulsion Energy =            583.2341899485619479
    One-Electron Energy =               -1832.9409916131719456
    Two-Electron Energy =                 753.1474469638230858
    Total Energy =                       -496.5593547007867983
  Basis Set: (AUG-CC-PVTZ AUX)
    Blend: AUG-CC-PVTZ-RI
    Molecular point group: c1

    Geometry (in Angstrom), charge = 0, multiplicity = 1:

       Center              X                  Y                   Z               Mass
    ------------   -----------------  -----------------  -----------------  -----------------
         O            3.382551572613    -0.511495195162    -0.158097580385    15.994914619570
         O            1.873975572613     0.265351804838     1.341910419615    15.994914619570
         C           -0.298369427387    -0.315328195162    -0.453118580385    12.000000000000
         C           -0.908514427387     0.934304804838    -0.228878580385    12.000000000000
         C            1.137538572613    -0.414237195162    -0.889752580385    12.000000000000
         C           -1.034771427387    -1.490724195162    -0.268116580385    12.000000000000
         C           -2.247781427387     0.960665804838     0.177383419615    12.000000000000
         C           -0.148462427387     2.221815804838    -0.414456580385    12.000000000000
         C           -2.367630427387    -1.448539195162     0.140789419615    12.000000000000
         C           -2.976988427387    -0.214445195162     0.364544419615    12.000000000000
         C            2.121924572613    -0.175056195162     0.234017419615    12.000000000000
         H            1.374774572613     0.305814804838    -1.683510580385     1.007825032230
         H            1.349386572613    -1.403064195162    -1.311293580385     1.007825032230
         H           -0.555363427387    -2.452305195162    -0.446426580385     1.007825032230
         H           -2.727192427387     1.922485804838     0.351724419615     1.007825032230
         H            0.690877572613     2.283185804838     0.283763419615     1.007825032230
         H            0.250061572613     2.314906804838    -1.431235580385     1.007825032230
         H           -0.801949427387     3.079997804838    -0.236617580385     1.007825032230
         H           -2.924691427387    -2.371826195162     0.280232419615     1.007825032230
         H           -4.016132427387    -0.164474195162     0.681234419615     1.007825032230
         H            3.985590772613    -0.304275495162     0.650594219615     1.007825032230

  Basis Set: AUG-CC-PVTZ
    Blend: AUG-CC-PVTZ
  Basis Set: (AUG-CC-PVTZ AUX)
    Blend: AUG-CC-PVTZ-JKFIT
	 Reference Energy          =    -496.5593547007867983 [Eh]
	 Singles Energy            =      -0.0000000000000000 [Eh]
	 Same-Spin Energy          =      -0.5242902110830130 [Eh]
	 Opposite-Spin Energy      =      -1.6301929958194334 [Eh]
	 Correlation Energy        =      -2.1544832069024462 [Eh]
	 Total Energy              =    -498.7138379076892534 [Eh]

	 ================> DF-SCS-MP2 Energies <==================
	-----------------------------------------------------------
	 SCS Same-Spin Scale       =       0.3333333333333333 [-]
	 SCS Opposite-Spin Scale   =       1.2000000000000000 [-]
	 SCS Same-Spin Energy      =      -0.1747634036943377 [Eh]
	 SCS Opposite-Spin Energy  =      -1.9562315949833200 [Eh]
	 SCS Correlation Energy    =      -2.1309949986776577 [Eh]
	 SCS Total Energy          =    -498.6903496994644343 [Eh]
	-----------------------------------------------------------

  Dipole Moment: [D]
     X:     0.5923      Y:    -0.1089      Z:    -1.1740     Total:     1.3195

*** Psi4 exiting successfully. Buy a developer a beer!
