                               Psi4 1.4a3.dev225

  ==> Input File <==

--------------------------------------------------------------------------
#psi4
#
memory 32 gb

molecule  {
0 1
  O        3.4036770    -0.5312700    -0.1399000
  O        1.8951010     0.2455770     1.3601080
  C       -0.2772440    -0.3351030    -0.4349210
  C       -0.8873890     0.9145300    -0.2106810
  C        1.1586640    -0.4340120    -0.8715550
  C       -1.0136460    -1.5104990    -0.2499190
  C       -2.2266560     0.9408910     0.1955810
  C       -0.1273370     2.2020410    -0.3962590
  C       -2.3465050    -1.4683140     0.1589870
  C       -2.9558630    -0.2342200     0.3827420
  C        2.1430500    -0.1948310     0.2522150
  H        1.3959000     0.2860400    -1.6653130
  H        1.3705120    -1.4228390    -1.2930960
  H       -0.5342380    -2.4720800    -0.4282290
  H       -2.7060670     1.9027110     0.3699220
  H        0.7120030     2.2634110     0.3019610
  H        0.2711870     2.2951320    -1.4130380
  H       -0.7808240     3.0602230    -0.2184200
  H       -2.9035660    -2.3916010     0.2984300
  H       -3.9950070    -0.1842490     0.6994320
  H        3.9188816    -0.3542325     0.5510033
units angstrom
no_reorient  #important for SAPT in psi4, default
symmetry c1  #important for SAPT in psi4, default
}

set PROPERTIES_ORIGIN ["COM"]
properties('MP2/aug-cc-pvtz', properties = ['dipole'])
--------------------------------------------------------------------------

    Molecular point group: c1
  Charge       = 0
  Multiplicity = 1
  Basis Set: AUG-CC-PVTZ
    Blend: AUG-CC-PVTZ
  Basis Set: (AUG-CC-PVTZ AUX)
    Blend: AUG-CC-PVTZ-JKFIT

    Orbital Energies [Eh]
    ---------------------

    Doubly Occupied:

       1A    -20.611471     2A    -20.556888     3A    -11.396593
       4A    -11.259140     5A    -11.244980     6A    -11.243809
       7A    -11.237076     8A    -11.235167     9A    -11.232778
      10A    -11.231482    11A    -11.223266    12A     -1.480866
      13A     -1.370437    14A     -1.161288    15A     -1.072407
      16A     -1.042234    17A     -0.985190    18A     -0.931600
      19A     -0.854425    20A     -0.814341    21A     -0.782741
      22A     -0.717783    23A     -0.691503    24A     -0.680127
      25A     -0.668275    26A     -0.630166    27A     -0.626655
      28A     -0.601754    29A     -0.579110    30A     -0.569522
      31A     -0.565540    32A     -0.550588    33A     -0.541100
      34A     -0.492789    35A     -0.487498    36A     -0.484434
      37A     -0.483248    38A     -0.459546    39A     -0.333914
      40A     -0.323851

  @DF-RHF Final Energy:  -496.55990121599541

   => Energetics <=

    Nuclear Repulsion Energy =            584.1990380193377632
    One-Electron Energy =               -1834.6067165317310810
    Two-Electron Energy =                 753.8477772963980215
    Total Energy =                       -496.5599012159954100
  Basis Set: (AUG-CC-PVTZ AUX)
    Blend: AUG-CC-PVTZ-RI
    Molecular point group: c1

    Geometry (in Angstrom), charge = 0, multiplicity = 1:

       Center              X                  Y                   Z               Mass
    ------------   -----------------  -----------------  -----------------  -----------------
         O            3.383141450946    -0.511292497981    -0.157306538085    15.994914619570
         O            1.874565450946     0.265554502019     1.342701461915    15.994914619570
         C           -0.297779549054    -0.315125497981    -0.452327538085    12.000000000000
         C           -0.907924549054     0.934507502019    -0.228087538085    12.000000000000
         C            1.138128450946    -0.414034497981    -0.888961538085    12.000000000000
         C           -1.034181549054    -1.490521497981    -0.267325538085    12.000000000000
         C           -2.247191549054     0.960868502019     0.178174461915    12.000000000000
         C           -0.147872549054     2.222018502019    -0.413665538085    12.000000000000
         C           -2.367040549054    -1.448336497981     0.141580461915    12.000000000000
         C           -2.976398549054    -0.214242497981     0.365335461915    12.000000000000
         C            2.122514450946    -0.174853497981     0.234808461915    12.000000000000
         H            1.375364450946     0.306017502019    -1.682719538085     1.007825032230
         H            1.349976450946    -1.402861497981    -1.310502538085     1.007825032230
         H           -0.554773549054    -2.452102497981    -0.445635538085     1.007825032230
         H           -2.726602549054     1.922688502019     0.352515461915     1.007825032230
         H            0.691467450946     2.283388502019     0.284554461915     1.007825032230
         H            0.250651450946     2.315109502019    -1.430444538085     1.007825032230
         H           -0.801359549054     3.080200502019    -0.235826538085     1.007825032230
         H           -2.924101549054    -2.371623497981     0.281023461915     1.007825032230
         H           -4.015542549054    -0.164271497981     0.682025461915     1.007825032230
         H            3.898346050946    -0.334254997981     0.533596761915     1.007825032230

  Basis Set: AUG-CC-PVTZ
    Blend: AUG-CC-PVTZ
  Basis Set: (AUG-CC-PVTZ AUX)
    Blend: AUG-CC-PVTZ-JKFIT
	 Reference Energy          =    -496.5599012159954100 [Eh]
	 Singles Energy            =      -0.0000000000000000 [Eh]
	 Same-Spin Energy          =      -0.5223679699193513 [Eh]
	 Opposite-Spin Energy      =      -1.6258228874431566 [Eh]
	 Correlation Energy        =      -2.1481908573625077 [Eh]
	 Total Energy              =    -498.7080920733579319 [Eh]

	 ================> DF-SCS-MP2 Energies <==================
	-----------------------------------------------------------
	 SCS Same-Spin Scale       =       0.3333333333333333 [-]
	 SCS Opposite-Spin Scale   =       1.2000000000000000 [-]
	 SCS Same-Spin Energy      =      -0.1741226566397838 [Eh]
	 SCS Opposite-Spin Energy  =      -1.9509874649317878 [Eh]
	 SCS Correlation Energy    =      -2.1251101215715713 [Eh]
	 SCS Total Energy          =    -498.6850113375670048 [Eh]
	-----------------------------------------------------------

  Dipole Moment: [D]
     X:     0.4379      Y:    -0.1252      Z:    -1.2836     Total:     1.3620

*** Psi4 exiting successfully. Buy a developer a beer!
