                               Psi4 1.3.2 release

  ==> Input File <==

--------------------------------------------------------------------------
#psi4
#
memory 32 gb

molecule  {
1 1
  C       -0.6878560     0.9739330     0.0000000
  C        0.6831640     0.9771070     0.0000100
  N        1.0455875    -0.3053153    -0.0000152
  C        0.0027860    -1.1465230     0.0000170
  N       -1.0726430    -0.3472790    -0.0000090
  H       -2.0345360    -0.6815610    -0.0000170
  H        2.0378550    -0.6719290    -0.0000370
  H       -1.3988240     1.7865140    -0.0000060
  H        1.3901120     1.7931810     0.0000240
  H        0.0051580    -2.2268060     0.0000310
units angstrom
no_reorient  #important for SAPT in psi4, default
symmetry c1  #important for SAPT in psi4, default
}

set PROPERTIES_ORIGIN ["COM"]
properties('MP2/aug-cc-pvtz', properties = ['dipole'])
--------------------------------------------------------------------------

    Molecular point group: c1
  Charge       = 1
  Multiplicity = 1
  Basis Set: AUG-CC-PVTZ
    Blend: AUG-CC-PVTZ
  Basis Set: (AUG-CC-PVTZ AUX)
    Blend: AUG-CC-PVTZ-JKFIT

    Orbital Energies [Eh]
    ---------------------

    Doubly Occupied:

       1A    -15.854537     2A    -15.852136     3A    -11.550244
       4A    -11.474976     5A    -11.473377     6A     -1.600474
       7A     -1.432328     8A     -1.248909     9A     -1.091723
      10A     -1.049386    11A     -0.993360    12A     -0.883897
      13A     -0.845828    14A     -0.844815    15A     -0.818195
      16A     -0.799851    17A     -0.668259    18A     -0.540878

  @DF-RHF Final Energy:  -225.27192698295531

   => Energetics <=

    Nuclear Repulsion Energy =            173.5254064492314114
    One-Electron Energy =                -639.5483164538514984
    Two-Electron Energy =                 240.7509830216647799
    Total Energy =                       -225.2719269829553070
  Basis Set: (AUG-CC-PVTZ AUX)
    Blend: AUG-CC-PVTZ-RI
    Molecular point group: c1

    Geometry (in Angstrom), charge = 1, multiplicity = 1:

       Center              X                  Y                   Z               Mass
    ------------   -----------------  -----------------  -----------------  -----------------
         C           -0.682034182095     0.966470186172     0.000000288412    12.000000000000
         C            0.688985817905     0.969644186172     0.000010288412    12.000000000000
         N            1.051409317905    -0.312778113828    -0.000014911588    14.003074004430
         C            0.008607817905    -1.153985813828     0.000017288412    12.000000000000
         N           -1.066821182095    -0.354741813828    -0.000008711588    14.003074004430
         H           -2.028714182095    -0.689023813828    -0.000016711588     1.007825032230
         H            2.043676817905    -0.679391813828    -0.000036711588     1.007825032230
         H           -1.393002182095     1.779051186172    -0.000005711588     1.007825032230
         H            1.395933817905     1.785718186172     0.000024288412     1.007825032230
         H            0.010979817905    -2.234268813828     0.000031288412     1.007825032230

  Basis Set: AUG-CC-PVTZ
    Blend: AUG-CC-PVTZ
  Basis Set: (AUG-CC-PVTZ AUX)
    Blend: AUG-CC-PVTZ-JKFIT
	 Reference Energy          =    -225.2719269829553070 [Eh]
	 Singles Energy            =      -0.0000000000000000 [Eh]
	 Same-Spin Energy          =      -0.2371424302547807 [Eh]
	 Opposite-Spin Energy      =      -0.7384405994842516 [Eh]
	 Correlation Energy        =      -0.9755830297390323 [Eh]
	 Total Energy              =    -226.2475100126943346 [Eh]

	 ================> DF-SCS-MP2 Energies <==================
	-----------------------------------------------------------
	 SCS Same-Spin Scale       =       0.3333333333333333 [-]
	 SCS Opposite-Spin Scale   =       1.2000000000000000 [-]
	 SCS Same-Spin Energy      =      -0.0790474767515936 [Eh]
	 SCS Opposite-Spin Energy  =      -0.8861287193811018 [Eh]
	 SCS Correlation Energy    =      -0.9651761961326955 [Eh]
	 SCS Total Energy          =    -226.2371031790879954 [Eh]
	-----------------------------------------------------------

  Dipole Moment: [D]
     X:     0.1098      Y:    -1.3045      Z:    -0.0000     Total:     1.3091

*** Psi4 exiting successfully. Buy a developer a beer!
