                               Psi4 1.3.2 release

  ==> Input File <==

--------------------------------------------------------------------------
#psi4
#
memory 32 gb

molecule  {
1 1
  C       -0.6878560     0.9739330     0.0000000
  C        0.7294462     0.9899541     0.0000085
  N        1.0743100    -0.3422210    -0.0000140
  C        0.0027860    -1.1465230     0.0000170
  N       -1.0726430    -0.3472790    -0.0000090
  H       -2.0345360    -0.6815610    -0.0000170
  H        2.0378550    -0.6719290    -0.0000370
  H       -1.3988240     1.7865140    -0.0000060
  H        1.3901120     1.7931810     0.0000240
  H        0.0051580    -2.2268060     0.0000310
units angstrom
no_reorient  #important for SAPT in psi4, default
symmetry c1  #important for SAPT in psi4, default
}

set PROPERTIES_ORIGIN ["COM"]
properties('MP2/aug-cc-pvtz', properties = ['dipole'])
--------------------------------------------------------------------------

    Molecular point group: c1
  Charge       = 1
  Multiplicity = 1
  Basis Set: AUG-CC-PVTZ
    Blend: AUG-CC-PVTZ
  Basis Set: (AUG-CC-PVTZ AUX)
    Blend: AUG-CC-PVTZ-JKFIT

    Orbital Energies [Eh]
    ---------------------

    Doubly Occupied:

       1A    -15.854795     2A    -15.854756     3A    -11.553089
       4A    -11.483797     5A    -11.480841     6A     -1.590920
       7A     -1.433304     8A     -1.240007     9A     -1.095413
      10A     -1.051241    11A     -0.992125    12A     -0.895832
      13A     -0.841975    14A     -0.839675    15A     -0.828521
      16A     -0.793728    17A     -0.667973    18A     -0.535499

  @DF-RHF Final Energy:  -225.27080218371830

   => Energetics <=

    Nuclear Repulsion Energy =            172.0481015822582265
    One-Electron Energy =                -636.5708261310778653
    Two-Electron Energy =                 239.2519223651013078
    Total Energy =                       -225.2708021837183026
  Basis Set: (AUG-CC-PVTZ AUX)
    Blend: AUG-CC-PVTZ-RI
    Molecular point group: c1

    Geometry (in Angstrom), charge = 1, multiplicity = 1:

       Center              X                  Y                   Z               Mass
    ------------   -----------------  -----------------  -----------------  -----------------
         C           -0.695903193674     0.971722219101     0.000000305739    12.000000000000
         C            0.721399006326     0.987743319101     0.000008805739    12.000000000000
         N            1.066262806326    -0.344431780899    -0.000013694261    14.003074004430
         C           -0.005261193674    -1.148733780899     0.000017305739    12.000000000000
         N           -1.080690193674    -0.349489780899    -0.000008694261    14.003074004430
         H           -2.042583193674    -0.683771780899    -0.000016694261     1.007825032230
         H            2.029807806326    -0.674139780899    -0.000036694261     1.007825032230
         H           -1.406871193674     1.784303219101    -0.000005694261     1.007825032230
         H            1.382064806326     1.790970219101     0.000024305739     1.007825032230
         H           -0.002889193674    -2.229016780899     0.000031305739     1.007825032230

  Basis Set: AUG-CC-PVTZ
    Blend: AUG-CC-PVTZ
  Basis Set: (AUG-CC-PVTZ AUX)
    Blend: AUG-CC-PVTZ-JKFIT
	 Reference Energy          =    -225.2708021837183026 [Eh]
	 Singles Energy            =      -0.0000000000000000 [Eh]
	 Same-Spin Energy          =      -0.2368665887533935 [Eh]
	 Opposite-Spin Energy      =      -0.7392232898319467 [Eh]
	 Correlation Energy        =      -0.9760898785853402 [Eh]
	 Total Energy              =    -226.2468920623036297 [Eh]

	 ================> DF-SCS-MP2 Energies <==================
	-----------------------------------------------------------
	 SCS Same-Spin Scale       =       0.3333333333333333 [-]
	 SCS Opposite-Spin Scale   =       1.2000000000000000 [-]
	 SCS Same-Spin Energy      =      -0.0789555295844645 [Eh]
	 SCS Opposite-Spin Energy  =      -0.8870679477983361 [Eh]
	 SCS Correlation Energy    =      -0.9660234773828006 [Eh]
	 SCS Total Energy          =    -226.2368256611011077 [Eh]
	-----------------------------------------------------------

  Dipole Moment: [D]
     X:    -0.0230      Y:    -1.2574      Z:    -0.0000     Total:     1.2576

*** Psi4 exiting successfully. Buy a developer a beer!
