                               Psi4 1.3.2 release

  ==> Input File <==

--------------------------------------------------------------------------
#psi4
#
memory 32 gb

molecule  {
1 1
  C       -0.6847377     1.0695783     0.0000020
  C        0.6831640     0.9771070     0.0000100
  N        1.0743100    -0.3422210    -0.0000140
  C        0.0027860    -1.1465230     0.0000170
  N       -1.0726430    -0.3472790    -0.0000090
  H       -2.0345360    -0.6815610    -0.0000170
  H        2.0378550    -0.6719290    -0.0000370
  H       -1.3988240     1.7865140    -0.0000060
  H        1.3901120     1.7931810     0.0000240
  H        0.0051580    -2.2268060     0.0000310
units angstrom
no_reorient  #important for SAPT in psi4, default
symmetry c1  #important for SAPT in psi4, default
}

set PROPERTIES_ORIGIN ["COM"]
properties('MP2/aug-cc-pvtz', properties = ['dipole'])
--------------------------------------------------------------------------

    Molecular point group: c1
  Charge       = 1
  Multiplicity = 1
  Basis Set: AUG-CC-PVTZ
    Blend: AUG-CC-PVTZ
  Basis Set: (AUG-CC-PVTZ AUX)
    Blend: AUG-CC-PVTZ-JKFIT

    Orbital Energies [Eh]
    ---------------------

    Doubly Occupied:

       1A    -15.851023     2A    -15.848002     3A    -11.560516
       4A    -11.483313     5A    -11.480177     6A     -1.580676
       7A     -1.417902     8A     -1.247005     9A     -1.090830
      10A     -1.046365    11A     -0.993014    12A     -0.888877
      13A     -0.844353    14A     -0.833963    15A     -0.833053
      16A     -0.790252    17A     -0.656931    18A     -0.550375

  @DF-RHF Final Energy:  -225.26613267899549

   => Energetics <=

    Nuclear Repulsion Energy =            171.2473186798884228
    One-Electron Energy =                -635.0336472411474915
    Two-Electron Energy =                 238.5201958822636072
    Total Energy =                       -225.2661326789954899
  Basis Set: (AUG-CC-PVTZ AUX)
    Blend: AUG-CC-PVTZ-RI
    Molecular point group: c1

    Geometry (in Angstrom), charge = 1, multiplicity = 1:

       Center              X                  Y                   Z               Mass
    ------------   -----------------  -----------------  -----------------  -----------------
         C           -0.685283050663     1.052977274058     0.000001697442    12.000000000000
         C            0.682618649337     0.960505974058     0.000009697442    12.000000000000
         N            1.073764649337    -0.358822025942    -0.000014302558    14.003074004430
         C            0.002240649337    -1.163124025942     0.000016697442    12.000000000000
         N           -1.073188350663    -0.363880025942    -0.000009302558    14.003074004430
         H           -2.035081350663    -0.698162025942    -0.000017302558     1.007825032230
         H            2.037309649337    -0.688530025942    -0.000037302558     1.007825032230
         H           -1.399369350663     1.769912974058    -0.000006302558     1.007825032230
         H            1.389566649337     1.776579974058     0.000023697442     1.007825032230
         H            0.004612649337    -2.243407025942     0.000030697442     1.007825032230

  Basis Set: AUG-CC-PVTZ
    Blend: AUG-CC-PVTZ
  Basis Set: (AUG-CC-PVTZ AUX)
    Blend: AUG-CC-PVTZ-JKFIT
	 Reference Energy          =    -225.2661326789954899 [Eh]
	 Singles Energy            =      -0.0000000000000000 [Eh]
	 Same-Spin Energy          =      -0.2351028730942251 [Eh]
	 Opposite-Spin Energy      =      -0.7380642340864804 [Eh]
	 Correlation Energy        =      -0.9731671071807054 [Eh]
	 Total Energy              =    -226.2392997861761899 [Eh]

	 ================> DF-SCS-MP2 Energies <==================
	-----------------------------------------------------------
	 SCS Same-Spin Scale       =       0.3333333333333333 [-]
	 SCS Opposite-Spin Scale   =       1.2000000000000000 [-]
	 SCS Same-Spin Energy      =      -0.0783676243647417 [Eh]
	 SCS Opposite-Spin Energy  =      -0.8856770809037764 [Eh]
	 SCS Correlation Energy    =      -0.9640447052685180 [Eh]
	 SCS Total Energy          =    -226.2301773842640102 [Eh]
	-----------------------------------------------------------

  Dipole Moment: [D]
     X:     0.0561      Y:    -1.3217      Z:    -0.0000     Total:     1.3229

*** Psi4 exiting successfully. Buy a developer a beer!
