                               Psi4 1.3.2 release

  ==> Input File <==

--------------------------------------------------------------------------
#psi4
#
memory 32 gb

molecule  {
1 1
  C       -0.6878560     0.9739330     0.0000000
  C        0.6831640     0.9771070     0.0000100
  N        1.0743100    -0.3422210    -0.0000140
  C        0.0027860    -1.1465230     0.0000170
  N       -1.0726430    -0.3472790    -0.0000090
  H       -2.0345360    -0.6815610    -0.0000170
  H        2.2270833    -0.7366796    -0.0000415
  H       -1.3988240     1.7865140    -0.0000060
  H        1.3901120     1.7931810     0.0000240
  H        0.0051580    -2.2268060     0.0000310
units angstrom
no_reorient  #important for SAPT in psi4, default
symmetry c1  #important for SAPT in psi4, default
}

set PROPERTIES_ORIGIN ["COM"]
properties('MP2/aug-cc-pvtz', properties = ['dipole'])
--------------------------------------------------------------------------

    Molecular point group: c1
  Charge       = 1
  Multiplicity = 1
  Basis Set: AUG-CC-PVTZ
    Blend: AUG-CC-PVTZ
  Basis Set: (AUG-CC-PVTZ AUX)
    Blend: AUG-CC-PVTZ-JKFIT

    Orbital Energies [Eh]
    ---------------------

    Doubly Occupied:

       1A    -15.861087     2A    -15.848510     3A    -11.550160
       4A    -11.474452     5A    -11.473024     6A     -1.586017
       7A     -1.415927     8A     -1.241105     9A     -1.070725
      10A     -1.036944    11A     -0.985676    12A     -0.862961
      13A     -0.836647    14A     -0.830480    15A     -0.813644
      16A     -0.792111    17A     -0.660199    18A     -0.540015

  @DF-RHF Final Energy:  -225.24715575263107

   => Energetics <=

    Nuclear Repulsion Energy =            171.7443271479927489
    One-Electron Energy =                -636.2235933268177632
    Two-Electron Energy =                 239.2321104261939411
    Total Energy =                       -225.2471557526310733
  Basis Set: (AUG-CC-PVTZ AUX)
    Blend: AUG-CC-PVTZ-RI
    Molecular point group: c1

    Geometry (in Angstrom), charge = 1, multiplicity = 1:

       Center              X                  Y                   Z               Mass
    ------------   -----------------  -----------------  -----------------  -----------------
         C           -0.690621479725     0.974900169820     0.000000110725    12.000000000000
         C            0.680398520275     0.978074169820     0.000010110725    12.000000000000
         N            1.071544520275    -0.341253830180    -0.000013889275    14.003074004430
         C            0.000020520275    -1.145555830180     0.000017110725    12.000000000000
         N           -1.075408479725    -0.346311830180    -0.000008889275    14.003074004430
         H           -2.037301479725    -0.680593830180    -0.000016889275     1.007825032230
         H            2.224317820275    -0.735712430180    -0.000041389275     1.007825032230
         H           -1.401589479725     1.787481169820    -0.000005889275     1.007825032230
         H            1.387346520275     1.794148169820     0.000024110725     1.007825032230
         H            0.002392520275    -2.225838830180     0.000031110725     1.007825032230

  Basis Set: AUG-CC-PVTZ
    Blend: AUG-CC-PVTZ
  Basis Set: (AUG-CC-PVTZ AUX)
    Blend: AUG-CC-PVTZ-JKFIT
	 Reference Energy          =    -225.2471557526310733 [Eh]
	 Singles Energy            =      -0.0000000000000000 [Eh]
	 Same-Spin Energy          =      -0.2377511033936079 [Eh]
	 Opposite-Spin Energy      =      -0.7416660319706926 [Eh]
	 Correlation Energy        =      -0.9794171353643004 [Eh]
	 Total Energy              =    -226.2265728879953599 [Eh]

	 ================> DF-SCS-MP2 Energies <==================
	-----------------------------------------------------------
	 SCS Same-Spin Scale       =       0.3333333333333333 [-]
	 SCS Opposite-Spin Scale   =       1.2000000000000000 [-]
	 SCS Same-Spin Energy      =      -0.0792503677978693 [Eh]
	 SCS Opposite-Spin Energy  =      -0.8899992383648311 [Eh]
	 SCS Correlation Energy    =      -0.9692496061627004 [Eh]
	 SCS Total Energy          =    -226.2164053587937644 [Eh]
	-----------------------------------------------------------

  Dipole Moment: [D]
     X:     0.4257      Y:    -1.3922      Z:    -0.0000     Total:     1.4558

*** Psi4 exiting successfully. Buy a developer a beer!
