                               Psi4 1.3.2 release

  ==> Input File <==

--------------------------------------------------------------------------
#psi4
#
memory 32 gb

molecule  {
1 1
  C       -0.6878560     0.9739330     0.0000000
  C        0.6831640     0.9771070     0.0000100
  N        1.0743100    -0.3422210    -0.0000140
  C        0.0027860    -1.1465230     0.0000170
  N       -1.0726430    -0.3472790    -0.0000090
  H       -2.0345360    -0.6815610    -0.0000170
  H        2.0378550    -0.6719290    -0.0000370
  H       -1.3988240     1.7865140    -0.0000060
  H        1.5210647     1.9443478     0.0000266
  H        0.0051580    -2.2268060     0.0000310
units angstrom
no_reorient  #important for SAPT in psi4, default
symmetry c1  #important for SAPT in psi4, default
}

set PROPERTIES_ORIGIN ["COM"]
properties('MP2/aug-cc-pvtz', properties = ['dipole'])
--------------------------------------------------------------------------

    Molecular point group: c1
  Charge       = 1
  Multiplicity = 1
  Basis Set: AUG-CC-PVTZ
    Blend: AUG-CC-PVTZ
  Basis Set: (AUG-CC-PVTZ AUX)
    Blend: AUG-CC-PVTZ-JKFIT

    Orbital Energies [Eh]
    ---------------------

    Doubly Occupied:

       1A    -15.852342     2A    -15.851914     3A    -11.554042
       4A    -11.492659     5A    -11.475967     6A     -1.592888
       7A     -1.430766     8A     -1.241702     9A     -1.096402
      10A     -1.037076    11A     -0.982159    12A     -0.894977
      13A     -0.840936    14A     -0.834542    15A     -0.809405
      16A     -0.761639    17A     -0.665800    18A     -0.542328

  @DF-RHF Final Energy:  -225.25344992340499

   => Energetics <=

    Nuclear Repulsion Energy =            171.8852475245294045
    One-Electron Energy =                -636.3623092901008249
    Two-Electron Energy =                 239.2236118421664344
    Total Energy =                       -225.2534499234049861
  Basis Set: (AUG-CC-PVTZ AUX)
    Blend: AUG-CC-PVTZ-RI
    Molecular point group: c1

    Geometry (in Angstrom), charge = 1, multiplicity = 1:

       Center              X                  Y                   Z               Mass
    ------------   -----------------  -----------------  -----------------  -----------------
         C           -0.689770855116     0.971748513659     0.000000007089    12.000000000000
         C            0.681249144884     0.974922513659     0.000010007089    12.000000000000
         N            1.072395144884    -0.344405486341    -0.000013992911    14.003074004430
         C            0.000871144884    -1.148707486341     0.000017007089    12.000000000000
         N           -1.074557855116    -0.349463486341    -0.000008992911    14.003074004430
         H           -2.036450855116    -0.683745486341    -0.000016992911     1.007825032230
         H            2.035940144884    -0.674113486341    -0.000036992911     1.007825032230
         H           -1.400738855116     1.784329513659    -0.000005992911     1.007825032230
         H            1.519149844884     1.942163313659     0.000026607089     1.007825032230
         H            0.003243144884    -2.228990486341     0.000031007089     1.007825032230

  Basis Set: AUG-CC-PVTZ
    Blend: AUG-CC-PVTZ
  Basis Set: (AUG-CC-PVTZ AUX)
    Blend: AUG-CC-PVTZ-JKFIT
	 Reference Energy          =    -225.2534499234049861 [Eh]
	 Singles Energy            =      -0.0000000000000000 [Eh]
	 Same-Spin Energy          =      -0.2367125227764950 [Eh]
	 Opposite-Spin Energy      =      -0.7396963516774355 [Eh]
	 Correlation Energy        =      -0.9764088744539305 [Eh]
	 Total Energy              =    -226.2298587978589239 [Eh]

	 ================> DF-SCS-MP2 Energies <==================
	-----------------------------------------------------------
	 SCS Same-Spin Scale       =       0.3333333333333333 [-]
	 SCS Opposite-Spin Scale   =       1.2000000000000000 [-]
	 SCS Same-Spin Energy      =      -0.0789041742588317 [Eh]
	 SCS Opposite-Spin Energy  =      -0.8876356220129226 [Eh]
	 SCS Correlation Energy    =      -0.9665397962717542 [Eh]
	 SCS Total Energy          =    -226.2199897196767324 [Eh]
	-----------------------------------------------------------

  Dipole Moment: [D]
     X:     0.1227      Y:    -1.1309      Z:    -0.0000     Total:     1.1375

*** Psi4 exiting successfully. Buy a developer a beer!
