                               Psi4 1.4a3.dev225

  ==> Input File <==

--------------------------------------------------------------------------
#psi4
#
memory 32 gb

molecule  {
1 1
  C       -0.6853300     0.9742120     0.0000000
  C        0.6853300     0.9742120     0.0000080
  N        1.0731610    -0.3445600    -0.0000120
  C        0.0000000    -1.1430630     0.0000130
  N       -1.0731610    -0.3445590    -0.0000060
  H       -2.0346060    -0.6777470    -0.0000120
  H        2.0346050    -0.6777480    -0.0000220
  H       -1.3967670     1.7843860    -0.0000010
  H        1.3967670     1.7843860     0.0000130
  H       -0.0000010    -2.2416150     0.0000201
units angstrom
no_reorient  #important for SAPT in psi4, default
symmetry c1  #important for SAPT in psi4, default
}

set PROPERTIES_ORIGIN ["COM"]
properties('MP2/aug-cc-pvtz', properties = ['dipole'])
--------------------------------------------------------------------------

    Molecular point group: c1
  Charge       = 1
  Multiplicity = 1
  Basis Set: AUG-CC-PVTZ
    Blend: AUG-CC-PVTZ
  Basis Set: (AUG-CC-PVTZ AUX)
    Blend: AUG-CC-PVTZ-JKFIT

    Orbital Energies [Eh]
    ---------------------

    Doubly Occupied:

       1A    -15.852218     2A    -15.852183     3A    -11.555521
       4A    -11.477218     5A    -11.475794     6A     -1.594889
       7A     -1.432933     8A     -1.245684     9A     -1.097368
      10A     -1.047169    11A     -0.989470    12A     -0.896932
      13A     -0.842455    14A     -0.833129    15A     -0.817484
      16A     -0.804925    17A     -0.667019    18A     -0.543532

  @DF-RHF Final Energy:  -225.27681973671508

   => Energetics <=

    Nuclear Repulsion Energy =            172.8264647342499245
    One-Electron Energy =                -638.1547185052952500
    Two-Electron Energy =                 240.0514340343302138
    Total Energy =                       -225.2768197367150833
  Basis Set: (AUG-CC-PVTZ AUX)
    Blend: AUG-CC-PVTZ-RI
    Molecular point group: c1

    Geometry (in Angstrom), charge = 1, multiplicity = 1:

       Center              X                  Y                   Z               Mass
    ------------   -----------------  -----------------  -----------------  -----------------
         C           -0.685329970807     0.974414940766     0.000000028535    12.000000000000
         C            0.685330029193     0.974414940766     0.000008028535    12.000000000000
         N            1.073161029193    -0.344357059234    -0.000011971465    14.003074004430
         C            0.000000029193    -1.142860059234     0.000013028535    12.000000000000
         N           -1.073160970807    -0.344356059234    -0.000005971465    14.003074004430
         H           -2.034605970807    -0.677544059234    -0.000011971465     1.007825032230
         H            2.034605029193    -0.677545059234    -0.000021971465     1.007825032230
         H           -1.396766970807     1.784588940766    -0.000000971465     1.007825032230
         H            1.396767029193     1.784588940766     0.000013028535     1.007825032230
         H           -0.000000970807    -2.241412059234     0.000020128535     1.007825032230

  Basis Set: AUG-CC-PVTZ
    Blend: AUG-CC-PVTZ
  Basis Set: (AUG-CC-PVTZ AUX)
    Blend: AUG-CC-PVTZ-JKFIT
	 Reference Energy          =    -225.2768197367150833 [Eh]
	 Singles Energy            =      -0.0000000000000000 [Eh]
	 Same-Spin Energy          =      -0.2360821242154438 [Eh]
	 Opposite-Spin Energy      =      -0.7375124501052952 [Eh]
	 Correlation Energy        =      -0.9735945743207389 [Eh]
	 Total Energy              =    -226.2504143110358257 [Eh]

	 ================> DF-SCS-MP2 Energies <==================
	-----------------------------------------------------------
	 SCS Same-Spin Scale       =       0.3333333333333333 [-]
	 SCS Opposite-Spin Scale   =       1.2000000000000000 [-]
	 SCS Same-Spin Energy      =      -0.0786940414051479 [Eh]
	 SCS Opposite-Spin Energy  =      -0.8850149401263542 [Eh]
	 SCS Correlation Energy    =      -0.9637089815315021 [Eh]
	 SCS Total Energy          =    -226.2405287182465941 [Eh]
	-----------------------------------------------------------

  Dipole Moment: [D]
     X:    -0.0000      Y:    -1.2997      Z:    -0.0000     Total:     1.2997

*** Psi4 exiting successfully. Buy a developer a beer!
