                               Psi4 1.4a3.dev225

  ==> Input File <==

--------------------------------------------------------------------------
#psi4
#
memory 32 gb

molecule  {
1 1
  C       -0.6853300     0.9742120     0.0000000
  C        0.6853300     0.9742120     0.0000080
  N        1.0731610    -0.3445600    -0.0000120
  C        0.0000000    -1.1430630     0.0000130
  N       -1.0731610    -0.3445590    -0.0000060
  H       -2.0346060    -0.6777470    -0.0000120
  H        2.0346050    -0.6777480    -0.0000220
  H       -1.3967670     1.7843860    -0.0000010
  H        1.4297588     1.8219565     0.0000132
  H       -0.0000010    -2.2216150     0.0000200
units angstrom
no_reorient  #important for SAPT in psi4, default
symmetry c1  #important for SAPT in psi4, default
}

set PROPERTIES_ORIGIN ["COM"]
properties('MP2/aug-cc-pvtz', properties = ['dipole'])
--------------------------------------------------------------------------

    Molecular point group: c1
  Charge       = 1
  Multiplicity = 1
  Basis Set: AUG-CC-PVTZ
    Blend: AUG-CC-PVTZ
  Basis Set: (AUG-CC-PVTZ AUX)
    Blend: AUG-CC-PVTZ-JKFIT

    Orbital Energies [Eh]
    ---------------------

    Doubly Occupied:

       1A    -15.852291     2A    -15.852189     3A    -11.553700
       4A    -11.481149     5A    -11.476276     6A     -1.594908
       7A     -1.432777     8A     -1.245231     9A     -1.097767
      10A     -1.044210    11A     -0.990083    12A     -0.896856
      13A     -0.842440    14A     -0.835797    15A     -0.812853
      16A     -0.797685    17A     -0.666948    18A     -0.543378

  @DF-RHF Final Energy:  -225.27492614194483

   => Energetics <=

    Nuclear Repulsion Energy =            172.6920285183486783
    One-Electron Energy =                -637.9008288370656601
    Two-Electron Energy =                 239.9338741767721217
    Total Energy =                       -225.2749261419448317
  Basis Set: (AUG-CC-PVTZ AUX)
    Blend: AUG-CC-PVTZ-RI
    Molecular point group: c1

    Geometry (in Angstrom), charge = 1, multiplicity = 1:

       Center              X                  Y                   Z               Mass
    ------------   -----------------  -----------------  -----------------  -----------------
         C           -0.685811538340     0.973574608208     0.000000027075    12.000000000000
         C            0.684848461660     0.973574608208     0.000008027075    12.000000000000
         N            1.072679461660    -0.345197391792    -0.000011972925    14.003074004430
         C           -0.000481538340    -1.143700391792     0.000013027075    12.000000000000
         N           -1.073642538340    -0.345196391792    -0.000005972925    14.003074004430
         H           -2.035087538340    -0.678384391792    -0.000011972925     1.007825032230
         H            2.034123461660    -0.678385391792    -0.000021972925     1.007825032230
         H           -1.397248538340     1.783748608208    -0.000000972925     1.007825032230
         H            1.429277261660     1.821319108208     0.000013227075     1.007825032230
         H           -0.000482538340    -2.222252391792     0.000020027075     1.007825032230

  Basis Set: AUG-CC-PVTZ
    Blend: AUG-CC-PVTZ
  Basis Set: (AUG-CC-PVTZ AUX)
    Blend: AUG-CC-PVTZ-JKFIT
	 Reference Energy          =    -225.2749261419448317 [Eh]
	 Singles Energy            =      -0.0000000000000000 [Eh]
	 Same-Spin Energy          =      -0.2361701293903166 [Eh]
	 Opposite-Spin Energy      =      -0.7377666034358898 [Eh]
	 Correlation Energy        =      -0.9739367328262064 [Eh]
	 Total Energy              =    -226.2488628747710493 [Eh]

	 ================> DF-SCS-MP2 Energies <==================
	-----------------------------------------------------------
	 SCS Same-Spin Scale       =       0.3333333333333333 [-]
	 SCS Opposite-Spin Scale   =       1.2000000000000000 [-]
	 SCS Same-Spin Energy      =      -0.0787233764634389 [Eh]
	 SCS Opposite-Spin Energy  =      -0.8853199241230678 [Eh]
	 SCS Correlation Energy    =      -0.9640433005865067 [Eh]
	 SCS Total Energy          =    -226.2389694425313280 [Eh]
	-----------------------------------------------------------

  Dipole Moment: [D]
     X:     0.0289      Y:    -1.2452      Z:    -0.0000     Total:     1.2455

*** Psi4 exiting successfully. Buy a developer a beer!
