                               Psi4 1.3.2 release

  ==> Input File <==

--------------------------------------------------------------------------
#psi4
#
memory 32 gb

molecule  {
1 1
  C       -0.6878560     0.9739330     0.0000000
  C        0.6831640     0.9771070     0.0000100
  N        1.1525125    -0.4586318    -0.0000100
  C        0.0027860    -1.1465230     0.0000170
  N       -1.0726430    -0.3472790    -0.0000090
  H       -2.0345360    -0.6815610    -0.0000170
  H        2.0378550    -0.6719290    -0.0000370
  H       -1.3988240     1.7865140    -0.0000060
  H        1.3901120     1.7931810     0.0000240
  H        0.0051580    -2.2268060     0.0000310
units angstrom
no_reorient  #important for SAPT in psi4, default
symmetry c1  #important for SAPT in psi4, default
}

set PROPERTIES_ORIGIN ["COM"]
properties('MP2/aug-cc-pvtz', properties = ['dipole'])
--------------------------------------------------------------------------

    Molecular point group: c1
  Charge       = 1
  Multiplicity = 1
  Basis Set: AUG-CC-PVTZ
    Blend: AUG-CC-PVTZ
  Basis Set: (AUG-CC-PVTZ AUX)
    Blend: AUG-CC-PVTZ-JKFIT

    Orbital Energies [Eh]
    ---------------------

    Doubly Occupied:

       1A    -15.853947     2A    -15.845485     3A    -11.568670
       4A    -11.486708     5A    -11.484658     6A     -1.578652
       7A     -1.435365     8A     -1.239699     9A     -1.123448
      10A     -1.032877    11A     -0.989589    12A     -0.930798
      13A     -0.832707    14A     -0.829934    15A     -0.810499
      16A     -0.790917    17A     -0.663884    18A     -0.550473

  @DF-RHF Final Energy:  -225.25138822834066

   => Energetics <=

    Nuclear Repulsion Energy =            170.6009506156854911
    One-Electron Energy =                -633.6080577961024574
    Two-Electron Energy =                 237.7557189520762790
    Total Energy =                       -225.2513882283406588
  Basis Set: (AUG-CC-PVTZ AUX)
    Blend: AUG-CC-PVTZ-RI
    Molecular point group: c1

    Geometry (in Angstrom), charge = 1, multiplicity = 1:

       Center              X                  Y                   Z               Mass
    ------------   -----------------  -----------------  -----------------  -----------------
         C           -0.703719644679     0.997564310317    -0.000000766200    12.000000000000
         C            0.667300355321     1.000738310317     0.000009233800    12.000000000000
         N            1.136648855321    -0.435000489683    -0.000010766200    14.003074004430
         C           -0.013077644679    -1.122891689683     0.000016233800    12.000000000000
         N           -1.088506644679    -0.323647689683    -0.000009766200    14.003074004430
         H           -2.050399644679    -0.657929689683    -0.000017766200     1.007825032230
         H            2.021991355321    -0.648297689683    -0.000037766200     1.007825032230
         H           -1.414687644679     1.810145310317    -0.000006766200     1.007825032230
         H            1.374248355321     1.816812310317     0.000023233800     1.007825032230
         H           -0.010705644679    -2.203174689683     0.000030233800     1.007825032230

  Basis Set: AUG-CC-PVTZ
    Blend: AUG-CC-PVTZ
  Basis Set: (AUG-CC-PVTZ AUX)
    Blend: AUG-CC-PVTZ-JKFIT
	 Reference Energy          =    -225.2513882283406588 [Eh]
	 Singles Energy            =      -0.0000000000000000 [Eh]
	 Same-Spin Energy          =      -0.2339101288453969 [Eh]
	 Opposite-Spin Energy      =      -0.7374746699272161 [Eh]
	 Correlation Energy        =      -0.9713847987726130 [Eh]
	 Total Energy              =    -226.2227730271132771 [Eh]

	 ================> DF-SCS-MP2 Energies <==================
	-----------------------------------------------------------
	 SCS Same-Spin Scale       =       0.3333333333333333 [-]
	 SCS Opposite-Spin Scale   =       1.2000000000000000 [-]
	 SCS Same-Spin Energy      =      -0.0779700429484656 [Eh]
	 SCS Opposite-Spin Energy  =      -0.8849696039126593 [Eh]
	 SCS Correlation Energy    =      -0.9629396468611250 [Eh]
	 SCS Total Energy          =    -226.2143278752017750 [Eh]
	-----------------------------------------------------------

  Dipole Moment: [D]
     X:    -0.3020      Y:    -1.1145      Z:    -0.0000     Total:     1.1547

*** Psi4 exiting successfully. Buy a developer a beer!
