                               Psi4 1.4a3.dev225

  ==> Input File <==

--------------------------------------------------------------------------
#psi4
#
memory 32 gb

molecule  {
1 1
  C       -0.6853300     0.9742120     0.0000000
  C        0.6853300     0.9742120     0.0000080
  N        1.0731610    -0.3445600    -0.0000120
  C        0.0000000    -1.1430630     0.0000130
  N       -1.0731610    -0.3445590    -0.0000060
  H       -2.0346060    -0.6777470    -0.0000120
  H        2.0346050    -0.6777480    -0.0000220
  H       -1.3967670     1.7843860    -0.0000010
  H        1.3835703     1.7693578     0.0000129
  H       -0.0000010    -2.2216150     0.0000200
units angstrom
no_reorient  #important for SAPT in psi4, default
symmetry c1  #important for SAPT in psi4, default
}

set PROPERTIES_ORIGIN ["COM"]
properties('MP2/aug-cc-pvtz', properties = ['dipole'])
--------------------------------------------------------------------------

    Molecular point group: c1
  Charge       = 1
  Multiplicity = 1
  Basis Set: AUG-CC-PVTZ
    Blend: AUG-CC-PVTZ
  Basis Set: (AUG-CC-PVTZ AUX)
    Blend: AUG-CC-PVTZ-JKFIT

    Orbital Energies [Eh]
    ---------------------

    Doubly Occupied:

       1A    -15.852413     2A    -15.852363     3A    -11.553985
       4A    -11.477000     5A    -11.474589     6A     -1.595119
       7A     -1.433178     8A     -1.247218     9A     -1.098032
      10A     -1.048811    11A     -0.994285    12A     -0.897106
      13A     -0.842657    14A     -0.837299    15A     -0.820735
      16A     -0.806521    17A     -0.667196    18A     -0.543846

  @DF-RHF Final Energy:  -225.27747869943326

   => Energetics <=

    Nuclear Repulsion Energy =            173.0182992152427914
    One-Electron Energy =                -638.5068471006438813
    Two-Electron Energy =                 240.2110691859678298
    Total Energy =                       -225.2774786994332601
  Basis Set: (AUG-CC-PVTZ AUX)
    Blend: AUG-CC-PVTZ-RI
    Molecular point group: c1

    Geometry (in Angstrom), charge = 1, multiplicity = 1:

       Center              X                  Y                   Z               Mass
    ------------   -----------------  -----------------  -----------------  -----------------
         C           -0.685137344085     0.974342369477     0.000000031454    12.000000000000
         C            0.685522655915     0.974342369477     0.000008031454    12.000000000000
         N            1.073353655915    -0.344429630523    -0.000011968546    14.003074004430
         C            0.000192655915    -1.142932630523     0.000013031454    12.000000000000
         N           -1.072968344085    -0.344428630523    -0.000005968546    14.003074004430
         H           -2.034413344085    -0.677616630523    -0.000011968546     1.007825032230
         H            2.034797655915    -0.677617630523    -0.000021968546     1.007825032230
         H           -1.396574344085     1.784516369477    -0.000000968546     1.007825032230
         H            1.383762955915     1.769488169477     0.000012931454     1.007825032230
         H            0.000191655915    -2.221484630523     0.000020031454     1.007825032230

  Basis Set: AUG-CC-PVTZ
    Blend: AUG-CC-PVTZ
  Basis Set: (AUG-CC-PVTZ AUX)
    Blend: AUG-CC-PVTZ-JKFIT
	 Reference Energy          =    -225.2774786994332601 [Eh]
	 Singles Energy            =      -0.0000000000000000 [Eh]
	 Same-Spin Energy          =      -0.2359989451789665 [Eh]
	 Opposite-Spin Energy      =      -0.7372682024078989 [Eh]
	 Correlation Energy        =      -0.9732671475868655 [Eh]
	 Total Energy              =    -226.2507458470201129 [Eh]

	 ================> DF-SCS-MP2 Energies <==================
	-----------------------------------------------------------
	 SCS Same-Spin Scale       =       0.3333333333333333 [-]
	 SCS Opposite-Spin Scale   =       1.2000000000000000 [-]
	 SCS Same-Spin Energy      =      -0.0786663150596555 [Eh]
	 SCS Opposite-Spin Energy  =      -0.8847218428894786 [Eh]
	 SCS Correlation Energy    =      -0.9633881579491341 [Eh]
	 SCS Total Energy          =    -226.2408668573824002 [Eh]
	-----------------------------------------------------------

  Dipole Moment: [D]
     X:    -0.0114      Y:    -1.2914      Z:    -0.0000     Total:     1.2914

*** Psi4 exiting successfully. Buy a developer a beer!
