                               Psi4 1.3.2 release

  ==> Input File <==

--------------------------------------------------------------------------
#psi4
#
memory 32 gb

molecule  {
1 1
  C       -0.6878560     0.9739330     0.0000000
  C        0.6831640     0.9771070     0.0000100
  N        1.0743100    -0.3422210    -0.0000140
  C        0.0027860    -1.1465230     0.0000170
  N       -1.0726430    -0.3472790    -0.0000090
  H       -2.0345360    -0.6815610    -0.0000170
  H        2.0378550    -0.6719290    -0.0000370
  H       -1.3988240     1.7865140    -0.0000060
  H        1.3901120     1.7931810     0.0000240
  H        0.0055971    -2.4268055     0.0000336
units angstrom
no_reorient  #important for SAPT in psi4, default
symmetry c1  #important for SAPT in psi4, default
}

set PROPERTIES_ORIGIN ["COM"]
properties('MP2/aug-cc-pvtz', properties = ['dipole'])
--------------------------------------------------------------------------

    Molecular point group: c1
  Charge       = 1
  Multiplicity = 1
  Basis Set: AUG-CC-PVTZ
    Blend: AUG-CC-PVTZ
  Basis Set: (AUG-CC-PVTZ AUX)
    Blend: AUG-CC-PVTZ-JKFIT

    Orbital Energies [Eh]
    ---------------------

    Doubly Occupied:

       1A    -15.851088     2A    -15.851042     3A    -11.568592
       4A    -11.476165     5A    -11.474743     6A     -1.591799
       7A     -1.430410     8A     -1.239003     9A     -1.092678
      10A     -1.044425    11A     -0.964383    12A     -0.894557
      13A     -0.840073    14A     -0.815687    15A     -0.802895
      16A     -0.796510    17A     -0.665311    18A     -0.541795

  @DF-RHF Final Energy:  -225.25377605389878

   => Energetics <=

    Nuclear Repulsion Energy =            171.8696653861636889
    One-Electron Energy =                -636.3645732645521775
    Two-Electron Energy =                 239.2411318244897416
    Total Energy =                       -225.2537760538987754
  Basis Set: (AUG-CC-PVTZ AUX)
    Blend: AUG-CC-PVTZ-RI
    Molecular point group: c1

    Geometry (in Angstrom), charge = 1, multiplicity = 1:

       Center              X                  Y                   Z               Mass
    ------------   -----------------  -----------------  -----------------  -----------------
         C           -0.687865802575     0.976874341559     0.000000007089    12.000000000000
         C            0.683154197425     0.980048341559     0.000010007089    12.000000000000
         N            1.074300197425    -0.339279658441    -0.000013992911    14.003074004430
         C            0.002776197425    -1.143581658441     0.000017007089    12.000000000000
         N           -1.072652802575    -0.344337658441    -0.000008992911    14.003074004430
         H           -2.034545802575    -0.678619658441    -0.000016992911     1.007825032230
         H            2.037845197425    -0.668987658441    -0.000036992911     1.007825032230
         H           -1.398833802575     1.789455341559    -0.000005992911     1.007825032230
         H            1.390102197425     1.796122341559     0.000024007089     1.007825032230
         H            0.005587297425    -2.423864158441     0.000033607089     1.007825032230

  Basis Set: AUG-CC-PVTZ
    Blend: AUG-CC-PVTZ
  Basis Set: (AUG-CC-PVTZ AUX)
    Blend: AUG-CC-PVTZ-JKFIT
	 Reference Energy          =    -225.2537760538987754 [Eh]
	 Singles Energy            =      -0.0000000000000000 [Eh]
	 Same-Spin Energy          =      -0.2366453937096659 [Eh]
	 Opposite-Spin Energy      =      -0.7395436612275876 [Eh]
	 Correlation Energy        =      -0.9761890549372535 [Eh]
	 Total Energy              =    -226.2299651088360406 [Eh]

	 ================> DF-SCS-MP2 Energies <==================
	-----------------------------------------------------------
	 SCS Same-Spin Scale       =       0.3333333333333333 [-]
	 SCS Opposite-Spin Scale   =       1.2000000000000000 [-]
	 SCS Same-Spin Energy      =      -0.0788817979032219 [Eh]
	 SCS Opposite-Spin Energy  =      -0.8874523934731051 [Eh]
	 SCS Correlation Energy    =      -0.9663341913763270 [Eh]
	 SCS Total Energy          =    -226.2201102452750945 [Eh]
	-----------------------------------------------------------

  Dipole Moment: [D]
     X:     0.0036      Y:    -1.4952      Z:    -0.0000     Total:     1.4952

*** Psi4 exiting successfully. Buy a developer a beer!
