                               Psi4 1.3.2 release

  ==> Input File <==

--------------------------------------------------------------------------
#psi4
#
memory 32 gb

molecule  {
1 1
  C       -0.6878560     0.9739330     0.0000000
  C        0.7062490     0.9837325     0.0000092
  N        1.0743100    -0.3422210    -0.0000140
  C        0.0027860    -1.1465230     0.0000170
  N       -1.0726430    -0.3472790    -0.0000090
  H       -2.0345360    -0.6815610    -0.0000170
  H        2.0378550    -0.6719290    -0.0000370
  H       -1.3988240     1.7865140    -0.0000060
  H        1.3901120     1.7931810     0.0000240
  H        0.0051580    -2.2268060     0.0000310
units angstrom
no_reorient  #important for SAPT in psi4, default
symmetry c1  #important for SAPT in psi4, default
}

set PROPERTIES_ORIGIN ["COM"]
properties('MP2/aug-cc-pvtz', properties = ['dipole'])
--------------------------------------------------------------------------

    Molecular point group: c1
  Charge       = 1
  Multiplicity = 1
  Basis Set: AUG-CC-PVTZ
    Blend: AUG-CC-PVTZ
  Basis Set: (AUG-CC-PVTZ AUX)
    Blend: AUG-CC-PVTZ-JKFIT

    Orbital Energies [Eh]
    ---------------------

    Doubly Occupied:

       1A    -15.853640     2A    -15.853598     3A    -11.553957
       4A    -11.480594     5A    -11.478698     6A     -1.592137
       7A     -1.432520     8A     -1.242908     9A     -1.096287
      10A     -1.048604    11A     -0.992261    12A     -0.895716
      13A     -0.840557    14A     -0.838070    15A     -0.824063
      16A     -0.799393    17A     -0.667213    18A     -0.539451

  @DF-RHF Final Energy:  -225.27476064430169

   => Energetics <=

    Nuclear Repulsion Energy =            172.3807976428366544
    One-Electron Energy =                -637.2517874035758041
    Two-Electron Energy =                 239.5962291164374278
    Total Energy =                       -225.2747606443016934
  Basis Set: (AUG-CC-PVTZ AUX)
    Blend: AUG-CC-PVTZ-RI
    Molecular point group: c1

    Geometry (in Angstrom), charge = 1, multiplicity = 1:

       Center              X                  Y                   Z               Mass
    ------------   -----------------  -----------------  -----------------  -----------------
         C           -0.691871543320     0.972803527010     0.000000184080    12.000000000000
         C            0.702233456680     0.982603027010     0.000009384080    12.000000000000
         N            1.070294456680    -0.343350472990    -0.000013815920    14.003074004430
         C           -0.001229543320    -1.147652472990     0.000017184080    12.000000000000
         N           -1.076658543320    -0.348408472990    -0.000008815920    14.003074004430
         H           -2.038551543320    -0.682690472990    -0.000016815920     1.007825032230
         H            2.033839456680    -0.673058472990    -0.000036815920     1.007825032230
         H           -1.402839543320     1.785384527010    -0.000005815920     1.007825032230
         H            1.386096456680     1.792051527010     0.000024184080     1.007825032230
         H            0.001142456680    -2.227935472990     0.000031184080     1.007825032230

  Basis Set: AUG-CC-PVTZ
    Blend: AUG-CC-PVTZ
  Basis Set: (AUG-CC-PVTZ AUX)
    Blend: AUG-CC-PVTZ-JKFIT
	 Reference Energy          =    -225.2747606443016934 [Eh]
	 Singles Energy            =      -0.0000000000000000 [Eh]
	 Same-Spin Energy          =      -0.2364683037864140 [Eh]
	 Opposite-Spin Energy      =      -0.7383853567629793 [Eh]
	 Correlation Energy        =      -0.9748536605493934 [Eh]
	 Total Energy              =    -226.2496143048510930 [Eh]

	 ================> DF-SCS-MP2 Energies <==================
	-----------------------------------------------------------
	 SCS Same-Spin Scale       =       0.3333333333333333 [-]
	 SCS Opposite-Spin Scale   =       1.2000000000000000 [-]
	 SCS Same-Spin Energy      =      -0.0788227679288047 [Eh]
	 SCS Opposite-Spin Energy  =      -0.8860624281155752 [Eh]
	 SCS Correlation Energy    =      -0.9648851960443799 [Eh]
	 SCS Total Energy          =    -226.2396458403460713 [Eh]
	-----------------------------------------------------------

  Dipole Moment: [D]
     X:    -0.0096      Y:    -1.2630      Z:    -0.0000     Total:     1.2630

*** Psi4 exiting successfully. Buy a developer a beer!
