                               Psi4 1.4a3.dev225

  ==> Input File <==

--------------------------------------------------------------------------
#psi4
#
memory 32 gb

molecule  {
1 1
  C       -0.6853300     0.9742120     0.0000000
  C        0.6853300     0.9742120     0.0000080
  N        1.0731610    -0.3445600    -0.0000120
  C        0.0000000    -1.1430630     0.0000130
  N       -1.0731610    -0.3445590    -0.0000060
  H       -2.0346060    -0.6777470    -0.0000120
  H        2.0346050    -0.6777480    -0.0000220
  H       -1.3967670     1.7843860    -0.0000010
  H        1.3967670     1.7843860     0.0000130
  H       -0.0000010    -2.2016150     0.0000199
units angstrom
no_reorient  #important for SAPT in psi4, default
symmetry c1  #important for SAPT in psi4, default
}

set PROPERTIES_ORIGIN ["COM"]
properties('MP2/aug-cc-pvtz', properties = ['dipole'])
--------------------------------------------------------------------------

    Molecular point group: c1
  Charge       = 1
  Multiplicity = 1
  Basis Set: AUG-CC-PVTZ
    Blend: AUG-CC-PVTZ
  Basis Set: (AUG-CC-PVTZ AUX)
    Blend: AUG-CC-PVTZ-JKFIT

    Orbital Energies [Eh]
    ---------------------

    Doubly Occupied:

       1A    -15.852506     2A    -15.852471     3A    -11.552239
       4A    -11.477509     5A    -11.476085     6A     -1.595227
       7A     -1.433182     8A     -1.247580     9A     -1.098597
      10A     -1.047490    11A     -0.996791    12A     -0.897135
      13A     -0.842732    14A     -0.840156    15A     -0.817792
      16A     -0.805203    17A     -0.667227    18A     -0.543885

  @DF-RHF Final Energy:  -225.27743603890778

   => Energetics <=

    Nuclear Repulsion Energy =            173.0201025265671433
    One-Electron Energy =                -638.5074687305572070
    Two-Electron Energy =                 240.2099301650822838
    Total Energy =                       -225.2774360389077799
  Basis Set: (AUG-CC-PVTZ AUX)
    Blend: AUG-CC-PVTZ-RI
    Molecular point group: c1

    Geometry (in Angstrom), charge = 1, multiplicity = 1:

       Center              X                  Y                   Z               Mass
    ------------   -----------------  -----------------  -----------------  -----------------
         C           -0.685329970807     0.973831077462     0.000000031454    12.000000000000
         C            0.685330029193     0.973831077462     0.000008031454    12.000000000000
         N            1.073161029193    -0.344940922538    -0.000011968546    14.003074004430
         C            0.000000029193    -1.143443922538     0.000013031454    12.000000000000
         N           -1.073160970807    -0.344939922538    -0.000005968546    14.003074004430
         H           -2.034605970807    -0.678127922538    -0.000011968546     1.007825032230
         H            2.034605029193    -0.678128922538    -0.000021968546     1.007825032230
         H           -1.396766970807     1.784005077462    -0.000000968546     1.007825032230
         H            1.396767029193     1.784005077462     0.000013031454     1.007825032230
         H           -0.000000970807    -2.201995922538     0.000019931454     1.007825032230

  Basis Set: AUG-CC-PVTZ
    Blend: AUG-CC-PVTZ
  Basis Set: (AUG-CC-PVTZ AUX)
    Blend: AUG-CC-PVTZ-JKFIT
	 Reference Energy          =    -225.2774360389077799 [Eh]
	 Singles Energy            =      -0.0000000000000000 [Eh]
	 Same-Spin Energy          =      -0.2360093649481059 [Eh]
	 Opposite-Spin Energy      =      -0.7372845467167394 [Eh]
	 Correlation Energy        =      -0.9732939116648452 [Eh]
	 Total Energy              =    -226.2507299505726337 [Eh]

	 ================> DF-SCS-MP2 Energies <==================
	-----------------------------------------------------------
	 SCS Same-Spin Scale       =       0.3333333333333333 [-]
	 SCS Opposite-Spin Scale   =       1.2000000000000000 [-]
	 SCS Same-Spin Energy      =      -0.0786697883160353 [Eh]
	 SCS Opposite-Spin Energy  =      -0.8847414560600873 [Eh]
	 SCS Correlation Energy    =      -0.9634112443761226 [Eh]
	 SCS Total Energy          =    -226.2408472832838982 [Eh]
	-----------------------------------------------------------

  Dipole Moment: [D]
     X:    -0.0000      Y:    -1.2571      Z:    -0.0000     Total:     1.2571

*** Psi4 exiting successfully. Buy a developer a beer!
