                               Psi4 1.3.2 release

  ==> Input File <==

--------------------------------------------------------------------------
#psi4
#
memory 32 gb

molecule  {
1 1
  C       -0.6878560     0.9739330     0.0000000
  C        0.5473994     0.9289937     0.0000144
  N        1.0743100    -0.3422210    -0.0000140
  C        0.0027860    -1.1465230     0.0000170
  N       -1.0726430    -0.3472790    -0.0000090
  H       -2.0345360    -0.6815610    -0.0000170
  H        2.0378550    -0.6719290    -0.0000370
  H       -1.3988240     1.7865140    -0.0000060
  H        1.3901120     1.7931810     0.0000240
  H        0.0051580    -2.2268060     0.0000310
units angstrom
no_reorient  #important for SAPT in psi4, default
symmetry c1  #important for SAPT in psi4, default
}

set PROPERTIES_ORIGIN ["COM"]
properties('MP2/aug-cc-pvtz', properties = ['dipole'])
--------------------------------------------------------------------------

    Molecular point group: c1
  Charge       = 1
  Multiplicity = 1
  Basis Set: AUG-CC-PVTZ
    Blend: AUG-CC-PVTZ
  Basis Set: (AUG-CC-PVTZ AUX)
    Blend: AUG-CC-PVTZ-JKFIT

    Orbital Energies [Eh]
    ---------------------

    Doubly Occupied:

       1A    -15.847727     2A    -15.846476     3A    -11.560132
       4A    -11.465571     5A    -11.455627     6A     -1.604188
       7A     -1.428663     8A     -1.270603     9A     -1.101794
      10A     -1.035241    11A     -0.994993    12A     -0.898084
      13A     -0.849986    14A     -0.842081    15A     -0.830841
      16A     -0.754205    17A     -0.663311    18A     -0.571287

  @DF-RHF Final Energy:  -225.24680900331163

   => Energetics <=

    Nuclear Repulsion Energy =            175.0411147924085071
    One-Electron Energy =                -642.5342266792102919
    Two-Electron Energy =                 242.2463028834901593
    Total Energy =                       -225.2468090033116255
  Basis Set: (AUG-CC-PVTZ AUX)
    Blend: AUG-CC-PVTZ-RI
    Molecular point group: c1

    Geometry (in Angstrom), charge = 1, multiplicity = 1:

       Center              X                  Y                   Z               Mass
    ------------   -----------------  -----------------  -----------------  -----------------
         C           -0.664263640382     0.982317076162    -0.000000719675    12.000000000000
         C            0.570991759618     0.937377776162     0.000013680325    12.000000000000
         N            1.097902359618    -0.333836923838    -0.000014719675    14.003074004430
         C            0.026378359618    -1.138138923838     0.000016280325    12.000000000000
         N           -1.049050640382    -0.338894923838    -0.000009719675    14.003074004430
         H           -2.010943640382    -0.673176923838    -0.000017719675     1.007825032230
         H            2.061447359618    -0.663544923838    -0.000037719675     1.007825032230
         H           -1.375231640382     1.794898076162    -0.000006719675     1.007825032230
         H            1.413704359618     1.801565076162     0.000023280325     1.007825032230
         H            0.028750359618    -2.218421923838     0.000030280325     1.007825032230

  Basis Set: AUG-CC-PVTZ
    Blend: AUG-CC-PVTZ
  Basis Set: (AUG-CC-PVTZ AUX)
    Blend: AUG-CC-PVTZ-JKFIT
	 Reference Energy          =    -225.2468090033116255 [Eh]
	 Singles Energy            =      -0.0000000000000000 [Eh]
	 Same-Spin Energy          =      -0.2347660129963239 [Eh]
	 Opposite-Spin Energy      =      -0.7350997497858813 [Eh]
	 Correlation Energy        =      -0.9698657627822052 [Eh]
	 Total Energy              =    -226.2166747660938313 [Eh]

	 ================> DF-SCS-MP2 Energies <==================
	-----------------------------------------------------------
	 SCS Same-Spin Scale       =       0.3333333333333333 [-]
	 SCS Opposite-Spin Scale   =       1.2000000000000000 [-]
	 SCS Same-Spin Energy      =      -0.0782553376654413 [Eh]
	 SCS Opposite-Spin Energy  =      -0.8821196997430576 [Eh]
	 SCS Correlation Energy    =      -0.9603750374084989 [Eh]
	 SCS Total Energy          =    -226.2071840407201364 [Eh]
	-----------------------------------------------------------

  Dipole Moment: [D]
     X:     0.0541      Y:    -1.3436      Z:    -0.0000     Total:     1.3447

*** Psi4 exiting successfully. Buy a developer a beer!
