                               Psi4 1.3.2 release

  ==> Input File <==

--------------------------------------------------------------------------
#psi4
#
memory 32 gb

molecule  {
1 1
  C       -0.6878560     0.9739330     0.0000000
  C        0.5920851     0.9466082     0.0000129
  N        1.0743100    -0.3422210    -0.0000140
  C        0.0027860    -1.1465230     0.0000170
  N       -1.0726430    -0.3472790    -0.0000090
  H       -2.0345360    -0.6815610    -0.0000170
  H        2.0378550    -0.6719290    -0.0000370
  H       -1.3988240     1.7865140    -0.0000060
  H        1.3901120     1.7931810     0.0000240
  H        0.0051580    -2.2268060     0.0000310
units angstrom
no_reorient  #important for SAPT in psi4, default
symmetry c1  #important for SAPT in psi4, default
}

set PROPERTIES_ORIGIN ["COM"]
properties('MP2/aug-cc-pvtz', properties = ['dipole'])
--------------------------------------------------------------------------

    Molecular point group: c1
  Charge       = 1
  Multiplicity = 1
  Basis Set: AUG-CC-PVTZ
    Blend: AUG-CC-PVTZ
  Basis Set: (AUG-CC-PVTZ AUX)
    Blend: AUG-CC-PVTZ-JKFIT

    Orbital Energies [Eh]
    ---------------------

    Doubly Occupied:

       1A    -15.848984     2A    -15.848270     3A    -11.558326
       4A    -11.469240     5A    -11.462679     6A     -1.600024
       7A     -1.429359     8A     -1.261542     9A     -1.100374
      10A     -1.037809    11A     -0.994357    12A     -0.896668
      13A     -0.846604    14A     -0.839179    15A     -0.824621
      16A     -0.775675    17A     -0.664113    18A     -0.561486

  @DF-RHF Final Energy:  -225.26562257289359

   => Energetics <=

    Nuclear Repulsion Energy =            174.2197446355851298
    One-Electron Energy =                -640.9321131168636612
    Two-Electron Energy =                 241.4467459083849405
    Total Energy =                       -225.2656225728935908
  Basis Set: (AUG-CC-PVTZ AUX)
    Blend: AUG-CC-PVTZ-RI
    Molecular point group: c1

    Geometry (in Angstrom), charge = 1, multiplicity = 1:

       Center              X                  Y                   Z               Mass
    ------------   -----------------  -----------------  -----------------  -----------------
         C           -0.672029970725     0.979255693532    -0.000000458977    12.000000000000
         C            0.607911129275     0.951930893532     0.000012441023    12.000000000000
         N            1.090136029275    -0.336898306468    -0.000014458977    14.003074004430
         C            0.018612029275    -1.141200306468     0.000016541023    12.000000000000
         N           -1.056816970725    -0.341956306468    -0.000009458977    14.003074004430
         H           -2.018709970725    -0.676238306468    -0.000017458977     1.007825032230
         H            2.053681029275    -0.666606306468    -0.000037458977     1.007825032230
         H           -1.382997970725     1.791836693532    -0.000006458977     1.007825032230
         H            1.405938029275     1.798503693532     0.000023541023     1.007825032230
         H            0.020984029275    -2.221483306468     0.000030541023     1.007825032230

  Basis Set: AUG-CC-PVTZ
    Blend: AUG-CC-PVTZ
  Basis Set: (AUG-CC-PVTZ AUX)
    Blend: AUG-CC-PVTZ-JKFIT
	 Reference Energy          =    -225.2656225728935908 [Eh]
	 Singles Energy            =      -0.0000000000000000 [Eh]
	 Same-Spin Energy          =      -0.2350443162245453 [Eh]
	 Opposite-Spin Energy      =      -0.7355788554370027 [Eh]
	 Correlation Energy        =      -0.9706231716615480 [Eh]
	 Total Energy              =    -226.2362457445551343 [Eh]

	 ================> DF-SCS-MP2 Energies <==================
	-----------------------------------------------------------
	 SCS Same-Spin Scale       =       0.3333333333333333 [-]
	 SCS Opposite-Spin Scale   =       1.2000000000000000 [-]
	 SCS Same-Spin Energy      =      -0.0783481054081818 [Eh]
	 SCS Opposite-Spin Energy  =      -0.8826946265244032 [Eh]
	 SCS Correlation Energy    =      -0.9610427319325849 [Eh]
	 SCS Total Energy          =    -226.2266653048261844 [Eh]
	-----------------------------------------------------------

  Dipole Moment: [D]
     X:     0.0433      Y:    -1.3131      Z:    -0.0000     Total:     1.3138

*** Psi4 exiting successfully. Buy a developer a beer!
