                               Psi4 1.3.2 release

  ==> Input File <==

--------------------------------------------------------------------------
#psi4
#
memory 32 gb

molecule  {
1 1
  C       -0.6878560     0.9739330     0.0000000
  C        0.6831640     0.9771070     0.0000100
  N        1.0743100    -0.3422210    -0.0000140
  C        0.0027860    -1.1465230     0.0000170
  N       -1.0726430    -0.3472790    -0.0000090
  H       -2.0345360    -0.6815610    -0.0000170
  H        2.1324692    -0.7043043    -0.0000393
  H       -1.3988240     1.7865140    -0.0000060
  H        1.3901120     1.7931810     0.0000240
  H        0.0051580    -2.2268060     0.0000310
units angstrom
no_reorient  #important for SAPT in psi4, default
symmetry c1  #important for SAPT in psi4, default
}

set PROPERTIES_ORIGIN ["COM"]
properties('MP2/aug-cc-pvtz', properties = ['dipole'])
--------------------------------------------------------------------------

    Molecular point group: c1
  Charge       = 1
  Multiplicity = 1
  Basis Set: AUG-CC-PVTZ
    Blend: AUG-CC-PVTZ
  Basis Set: (AUG-CC-PVTZ AUX)
    Blend: AUG-CC-PVTZ-JKFIT

    Orbital Energies [Eh]
    ---------------------

    Doubly Occupied:

       1A    -15.857787     2A    -15.850542     3A    -11.552530
       4A    -11.476099     5A    -11.474676     6A     -1.589476
       7A     -1.422948     8A     -1.243558     9A     -1.081609
      10A     -1.041709    11A     -0.989139    12A     -0.878899
      13A     -0.839123    14A     -0.833949    15A     -0.815505
      16A     -0.799182    17A     -0.663354    18A     -0.541840

  @DF-RHF Final Energy:  -225.26636160406250

   => Energetics <=

    Nuclear Repulsion Energy =            172.2022263733671821
    One-Electron Energy =                -637.0333245084843838
    Two-Electron Energy =                 239.5647365310547059
    Total Energy =                       -225.2663616040624959
  Basis Set: (AUG-CC-PVTZ AUX)
    Blend: AUG-CC-PVTZ-RI
    Molecular point group: c1

    Geometry (in Angstrom), charge = 1, multiplicity = 1:

       Center              X                  Y                   Z               Mass
    ------------   -----------------  -----------------  -----------------  -----------------
         C           -0.689240437200     0.974427601080     0.000000078613    12.000000000000
         C            0.681779562800     0.977601601080     0.000010078613    12.000000000000
         N            1.072925562800    -0.341726398920    -0.000013921387    14.003074004430
         C            0.001401562800    -1.146028398920     0.000017078613    12.000000000000
         N           -1.074027437200    -0.346784398920    -0.000008921387    14.003074004430
         H           -2.035920437200    -0.681066398920    -0.000016921387     1.007825032230
         H            2.131084762800    -0.703809698920    -0.000039221387     1.007825032230
         H           -1.400208437200     1.787008601080    -0.000005921387     1.007825032230
         H            1.388727562800     1.793675601080     0.000024078613     1.007825032230
         H            0.003773562800    -2.226311398920     0.000031078613     1.007825032230

  Basis Set: AUG-CC-PVTZ
    Blend: AUG-CC-PVTZ
  Basis Set: (AUG-CC-PVTZ AUX)
    Blend: AUG-CC-PVTZ-JKFIT
	 Reference Energy          =    -225.2663616040624959 [Eh]
	 Singles Energy            =      -0.0000000000000000 [Eh]
	 Same-Spin Energy          =      -0.2369058851509885 [Eh]
	 Opposite-Spin Energy      =      -0.7395165459294806 [Eh]
	 Correlation Energy        =      -0.9764224310804690 [Eh]
	 Total Energy              =    -226.2427840351429609 [Eh]

	 ================> DF-SCS-MP2 Energies <==================
	-----------------------------------------------------------
	 SCS Same-Spin Scale       =       0.3333333333333333 [-]
	 SCS Opposite-Spin Scale   =       1.2000000000000000 [-]
	 SCS Same-Spin Energy      =      -0.0789686283836628 [Eh]
	 SCS Opposite-Spin Energy  =      -0.8874198551153767 [Eh]
	 SCS Correlation Energy    =      -0.9663884834990395 [Eh]
	 SCS Total Energy          =    -226.2327500875615272 [Eh]
	-----------------------------------------------------------

  Dipole Moment: [D]
     X:     0.2091      Y:    -1.3292      Z:    -0.0000     Total:     1.3455

*** Psi4 exiting successfully. Buy a developer a beer!
