                               Psi4 1.3.2 release

  ==> Input File <==

--------------------------------------------------------------------------
#psi4
#
memory 32 gb

molecule  {
1 1
  C       -0.6878560     0.9739330     0.0000000
  C        0.7761485     1.0011781     0.0000070
  N        1.0743100    -0.3422210    -0.0000140
  C        0.0027860    -1.1465230     0.0000170
  N       -1.0726430    -0.3472790    -0.0000090
  H       -2.0345360    -0.6815610    -0.0000170
  H        2.0378550    -0.6719290    -0.0000370
  H       -1.3988240     1.7865140    -0.0000060
  H        1.3901120     1.7931810     0.0000240
  H        0.0051580    -2.2268060     0.0000310
units angstrom
no_reorient  #important for SAPT in psi4, default
symmetry c1  #important for SAPT in psi4, default
}

set PROPERTIES_ORIGIN ["COM"]
properties('MP2/aug-cc-pvtz', properties = ['dipole'])
--------------------------------------------------------------------------

    Molecular point group: c1
  Charge       = 1
  Multiplicity = 1
  Basis Set: AUG-CC-PVTZ
    Blend: AUG-CC-PVTZ
  Basis Set: (AUG-CC-PVTZ AUX)
    Blend: AUG-CC-PVTZ-JKFIT

    Orbital Energies [Eh]
    ---------------------

    Doubly Occupied:

       1A    -15.857303     2A    -15.857114     3A    -11.551353
       4A    -11.490128     5A    -11.484936     6A     -1.588784
       7A     -1.434959     8A     -1.235062     9A     -1.093679
      10A     -1.056832    11A     -0.992405    12A     -0.896253
      13A     -0.855923    14A     -0.838169    15A     -0.830609
      16A     -0.781154    17A     -0.669597    18A     -0.528065

  @DF-RHF Final Energy:  -225.25771977411242

   => Energetics <=

    Nuclear Repulsion Energy =            171.4155115891033745
    One-Electron Energy =                -635.2618111976100863
    Two-Electron Energy =                 238.5885798343942668
    Total Energy =                       -225.2577197741124166
  Basis Set: (AUG-CC-PVTZ AUX)
    Blend: AUG-CC-PVTZ-RI
    Molecular point group: c1

    Geometry (in Angstrom), charge = 1, multiplicity = 1:

       Center              X                  Y                   Z               Mass
    ------------   -----------------  -----------------  -----------------  -----------------
         C           -0.704020007096     0.969771499032     0.000000566437    12.000000000000
         C            0.759984492904     0.997016599032     0.000007566437    12.000000000000
         N            1.058145992904    -0.346382500968    -0.000013433563    14.003074004430
         C           -0.013378007096    -1.150684500968     0.000017566437    12.000000000000
         N           -1.088807007096    -0.351440500968    -0.000008433563    14.003074004430
         H           -2.050700007096    -0.685722500968    -0.000016433563     1.007825032230
         H            2.021690992904    -0.676090500968    -0.000036433563     1.007825032230
         H           -1.414988007096     1.782352499032    -0.000005433563     1.007825032230
         H            1.373947992904     1.789019499032     0.000024566437     1.007825032230
         H           -0.011006007096    -2.230967500968     0.000031566437     1.007825032230

  Basis Set: AUG-CC-PVTZ
    Blend: AUG-CC-PVTZ
  Basis Set: (AUG-CC-PVTZ AUX)
    Blend: AUG-CC-PVTZ-JKFIT
	 Reference Energy          =    -225.2577197741124166 [Eh]
	 Singles Energy            =      -0.0000000000000000 [Eh]
	 Same-Spin Energy          =      -0.2377655558260270 [Eh]
	 Opposite-Spin Energy      =      -0.7411669573030690 [Eh]
	 Correlation Energy        =      -0.9789325131290960 [Eh]
	 Total Energy              =    -226.2366522872415260 [Eh]

	 ================> DF-SCS-MP2 Energies <==================
	-----------------------------------------------------------
	 SCS Same-Spin Scale       =       0.3333333333333333 [-]
	 SCS Opposite-Spin Scale   =       1.2000000000000000 [-]
	 SCS Same-Spin Energy      =      -0.0792551852753423 [Eh]
	 SCS Opposite-Spin Energy  =      -0.8894003487636828 [Eh]
	 SCS Correlation Energy    =      -0.9686555340390252 [Eh]
	 SCS Total Energy          =    -226.2263753081514324 [Eh]
	-----------------------------------------------------------

  Dipole Moment: [D]
     X:    -0.0511      Y:    -1.2507      Z:    -0.0000     Total:     1.2517

*** Psi4 exiting successfully. Buy a developer a beer!
