                               Psi4 1.3.2 release

  ==> Input File <==

--------------------------------------------------------------------------
#psi4
#
memory 32 gb

molecule  {
1 1
  C       -0.6806772     1.1172610     0.0000030
  C        0.6831640     0.9771070     0.0000100
  N        1.0743100    -0.3422210    -0.0000140
  C        0.0027860    -1.1465230     0.0000170
  N       -1.0726430    -0.3472790    -0.0000090
  H       -2.0345360    -0.6815610    -0.0000170
  H        2.0378550    -0.6719290    -0.0000370
  H       -1.3988240     1.7865140    -0.0000060
  H        1.3901120     1.7931810     0.0000240
  H        0.0051580    -2.2268060     0.0000310
units angstrom
no_reorient  #important for SAPT in psi4, default
symmetry c1  #important for SAPT in psi4, default
}

set PROPERTIES_ORIGIN ["COM"]
properties('MP2/aug-cc-pvtz', properties = ['dipole'])
--------------------------------------------------------------------------

    Molecular point group: c1
  Charge       = 1
  Multiplicity = 1
  Basis Set: AUG-CC-PVTZ
    Blend: AUG-CC-PVTZ
  Basis Set: (AUG-CC-PVTZ AUX)
    Blend: AUG-CC-PVTZ-JKFIT

    Orbital Energies [Eh]
    ---------------------

    Doubly Occupied:

       1A    -15.850384     2A    -15.844924     3A    -11.562782
       4A    -11.486949     5A    -11.482654     6A     -1.575865
       7A     -1.411633     8A     -1.247603     9A     -1.088454
      10A     -1.049320    11A     -0.991968    12A     -0.886182
      13A     -0.858858    14A     -0.832777    15A     -0.829706
      16A     -0.778312    17A     -0.652484    18A     -0.553858

  @DF-RHF Final Energy:  -225.25356227485503

   => Energetics <=

    Nuclear Repulsion Energy =            170.5706514570607055
    One-Electron Energy =                -633.6790002502916650
    Two-Electron Energy =                 237.8547865183759313
    Total Energy =                       -225.2535622748550281
  Basis Set: (AUG-CC-PVTZ AUX)
    Blend: AUG-CC-PVTZ-RI
    Molecular point group: c1

    Geometry (in Angstrom), charge = 1, multiplicity = 1:

       Center              X                  Y                   Z               Mass
    ------------   -----------------  -----------------  -----------------  -----------------
         C           -0.681928261536     1.092372768088     0.000002523643    12.000000000000
         C            0.681912938464     0.952218768088     0.000009523643    12.000000000000
         N            1.073058938464    -0.367109231912    -0.000014476357    14.003074004430
         C            0.001534938464    -1.171411231912     0.000016523643    12.000000000000
         N           -1.073894061536    -0.372167231912    -0.000009476357    14.003074004430
         H           -2.035787061536    -0.706449231912    -0.000017476357     1.007825032230
         H            2.036603938464    -0.696817231912    -0.000037476357     1.007825032230
         H           -1.400075061536     1.761625768088    -0.000006476357     1.007825032230
         H            1.388860938464     1.768292768088     0.000023523643     1.007825032230
         H            0.003906938464    -2.251694231912     0.000030523643     1.007825032230

  Basis Set: AUG-CC-PVTZ
    Blend: AUG-CC-PVTZ
  Basis Set: (AUG-CC-PVTZ AUX)
    Blend: AUG-CC-PVTZ-JKFIT
	 Reference Energy          =    -225.2535622748550281 [Eh]
	 Singles Energy            =      -0.0000000000000000 [Eh]
	 Same-Spin Energy          =      -0.2347222862440010 [Eh]
	 Opposite-Spin Energy      =      -0.7385870936642991 [Eh]
	 Correlation Energy        =      -0.9733093799083001 [Eh]
	 Total Energy              =    -226.2268716547633289 [Eh]

	 ================> DF-SCS-MP2 Energies <==================
	-----------------------------------------------------------
	 SCS Same-Spin Scale       =       0.3333333333333333 [-]
	 SCS Opposite-Spin Scale   =       1.2000000000000000 [-]
	 SCS Same-Spin Energy      =      -0.0782407620813337 [Eh]
	 SCS Opposite-Spin Energy  =      -0.8863045123971589 [Eh]
	 SCS Correlation Energy    =      -0.9645452744784926 [Eh]
	 SCS Total Energy          =    -226.2181075493335243 [Eh]
	-----------------------------------------------------------

  Dipole Moment: [D]
     X:     0.0787      Y:    -1.3381      Z:    -0.0000     Total:     1.3405

*** Psi4 exiting successfully. Buy a developer a beer!
