                               Psi4 1.4a3.dev225

  ==> Input File <==

--------------------------------------------------------------------------
#psi4
#
memory 32 gb

molecule  {
1 1
  C       -0.6853300     0.9742120     0.0000000
  C        0.6853300     0.9742120     0.0000080
  N        1.0731610    -0.3445600    -0.0000120
  C        0.0000000    -1.1430630     0.0000130
  N       -1.0731610    -0.3445590    -0.0000060
  H       -2.0346060    -0.6777470    -0.0000120
  H        2.0818485    -0.6941202    -0.0000225
  H       -1.3967670     1.7843860    -0.0000010
  H        1.3967670     1.7843860     0.0000130
  H       -0.0000010    -2.2216150     0.0000200
units angstrom
no_reorient  #important for SAPT in psi4, default
symmetry c1  #important for SAPT in psi4, default
}

set PROPERTIES_ORIGIN ["COM"]
properties('MP2/aug-cc-pvtz', properties = ['dipole'])
--------------------------------------------------------------------------

    Molecular point group: c1
  Charge       = 1
  Multiplicity = 1
  Basis Set: AUG-CC-PVTZ
    Blend: AUG-CC-PVTZ
  Basis Set: (AUG-CC-PVTZ AUX)
    Blend: AUG-CC-PVTZ-JKFIT

    Orbital Energies [Eh]
    ---------------------

    Doubly Occupied:

       1A    -15.855223     2A    -15.851374     3A    -11.552758
       4A    -11.476596     5A    -11.475172     6A     -1.592976
       7A     -1.428375     8A     -1.245308     9A     -1.089499
      10A     -1.045199    11A     -0.991385    12A     -0.888658
      13A     -0.841390    14A     -0.835293    15A     -0.816769
      16A     -0.802814    17A     -0.665550    18A     -0.542859

  @DF-RHF Final Energy:  -225.27367141153837

   => Energetics <=

    Nuclear Repulsion Energy =            172.6511547543959466
    One-Electron Energy =                -637.8552569626369859
    Two-Electron Energy =                 239.9304307967026375
    Total Energy =                       -225.2736714115383734
  Basis Set: (AUG-CC-PVTZ AUX)
    Blend: AUG-CC-PVTZ-RI
    Molecular point group: c1

    Geometry (in Angstrom), charge = 1, multiplicity = 1:

       Center              X                  Y                   Z               Mass
    ------------   -----------------  -----------------  -----------------  -----------------
         C           -0.686019564456     0.974361987284     0.000000037293    12.000000000000
         C            0.684640435544     0.974361987284     0.000008037293    12.000000000000
         N            1.072471435544    -0.344410012716    -0.000011962707    14.003074004430
         C           -0.000689564456    -1.142913012716     0.000013037293    12.000000000000
         N           -1.073850564456    -0.344409012716    -0.000005962707    14.003074004430
         H           -2.035295564456    -0.677597012716    -0.000011962707     1.007825032230
         H            2.081158935544    -0.693970212716    -0.000022462707     1.007825032230
         H           -1.397456564456     1.784535987284    -0.000000962707     1.007825032230
         H            1.396077435544     1.784535987284     0.000013037293     1.007825032230
         H           -0.000690564456    -2.221465012716     0.000020037293     1.007825032230

  Basis Set: AUG-CC-PVTZ
    Blend: AUG-CC-PVTZ
  Basis Set: (AUG-CC-PVTZ AUX)
    Blend: AUG-CC-PVTZ-JKFIT
	 Reference Energy          =    -225.2736714115383734 [Eh]
	 Singles Energy            =      -0.0000000000000000 [Eh]
	 Same-Spin Energy          =      -0.2364357029280081 [Eh]
	 Opposite-Spin Energy      =      -0.7382877248262861 [Eh]
	 Correlation Energy        =      -0.9747234277542942 [Eh]
	 Total Energy              =    -226.2483948392926720 [Eh]

	 ================> DF-SCS-MP2 Energies <==================
	-----------------------------------------------------------
	 SCS Same-Spin Scale       =       0.3333333333333333 [-]
	 SCS Opposite-Spin Scale   =       1.2000000000000000 [-]
	 SCS Same-Spin Energy      =      -0.0788119009760027 [Eh]
	 SCS Opposite-Spin Energy  =      -0.8859452697915433 [Eh]
	 SCS Correlation Energy    =      -0.9647571707675460 [Eh]
	 SCS Total Energy          =    -226.2384285823059145 [Eh]
	-----------------------------------------------------------

  Dipole Moment: [D]
     X:     0.1015      Y:    -1.3078      Z:    -0.0000     Total:     1.3117

*** Psi4 exiting successfully. Buy a developer a beer!
