                               Psi4 1.3.2 release

  ==> Input File <==

--------------------------------------------------------------------------
#psi4
#
memory 32 gb

molecule  {
1 1
  C       -0.6878560     0.9739330     0.0000000
  C        0.6831640     0.9771070     0.0000100
  N        1.1017270    -0.3801066    -0.0000127
  C        0.0027860    -1.1465230     0.0000170
  N       -1.0726430    -0.3472790    -0.0000090
  H       -2.0345360    -0.6815610    -0.0000170
  H        2.0378550    -0.6719290    -0.0000370
  H       -1.3988240     1.7865140    -0.0000060
  H        1.3901120     1.7931810     0.0000240
  H        0.0051580    -2.2268060     0.0000310
units angstrom
no_reorient  #important for SAPT in psi4, default
symmetry c1  #important for SAPT in psi4, default
}

set PROPERTIES_ORIGIN ["COM"]
properties('MP2/aug-cc-pvtz', properties = ['dipole'])
--------------------------------------------------------------------------

    Molecular point group: c1
  Charge       = 1
  Multiplicity = 1
  Basis Set: AUG-CC-PVTZ
    Blend: AUG-CC-PVTZ
  Basis Set: (AUG-CC-PVTZ AUX)
    Blend: AUG-CC-PVTZ-JKFIT

    Orbital Energies [Eh]
    ---------------------

    Doubly Occupied:

       1A    -15.852920     2A    -15.850305     3A    -11.559427
       4A    -11.480584     5A    -11.479038     6A     -1.587588
       7A     -1.432173     8A     -1.243570     9A     -1.104797
      10A     -1.041557    11A     -0.991670    12A     -0.907998
      13A     -0.837982    14A     -0.831562    15A     -0.812516
      16A     -0.806926    17A     -0.665193    18A     -0.546060

  @DF-RHF Final Energy:  -225.27488444572532

   => Energetics <=

    Nuclear Repulsion Energy =            171.9720738104130930
    One-Electron Energy =                -636.4301838438519781
    Two-Electron Energy =                 239.1832255877135367
    Total Energy =                       -225.2748844457253199
  Basis Set: (AUG-CC-PVTZ AUX)
    Blend: AUG-CC-PVTZ-RI
    Molecular point group: c1

    Geometry (in Angstrom), charge = 1, multiplicity = 1:

       Center              X                  Y                   Z               Mass
    ------------   -----------------  -----------------  -----------------  -----------------
         C           -0.693419835840     0.981638612057    -0.000000218613    12.000000000000
         C            0.677600164160     0.984812612057     0.000009781387    12.000000000000
         N            1.096163164160    -0.372400987943    -0.000012918613    14.003074004430
         C           -0.002777835840    -1.138817387943     0.000016781387    12.000000000000
         N           -1.078206835840    -0.339573387943    -0.000009218613    14.003074004430
         H           -2.040099835840    -0.673855387943    -0.000017218613     1.007825032230
         H            2.032291164160    -0.664223387943    -0.000037218613     1.007825032230
         H           -1.404387835840     1.794219612057    -0.000006218613     1.007825032230
         H            1.384548164160     1.800886612057     0.000023781387     1.007825032230
         H           -0.000405835840    -2.219100387943     0.000030781387     1.007825032230

  Basis Set: AUG-CC-PVTZ
    Blend: AUG-CC-PVTZ
  Basis Set: (AUG-CC-PVTZ AUX)
    Blend: AUG-CC-PVTZ-JKFIT
	 Reference Energy          =    -225.2748844457253199 [Eh]
	 Singles Energy            =      -0.0000000000000000 [Eh]
	 Same-Spin Energy          =      -0.2352086357666647 [Eh]
	 Opposite-Spin Energy      =      -0.7372041437253603 [Eh]
	 Correlation Energy        =      -0.9724127794920250 [Eh]
	 Total Energy              =    -226.2472972252173520 [Eh]

	 ================> DF-SCS-MP2 Energies <==================
	-----------------------------------------------------------
	 SCS Same-Spin Scale       =       0.3333333333333333 [-]
	 SCS Opposite-Spin Scale   =       1.2000000000000000 [-]
	 SCS Same-Spin Energy      =      -0.0784028785888882 [Eh]
	 SCS Opposite-Spin Energy  =      -0.8846449724704323 [Eh]
	 SCS Correlation Energy    =      -0.9630478510593206 [Eh]
	 SCS Total Energy          =    -226.2379322967846349 [Eh]
	-----------------------------------------------------------

  Dipole Moment: [D]
     X:    -0.1020      Y:    -1.2265      Z:    -0.0000     Total:     1.2307

*** Psi4 exiting successfully. Buy a developer a beer!
