                               Psi4 1.3.2 release

  ==> Input File <==

--------------------------------------------------------------------------
#psi4
#
memory 32 gb

molecule  {
1 1
  C       -0.6878560     0.9739330     0.0000000
  C        0.6373584     0.9626525     0.0000115
  N        1.0743100    -0.3422210    -0.0000140
  C        0.0027860    -1.1465230     0.0000170
  N       -1.0726430    -0.3472790    -0.0000090
  H       -2.0345360    -0.6815610    -0.0000170
  H        2.0378550    -0.6719290    -0.0000370
  H       -1.3988240     1.7865140    -0.0000060
  H        1.3901120     1.7931810     0.0000240
  H        0.0051580    -2.2268060     0.0000310
units angstrom
no_reorient  #important for SAPT in psi4, default
symmetry c1  #important for SAPT in psi4, default
}

set PROPERTIES_ORIGIN ["COM"]
properties('MP2/aug-cc-pvtz', properties = ['dipole'])
--------------------------------------------------------------------------

    Molecular point group: c1
  Charge       = 1
  Multiplicity = 1
  Basis Set: AUG-CC-PVTZ
    Blend: AUG-CC-PVTZ
  Basis Set: (AUG-CC-PVTZ AUX)
    Blend: AUG-CC-PVTZ-JKFIT

    Orbital Energies [Eh]
    ---------------------

    Doubly Occupied:

       1A    -15.850591     2A    -15.850300     3A    -11.556565
       4A    -11.473185     5A    -11.469718     6A     -1.596474
       7A     -1.430432     8A     -1.253308     9A     -1.098820
      10A     -1.041537    11A     -0.993401    12A     -0.895915
      13A     -0.843818    14A     -0.837313    15A     -0.816823
      16A     -0.795766    17A     -0.665193    18A     -0.552228

  @DF-RHF Final Energy:  -225.27539756010989

   => Energetics <=

    Nuclear Repulsion Energy =            173.4481030711155825
    One-Electron Energy =                -639.4042260866169727
    Two-Electron Energy =                 240.6807254553914674
    Total Energy =                       -225.2753975601098944
  Basis Set: (AUG-CC-PVTZ AUX)
    Blend: AUG-CC-PVTZ-RI
    Molecular point group: c1

    Geometry (in Angstrom), charge = 1, multiplicity = 1:

       Center              X                  Y                   Z               Mass
    ------------   -----------------  -----------------  -----------------  -----------------
         C           -0.679898425364     0.976467210104    -0.000000215658    12.000000000000
         C            0.645315974636     0.965186710104     0.000011284342    12.000000000000
         N            1.082267574636    -0.339686789896    -0.000014215658    14.003074004430
         C            0.010743574636    -1.143988789896     0.000016784342    12.000000000000
         N           -1.064685425364    -0.344744789896    -0.000009215658    14.003074004430
         H           -2.026578425364    -0.679026789896    -0.000017215658     1.007825032230
         H            2.045812574636    -0.669394789896    -0.000037215658     1.007825032230
         H           -1.390866425364     1.789048210104    -0.000006215658     1.007825032230
         H            1.398069574636     1.795715210104     0.000023784342     1.007825032230
         H            0.013115574636    -2.224271789896     0.000030784342     1.007825032230

  Basis Set: AUG-CC-PVTZ
    Blend: AUG-CC-PVTZ
  Basis Set: (AUG-CC-PVTZ AUX)
    Blend: AUG-CC-PVTZ-JKFIT
	 Reference Energy          =    -225.2753975601098944 [Eh]
	 Singles Energy            =      -0.0000000000000000 [Eh]
	 Same-Spin Energy          =      -0.2354947746446079 [Eh]
	 Opposite-Spin Energy      =      -0.7364239907629930 [Eh]
	 Correlation Energy        =      -0.9719187654076009 [Eh]
	 Total Energy              =    -226.2473163255174882 [Eh]

	 ================> DF-SCS-MP2 Energies <==================
	-----------------------------------------------------------
	 SCS Same-Spin Scale       =       0.3333333333333333 [-]
	 SCS Opposite-Spin Scale   =       1.2000000000000000 [-]
	 SCS Same-Spin Energy      =      -0.0784982582148693 [Eh]
	 SCS Opposite-Spin Energy  =      -0.8837087889155916 [Eh]
	 SCS Correlation Energy    =      -0.9622070471304609 [Eh]
	 SCS Total Energy          =    -226.2376046072403426 [Eh]
	-----------------------------------------------------------

  Dipole Moment: [D]
     X:     0.0258      Y:    -1.2887      Z:    -0.0000     Total:     1.2890

*** Psi4 exiting successfully. Buy a developer a beer!
