                               Psi4 1.3.2 release

  ==> Input File <==

--------------------------------------------------------------------------
#psi4
#
memory 32 gb

molecule  {
1 1
  C       -0.6871316     1.0217828     0.0000010
  C        0.6831640     0.9771070     0.0000100
  N        1.0743100    -0.3422210    -0.0000140
  C        0.0027860    -1.1465230     0.0000170
  N       -1.0726430    -0.3472790    -0.0000090
  H       -2.0345360    -0.6815610    -0.0000170
  H        2.0378550    -0.6719290    -0.0000370
  H       -1.3988240     1.7865140    -0.0000060
  H        1.3901120     1.7931810     0.0000240
  H        0.0051580    -2.2268060     0.0000310
units angstrom
no_reorient  #important for SAPT in psi4, default
symmetry c1  #important for SAPT in psi4, default
}

set PROPERTIES_ORIGIN ["COM"]
properties('MP2/aug-cc-pvtz', properties = ['dipole'])
--------------------------------------------------------------------------

    Molecular point group: c1
  Charge       = 1
  Multiplicity = 1
  Basis Set: AUG-CC-PVTZ
    Blend: AUG-CC-PVTZ
  Basis Set: (AUG-CC-PVTZ AUX)
    Blend: AUG-CC-PVTZ-JKFIT

    Orbital Energies [Eh]
    ---------------------

    Doubly Occupied:

       1A    -15.851728     2A    -15.850502     3A    -11.557838
       4A    -11.480143     5A    -11.478122     6A     -1.586461
       7A     -1.424616     8A     -1.246521     9A     -1.093719
      10A     -1.045141    11A     -0.993337    12A     -0.892041
      13A     -0.836951    14A     -0.835244    15A     -0.828953
      16A     -0.800448    17A     -0.661586    18A     -0.546948

  @DF-RHF Final Energy:  -225.27417601326195

   => Energetics <=

    Nuclear Repulsion Energy =            171.9642641563098380
    One-Electron Energy =                -636.4562831769028435
    Two-Electron Energy =                 239.2178430073310835
    Total Energy =                       -225.2741760132619504
  Basis Set: (AUG-CC-PVTZ AUX)
    Blend: AUG-CC-PVTZ-RI
    Molecular point group: c1

    Geometry (in Angstrom), charge = 1, multiplicity = 1:

       Center              X                  Y                   Z               Mass
    ------------   -----------------  -----------------  -----------------  -----------------
         C           -0.687260893217     1.013488584555     0.000000871241    12.000000000000
         C            0.683034706783     0.968812784555     0.000009871241    12.000000000000
         N            1.074180706783    -0.350515215445    -0.000014128759    14.003074004430
         C            0.002656706783    -1.154817215445     0.000016871241    12.000000000000
         N           -1.072772293217    -0.355573215445    -0.000009128759    14.003074004430
         H           -2.034665293217    -0.689855215445    -0.000017128759     1.007825032230
         H            2.037725706783    -0.680223215445    -0.000037128759     1.007825032230
         H           -1.398953293217     1.778219784555    -0.000006128759     1.007825032230
         H            1.389982706783     1.784886784555     0.000023871241     1.007825032230
         H            0.005028706783    -2.235100215445     0.000030871241     1.007825032230

  Basis Set: AUG-CC-PVTZ
    Blend: AUG-CC-PVTZ
  Basis Set: (AUG-CC-PVTZ AUX)
    Blend: AUG-CC-PVTZ-JKFIT
	 Reference Energy          =    -225.2741760132619504 [Eh]
	 Singles Energy            =      -0.0000000000000000 [Eh]
	 Same-Spin Energy          =      -0.2355635530912660 [Eh]
	 Opposite-Spin Energy      =      -0.7377380516766688 [Eh]
	 Correlation Energy        =      -0.9733016047679348 [Eh]
	 Total Energy              =    -226.2474776180298761 [Eh]

	 ================> DF-SCS-MP2 Energies <==================
	-----------------------------------------------------------
	 SCS Same-Spin Scale       =       0.3333333333333333 [-]
	 SCS Opposite-Spin Scale   =       1.2000000000000000 [-]
	 SCS Same-Spin Energy      =      -0.0785211843637553 [Eh]
	 SCS Opposite-Spin Energy  =      -0.8852856620120025 [Eh]
	 SCS Correlation Energy    =      -0.9638068463757579 [Eh]
	 SCS Total Energy          =    -226.2379828596376967 [Eh]
	-----------------------------------------------------------

  Dipole Moment: [D]
     X:     0.0310      Y:    -1.2984      Z:    -0.0000     Total:     1.2987

*** Psi4 exiting successfully. Buy a developer a beer!
