                               Psi4 1.4a3.dev225

  ==> Input File <==

--------------------------------------------------------------------------
#psi4
#
memory 32 gb

molecule  {
1 1
  C       -0.6853300     0.9742120     0.0000000
  C        0.6853300     0.9742120     0.0000080
  N        1.0731610    -0.3445600    -0.0000120
  C        0.0000000    -1.1430630     0.0000130
  N       -1.0731610    -0.3445590    -0.0000060
  H       -2.0346060    -0.6777470    -0.0000120
  H        2.0346050    -0.6777480    -0.0000220
  H       -1.3967670     1.7843860    -0.0000010
  H        1.3967670     1.7843860     0.0000130
  H       -0.0000010    -2.1716150     0.0000197
units angstrom
no_reorient  #important for SAPT in psi4, default
symmetry c1  #important for SAPT in psi4, default
}

set PROPERTIES_ORIGIN ["COM"]
properties('MP2/aug-cc-pvtz', properties = ['dipole'])
--------------------------------------------------------------------------

    Molecular point group: c1
  Charge       = 1
  Multiplicity = 1
  Basis Set: AUG-CC-PVTZ
    Blend: AUG-CC-PVTZ
  Basis Set: (AUG-CC-PVTZ AUX)
    Blend: AUG-CC-PVTZ-JKFIT

    Orbital Energies [Eh]
    ---------------------

    Doubly Occupied:

       1A    -15.852727     2A    -15.852693     3A    -11.549671
       4A    -11.477729     5A    -11.476305     6A     -1.595487
       7A     -1.433366     8A     -1.249182     9A     -1.099678
      10A     -1.047730    11A     -1.002697    12A     -0.897287
      13A     -0.845083    14A     -0.842939    15A     -0.818025
      16A     -0.805410    17A     -0.667379    18A     -0.544154

  @DF-RHF Final Energy:  -225.27630024735652

   => Energetics <=

    Nuclear Repulsion Energy =            173.1722797112902015
    One-Electron Energy =                -638.7820750344155840
    Two-Electron Energy =                 240.3334950757688375
    Total Energy =                       -225.2763002473565166
  Basis Set: (AUG-CC-PVTZ AUX)
    Blend: AUG-CC-PVTZ-RI
    Molecular point group: c1

    Geometry (in Angstrom), charge = 1, multiplicity = 1:

       Center              X                  Y                   Z               Mass
    ------------   -----------------  -----------------  -----------------  -----------------
         C           -0.685329970807     0.973393179985     0.000000034374    12.000000000000
         C            0.685330029193     0.973393179985     0.000008034374    12.000000000000
         N            1.073161029193    -0.345378820015    -0.000011965626    14.003074004430
         C            0.000000029193    -1.143881820015     0.000013034374    12.000000000000
         N           -1.073160970807    -0.345377820015    -0.000005965626    14.003074004430
         H           -2.034605970807    -0.678565820015    -0.000011965626     1.007825032230
         H            2.034605029193    -0.678566820015    -0.000021965626     1.007825032230
         H           -1.396766970807     1.783567179985    -0.000000965626     1.007825032230
         H            1.396767029193     1.783567179985     0.000013034374     1.007825032230
         H           -0.000000970807    -2.172433820015     0.000019734374     1.007825032230

  Basis Set: AUG-CC-PVTZ
    Blend: AUG-CC-PVTZ
  Basis Set: (AUG-CC-PVTZ AUX)
    Blend: AUG-CC-PVTZ-JKFIT
	 Reference Energy          =    -225.2763002473565166 [Eh]
	 Singles Energy            =      -0.0000000000000000 [Eh]
	 Same-Spin Energy          =      -0.2359669981092379 [Eh]
	 Opposite-Spin Energy      =      -0.7371618756818054 [Eh]
	 Correlation Energy        =      -0.9731288737910433 [Eh]
	 Total Energy              =    -226.2494291211475570 [Eh]

	 ================> DF-SCS-MP2 Energies <==================
	-----------------------------------------------------------
	 SCS Same-Spin Scale       =       0.3333333333333333 [-]
	 SCS Opposite-Spin Scale   =       1.2000000000000000 [-]
	 SCS Same-Spin Energy      =      -0.0786556660364126 [Eh]
	 SCS Opposite-Spin Energy  =      -0.8845942508181664 [Eh]
	 SCS Correlation Energy    =      -0.9632499168545791 [Eh]
	 SCS Total Energy          =    -226.2395501642110958 [Eh]
	-----------------------------------------------------------

  Dipole Moment: [D]
     X:    -0.0000      Y:    -1.2257      Z:    -0.0000     Total:     1.2257

*** Psi4 exiting successfully. Buy a developer a beer!
