                               Psi4 1.3.2 release

  ==> Input File <==

--------------------------------------------------------------------------
#psi4
#
memory 32 gb

molecule  {
1 1
  C       -0.6878560     0.9739330     0.0000000
  C        0.6831640     0.9771070     0.0000100
  N        1.0743100    -0.3422210    -0.0000140
  C        0.0027860    -1.1465230     0.0000170
  N       -1.0726430    -0.3472790    -0.0000090
  H       -2.0345360    -0.6815610    -0.0000170
  H        2.0378550    -0.6719290    -0.0000370
  H       -1.3988240     1.7865140    -0.0000060
  H        1.2591593     1.6420142     0.0000214
  H        0.0051580    -2.2268060     0.0000310
units angstrom
no_reorient  #important for SAPT in psi4, default
symmetry c1  #important for SAPT in psi4, default
}

set PROPERTIES_ORIGIN ["COM"]
properties('MP2/aug-cc-pvtz', properties = ['dipole'])
--------------------------------------------------------------------------

    Molecular point group: c1
  Charge       = 1
  Multiplicity = 1
  Basis Set: AUG-CC-PVTZ
    Blend: AUG-CC-PVTZ
  Basis Set: (AUG-CC-PVTZ AUX)
    Blend: AUG-CC-PVTZ-JKFIT

    Orbital Energies [Eh]
    ---------------------

    Doubly Occupied:

       1A    -15.853210     2A    -15.853009     3A    -11.555765
       4A    -11.478435     5A    -11.457849     6A     -1.594195
       7A     -1.433254     8A     -1.254871     9A     -1.097999
      10A     -1.069497    11A     -1.004852    12A     -0.896504
      13A     -0.861963    14A     -0.842267    15A     -0.834481
      16A     -0.808996    17A     -0.667287    18A     -0.545162

  @DF-RHF Final Energy:  -225.24006129197568

   => Energetics <=

    Nuclear Repulsion Energy =            173.8216885866838197
    One-Electron Energy =                -639.9043099997868467
    Two-Electron Energy =                 240.8425601211273488
    Total Energy =                       -225.2400612919756782
  Basis Set: (AUG-CC-PVTZ AUX)
    Blend: AUG-CC-PVTZ-RI
    Molecular point group: c1

    Geometry (in Angstrom), charge = 1, multiplicity = 1:

       Center              X                  Y                   Z               Mass
    ------------   -----------------  -----------------  -----------------  -----------------
         C           -0.685947931315     0.976161551020     0.000000082992    12.000000000000
         C            0.685072068685     0.979335551020     0.000010082992    12.000000000000
         N            1.076218068685    -0.339992448980    -0.000013917008    14.003074004430
         C            0.004694068685    -1.144294448980     0.000017082992    12.000000000000
         N           -1.070734931315    -0.345050448980    -0.000008917008    14.003074004430
         H           -2.032627931315    -0.679332448980    -0.000016917008     1.007825032230
         H            2.039763068685    -0.669700448980    -0.000036917008     1.007825032230
         H           -1.396915931315     1.788742551020    -0.000005917008     1.007825032230
         H            1.261067368685     1.644242751020     0.000021482992     1.007825032230
         H            0.007066068685    -2.224577448980     0.000031082992     1.007825032230

  Basis Set: AUG-CC-PVTZ
    Blend: AUG-CC-PVTZ
  Basis Set: (AUG-CC-PVTZ AUX)
    Blend: AUG-CC-PVTZ-JKFIT
	 Reference Energy          =    -225.2400612919756782 [Eh]
	 Singles Energy            =      -0.0000000000000000 [Eh]
	 Same-Spin Energy          =      -0.2358579201806190 [Eh]
	 Opposite-Spin Energy      =      -0.7372169542229692 [Eh]
	 Correlation Energy        =      -0.9730748744035882 [Eh]
	 Total Energy              =    -226.2131361663792575 [Eh]

	 ================> DF-SCS-MP2 Energies <==================
	-----------------------------------------------------------
	 SCS Same-Spin Scale       =       0.3333333333333333 [-]
	 SCS Opposite-Spin Scale   =       1.2000000000000000 [-]
	 SCS Same-Spin Energy      =      -0.0786193067268730 [Eh]
	 SCS Opposite-Spin Energy  =      -0.8846603450675630 [Eh]
	 SCS Correlation Energy    =      -0.9632796517944360 [Eh]
	 SCS Total Energy          =    -226.2033409437701152 [Eh]
	-----------------------------------------------------------

  Dipole Moment: [D]
     X:    -0.1059      Y:    -1.3986      Z:    -0.0000     Total:     1.4026

*** Psi4 exiting successfully. Buy a developer a beer!
