                               Psi4 1.3.2 release

  ==> Input File <==

--------------------------------------------------------------------------
#psi4
#
memory 32 gb

molecule  {
1 1
  C       -0.6878560     0.9739330     0.0000000
  C        0.6831640     0.9771070     0.0000100
  N        1.0743100    -0.3422210    -0.0000140
  C        0.0027860    -1.1465230     0.0000170
  N       -1.0726430    -0.3472790    -0.0000090
  H       -2.0345360    -0.6815610    -0.0000170
  H        1.8486267    -0.6071784    -0.0000325
  H       -1.3988240     1.7865140    -0.0000060
  H        1.3901120     1.7931810     0.0000240
  H        0.0051580    -2.2268060     0.0000310
units angstrom
no_reorient  #important for SAPT in psi4, default
symmetry c1  #important for SAPT in psi4, default
}

set PROPERTIES_ORIGIN ["COM"]
properties('MP2/aug-cc-pvtz', properties = ['dipole'])
--------------------------------------------------------------------------

    Molecular point group: c1
  Charge       = 1
  Multiplicity = 1
  Basis Set: AUG-CC-PVTZ
    Blend: AUG-CC-PVTZ
  Basis Set: (AUG-CC-PVTZ AUX)
    Blend: AUG-CC-PVTZ-JKFIT

    Orbital Energies [Eh]
    ---------------------

    Doubly Occupied:

       1A    -15.856215     2A    -15.836616     3A    -11.559356
       4A    -11.480535     5A    -11.479087     6A     -1.605136
       7A     -1.458090     8A     -1.252028     9A     -1.143381
      10A     -1.053178    11A     -0.998691    12A     -0.924327
      13A     -0.846288    14A     -0.841754    15A     -0.820520
      16A     -0.810480    17A     -0.672863    18A     -0.546685

  @DF-RHF Final Energy:  -225.23395576414202

   => Energetics <=

    Nuclear Repulsion Energy =            174.0457325288504364
    One-Electron Energy =                -640.1889156303269601
    Two-Electron Energy =                 240.9092273373345279
    Total Energy =                       -225.2339557641420242
  Basis Set: (AUG-CC-PVTZ AUX)
    Blend: AUG-CC-PVTZ-RI
    Molecular point group: c1

    Geometry (in Angstrom), charge = 1, multiplicity = 1:

       Center              X                  Y                   Z               Mass
    ------------   -----------------  -----------------  -----------------  -----------------
         C           -0.685097306706     0.973009894859    -0.000000020644    12.000000000000
         C            0.685922693294     0.976183894859     0.000009979356    12.000000000000
         N            1.077068693294    -0.343144105141    -0.000014020644    14.003074004430
         C            0.005544693294    -1.147446105141     0.000016979356    12.000000000000
         N           -1.069884306706    -0.348202105141    -0.000009020644    14.003074004430
         H           -2.031777306706    -0.682484105141    -0.000017020644     1.007825032230
         H            1.851385393294    -0.608101505141    -0.000032520644     1.007825032230
         H           -1.396065306706     1.785590894859    -0.000006020644     1.007825032230
         H            1.392870693294     1.792257894859     0.000023979356     1.007825032230
         H            0.007916693294    -2.227729105141     0.000030979356     1.007825032230

  Basis Set: AUG-CC-PVTZ
    Blend: AUG-CC-PVTZ
  Basis Set: (AUG-CC-PVTZ AUX)
    Blend: AUG-CC-PVTZ-JKFIT
	 Reference Energy          =    -225.2339557641420242 [Eh]
	 Singles Energy            =      -0.0000000000000000 [Eh]
	 Same-Spin Energy          =      -0.2347990647330650 [Eh]
	 Opposite-Spin Energy      =      -0.7351610475992212 [Eh]
	 Correlation Energy        =      -0.9699601123322862 [Eh]
	 Total Energy              =    -226.2039158764742979 [Eh]

	 ================> DF-SCS-MP2 Energies <==================
	-----------------------------------------------------------
	 SCS Same-Spin Scale       =       0.3333333333333333 [-]
	 SCS Opposite-Spin Scale   =       1.2000000000000000 [-]
	 SCS Same-Spin Energy      =      -0.0782663549110217 [Eh]
	 SCS Opposite-Spin Energy  =      -0.8821932571190654 [Eh]
	 SCS Correlation Energy    =      -0.9604596120300870 [Eh]
	 SCS Total Energy          =    -226.1944153761721168 [Eh]
	-----------------------------------------------------------

  Dipole Moment: [D]
     X:    -0.3708      Y:    -1.1657      Z:    -0.0000     Total:     1.2232

*** Psi4 exiting successfully. Buy a developer a beer!
