                               Psi4 1.3.2 release

  ==> Input File <==

--------------------------------------------------------------------------
#psi4
#
memory 32 gb

molecule  {
1 1
  C       -0.6878560     0.9739330     0.0000000
  C        0.6831640     0.9771070     0.0000100
  N        1.0743100    -0.3422210    -0.0000140
  C        0.0027860    -1.1465230     0.0000170
  N       -1.0726430    -0.3472790    -0.0000090
  H       -2.0345360    -0.6815610    -0.0000170
  H        2.0378550    -0.6719290    -0.0000370
  H       -1.3988240     1.7865140    -0.0000060
  H        1.3901120     1.7931810     0.0000240
  H        0.0047189    -2.0268065     0.0000284
units angstrom
no_reorient  #important for SAPT in psi4, default
symmetry c1  #important for SAPT in psi4, default
}

set PROPERTIES_ORIGIN ["COM"]
properties('MP2/aug-cc-pvtz', properties = ['dipole'])
--------------------------------------------------------------------------

    Molecular point group: c1
  Charge       = 1
  Multiplicity = 1
  Basis Set: AUG-CC-PVTZ
    Blend: AUG-CC-PVTZ
  Basis Set: (AUG-CC-PVTZ AUX)
    Blend: AUG-CC-PVTZ-JKFIT

    Orbital Energies [Eh]
    ---------------------

    Doubly Occupied:

       1A    -15.854187     2A    -15.854141     3A    -11.537321
       4A    -11.479192     5A    -11.477771     6A     -1.595391
       7A     -1.433032     8A     -1.259908     9A     -1.108110
      10A     -1.047762    11A     -1.034411    12A     -0.896776
      13A     -0.865204    14A     -0.842990    15A     -0.818895
      16A     -0.805515    17A     -0.667492    18A     -0.545458

  @DF-RHF Final Energy:  -225.23970436312626

   => Energetics <=

    Nuclear Repulsion Energy =            173.8402111317785170
    One-Electron Energy =                -639.9127171154437974
    Two-Electron Energy =                 240.8328016205390156
    Total Energy =                       -225.2397043631262648
  Basis Set: (AUG-CC-PVTZ AUX)
    Blend: AUG-CC-PVTZ-RI
    Molecular point group: c1

    Geometry (in Angstrom), charge = 1, multiplicity = 1:

       Center              X                  Y                   Z               Mass
    ------------   -----------------  -----------------  -----------------  -----------------
         C           -0.687852983856     0.971035723120     0.000000082992    12.000000000000
         C            0.683167016144     0.974209723120     0.000010082992    12.000000000000
         N            1.074313016144    -0.345118276880    -0.000013917008    14.003074004430
         C            0.002789016144    -1.149420276880     0.000017082992    12.000000000000
         N           -1.072639983856    -0.350176276880    -0.000008917008    14.003074004430
         H           -2.034532983856    -0.684458276880    -0.000016917008     1.007825032230
         H            2.037858016144    -0.674826276880    -0.000036917008     1.007825032230
         H           -1.398820983856     1.783616723120    -0.000005917008     1.007825032230
         H            1.390115016144     1.790283723120     0.000024082992     1.007825032230
         H            0.004721916144    -2.029703776880     0.000028482992     1.007825032230

  Basis Set: AUG-CC-PVTZ
    Blend: AUG-CC-PVTZ
  Basis Set: (AUG-CC-PVTZ AUX)
    Blend: AUG-CC-PVTZ-JKFIT
	 Reference Energy          =    -225.2397043631262648 [Eh]
	 Singles Energy            =      -0.0000000000000000 [Eh]
	 Same-Spin Energy          =      -0.2360025619388272 [Eh]
	 Opposite-Spin Energy      =      -0.7374400046405760 [Eh]
	 Correlation Energy        =      -0.9734425665794033 [Eh]
	 Total Energy              =    -226.2131469297056583 [Eh]

	 ================> DF-SCS-MP2 Energies <==================
	-----------------------------------------------------------
	 SCS Same-Spin Scale       =       0.3333333333333333 [-]
	 SCS Opposite-Spin Scale   =       1.2000000000000000 [-]
	 SCS Same-Spin Energy      =      -0.0786675206462757 [Eh]
	 SCS Opposite-Spin Energy  =      -0.8849280055686912 [Eh]
	 SCS Correlation Energy    =      -0.9635955262149669 [Eh]
	 SCS Total Energy          =    -226.2032998893412241 [Eh]
	-----------------------------------------------------------

  Dipole Moment: [D]
     X:     0.0027      Y:    -1.0623      Z:    -0.0000     Total:     1.0623

*** Psi4 exiting successfully. Buy a developer a beer!
