                               Psi4 1.3.2 release

  ==> Input File <==

--------------------------------------------------------------------------
#psi4
#
memory 32 gb

molecule  {
1 1
  C       -0.6875918     0.9500059    -0.0000005
  C        0.6831640     0.9771070     0.0000100
  N        1.0743100    -0.3422210    -0.0000140
  C        0.0027860    -1.1465230     0.0000170
  N       -1.0726430    -0.3472790    -0.0000090
  H       -2.0345360    -0.6815610    -0.0000170
  H        2.0378550    -0.6719290    -0.0000370
  H       -1.3988240     1.7865140    -0.0000060
  H        1.3901120     1.7931810     0.0000240
  H        0.0051580    -2.2268060     0.0000310
units angstrom
no_reorient  #important for SAPT in psi4, default
symmetry c1  #important for SAPT in psi4, default
}

set PROPERTIES_ORIGIN ["COM"]
properties('MP2/aug-cc-pvtz', properties = ['dipole'])
--------------------------------------------------------------------------

    Molecular point group: c1
  Charge       = 1
  Multiplicity = 1
  Basis Set: AUG-CC-PVTZ
    Blend: AUG-CC-PVTZ
  Basis Set: (AUG-CC-PVTZ AUX)
    Blend: AUG-CC-PVTZ-JKFIT

    Orbital Energies [Eh]
    ---------------------

    Doubly Occupied:

       1A    -15.853326     2A    -15.852964     3A    -11.553219
       4A    -11.476792     5A    -11.475182     6A     -1.597500
       7A     -1.435508     8A     -1.245888     9A     -1.099085
      10A     -1.047423    11A     -0.991688    12A     -0.897686
      13A     -0.844132    14A     -0.837921    15A     -0.817694
      16A     -0.798470    17A     -0.669051    18A     -0.541873

  @DF-RHF Final Energy:  -225.27602002751843

   => Energetics <=

    Nuclear Repulsion Energy =            173.1224284793723598
    One-Electron Energy =                -638.7260922231207587
    Two-Electron Energy =                 240.3276437162299430
    Total Energy =                       -225.2760200275184275
  Basis Set: (AUG-CC-PVTZ AUX)
    Blend: AUG-CC-PVTZ-RI
    Molecular point group: c1

    Geometry (in Angstrom), charge = 1, multiplicity = 1:

       Center              X                  Y                   Z               Mass
    ------------   -----------------  -----------------  -----------------  -----------------
         C           -0.687641110913     0.954186438589    -0.000000368060    12.000000000000
         C            0.683114689087     0.981287538589     0.000010131940    12.000000000000
         N            1.074260689087    -0.338040461411    -0.000013868060    14.003074004430
         C            0.002736689087    -1.142342461411     0.000017131940    12.000000000000
         N           -1.072692310913    -0.343098461411    -0.000008868060    14.003074004430
         H           -2.034585310913    -0.677380461411    -0.000016868060     1.007825032230
         H            2.037805689087    -0.667748461411    -0.000036868060     1.007825032230
         H           -1.398873310913     1.790694538589    -0.000005868060     1.007825032230
         H            1.390062689087     1.797361538589     0.000024131940     1.007825032230
         H            0.005108689087    -2.222625461411     0.000031131940     1.007825032230

  Basis Set: AUG-CC-PVTZ
    Blend: AUG-CC-PVTZ
  Basis Set: (AUG-CC-PVTZ AUX)
    Blend: AUG-CC-PVTZ-JKFIT
	 Reference Energy          =    -225.2760200275184275 [Eh]
	 Singles Energy            =      -0.0000000000000000 [Eh]
	 Same-Spin Energy          =      -0.2364071344717990 [Eh]
	 Opposite-Spin Energy      =      -0.7376808181891533 [Eh]
	 Correlation Energy        =      -0.9740879526609523 [Eh]
	 Total Energy              =    -226.2501079801793935 [Eh]

	 ================> DF-SCS-MP2 Energies <==================
	-----------------------------------------------------------
	 SCS Same-Spin Scale       =       0.3333333333333333 [-]
	 SCS Opposite-Spin Scale   =       1.2000000000000000 [-]
	 SCS Same-Spin Energy      =      -0.0788023781572663 [Eh]
	 SCS Opposite-Spin Energy  =      -0.8852169818269839 [Eh]
	 SCS Correlation Energy    =      -0.9640193599842503 [Eh]
	 SCS Total Energy          =    -226.2400393875026907 [Eh]
	-----------------------------------------------------------

  Dipole Moment: [D]
     X:    -0.0118      Y:    -1.2549      Z:    -0.0000     Total:     1.2550

*** Psi4 exiting successfully. Buy a developer a beer!
