                               Psi4 1.3.2 release

  ==> Input File <==

--------------------------------------------------------------------------
#psi4
#
memory 32 gb

molecule  {
1 1
  C       -0.6878560     0.9739330     0.0000000
  C        0.6601981     0.9700796     0.0000107
  N        1.0743100    -0.3422210    -0.0000140
  C        0.0027860    -1.1465230     0.0000170
  N       -1.0726430    -0.3472790    -0.0000090
  H       -2.0345360    -0.6815610    -0.0000170
  H        2.0378550    -0.6719290    -0.0000370
  H       -1.3988240     1.7865140    -0.0000060
  H        1.3901120     1.7931810     0.0000240
  H        0.0051580    -2.2268060     0.0000310
units angstrom
no_reorient  #important for SAPT in psi4, default
symmetry c1  #important for SAPT in psi4, default
}

set PROPERTIES_ORIGIN ["COM"]
properties('MP2/aug-cc-pvtz', properties = ['dipole'])
--------------------------------------------------------------------------

    Molecular point group: c1
  Charge       = 1
  Multiplicity = 1
  Basis Set: AUG-CC-PVTZ
    Blend: AUG-CC-PVTZ
  Basis Set: (AUG-CC-PVTZ AUX)
    Blend: AUG-CC-PVTZ-JKFIT

    Orbital Energies [Eh]
    ---------------------

    Doubly Occupied:

       1A    -15.851520     2A    -15.851379     3A    -11.555694
       4A    -11.475279     5A    -11.473125     6A     -1.594906
       7A     -1.431076     8A     -1.249566     9A     -1.097998
      10A     -1.043729    11A     -0.992936    12A     -0.895742
      13A     -0.842620    14A     -0.836826    15A     -0.813697
      16A     -0.803813    17A     -0.665818    18A     -0.547817

  @DF-RHF Final Energy:  -225.27713804628820

   => Energetics <=

    Nuclear Repulsion Energy =            173.0805334280813952
    One-Electron Energy =                -638.6682647046220609
    Two-Electron Energy =                 240.3105932302524934
    Total Energy =                       -225.2771380462882007
  Basis Set: (AUG-CC-PVTZ AUX)
    Blend: AUG-CC-PVTZ-RI
    Molecular point group: c1

    Geometry (in Angstrom), charge = 1, multiplicity = 1:

       Center              X                  Y                   Z               Mass
    ------------   -----------------  -----------------  -----------------  -----------------
         C           -0.683867942572     0.975176387490    -0.000000076619    12.000000000000
         C            0.664186157428     0.971322987490     0.000010623381    12.000000000000
         N            1.078298057428    -0.340977612510    -0.000014076619    14.003074004430
         C            0.006774057428    -1.145279612510     0.000016923381    12.000000000000
         N           -1.068654942572    -0.346035612510    -0.000009076619    14.003074004430
         H           -2.030547942572    -0.680317612510    -0.000017076619     1.007825032230
         H            2.041843057428    -0.670685612510    -0.000037076619     1.007825032230
         H           -1.394835942572     1.787757387490    -0.000006076619     1.007825032230
         H            1.394100057428     1.794424387490     0.000023923381     1.007825032230
         H            0.009146057428    -2.225562612510     0.000030923381     1.007825032230

  Basis Set: AUG-CC-PVTZ
    Blend: AUG-CC-PVTZ
  Basis Set: (AUG-CC-PVTZ AUX)
    Blend: AUG-CC-PVTZ-JKFIT
	 Reference Energy          =    -225.2771380462882007 [Eh]
	 Singles Energy            =      -0.0000000000000000 [Eh]
	 Same-Spin Energy          =      -0.2357809956879718 [Eh]
	 Opposite-Spin Energy      =      -0.7369851300658179 [Eh]
	 Correlation Energy        =      -0.9727661257537897 [Eh]
	 Total Energy              =    -226.2499041720419939 [Eh]

	 ================> DF-SCS-MP2 Energies <==================
	-----------------------------------------------------------
	 SCS Same-Spin Scale       =       0.3333333333333333 [-]
	 SCS Opposite-Spin Scale   =       1.2000000000000000 [-]
	 SCS Same-Spin Energy      =      -0.0785936652293239 [Eh]
	 SCS Opposite-Spin Energy  =      -0.8843821560789814 [Eh]
	 SCS Correlation Energy    =      -0.9629758213083054 [Eh]
	 SCS Total Energy          =    -226.2401138675965058 [Eh]
	-----------------------------------------------------------

  Dipole Moment: [D]
     X:     0.0150      Y:    -1.2787      Z:    -0.0000     Total:     1.2788

*** Psi4 exiting successfully. Buy a developer a beer!
