                               Psi4 1.3.2 release

  ==> Input File <==

--------------------------------------------------------------------------
#psi4
#
memory 32 gb

molecule  {
1 1
  C       -0.6878560     0.9739330     0.0000000
  C        0.6831640     0.9771070     0.0000100
  N        1.0743100    -0.3422210    -0.0000140
  C        0.0027860    -1.1465230     0.0000170
  N       -1.0726430    -0.3472790    -0.0000090
  H       -2.0345360    -0.6815610    -0.0000170
  H        1.9432408    -0.6395537    -0.0000347
  H       -1.3988240     1.7865140    -0.0000060
  H        1.3901120     1.7931810     0.0000240
  H        0.0051580    -2.2268060     0.0000310
units angstrom
no_reorient  #important for SAPT in psi4, default
symmetry c1  #important for SAPT in psi4, default
}

set PROPERTIES_ORIGIN ["COM"]
properties('MP2/aug-cc-pvtz', properties = ['dipole'])
--------------------------------------------------------------------------

    Molecular point group: c1
  Charge       = 1
  Multiplicity = 1
  Basis Set: AUG-CC-PVTZ
    Blend: AUG-CC-PVTZ
  Basis Set: (AUG-CC-PVTZ AUX)
    Blend: AUG-CC-PVTZ-JKFIT

    Orbital Energies [Eh]
    ---------------------

    Doubly Occupied:

       1A    -15.854381     2A    -15.845329     3A    -11.557083
       4A    -11.479117     5A    -11.477692     6A     -1.598422
       7A     -1.443204     8A     -1.248848     9A     -1.118031
      10A     -1.049909    11A     -0.995762    12A     -0.911212
      13A     -0.843914    14A     -0.839403    15A     -0.818928
      16A     -0.807704    17A     -0.669651    18A     -0.545171

  @DF-RHF Final Energy:  -225.27080730086712

   => Energetics <=

    Nuclear Repulsion Energy =            173.3304261722357182
    One-Electron Energy =                -638.9949491728024213
    Two-Electron Energy =                 240.3937156996995839
    Total Energy =                       -225.2708073008671192
  Basis Set: (AUG-CC-PVTZ AUX)
    Blend: AUG-CC-PVTZ-RI
    Molecular point group: c1

    Geometry (in Angstrom), charge = 1, multiplicity = 1:

       Center              X                  Y                   Z               Mass
    ------------   -----------------  -----------------  -----------------  -----------------
         C           -0.686478349231     0.973482463599     0.000000011468    12.000000000000
         C            0.684541650769     0.976656463599     0.000010011468    12.000000000000
         N            1.075687650769    -0.342671536401    -0.000013988532    14.003074004430
         C            0.004163650769    -1.146973536401     0.000017011468    12.000000000000
         N           -1.071265349231    -0.347729536401    -0.000008988532    14.003074004430
         H           -2.033158349231    -0.682011536401    -0.000016988532     1.007825032230
         H            1.944618450769    -0.640004236401    -0.000034688532     1.007825032230
         H           -1.397446349231     1.786063463599    -0.000005988532     1.007825032230
         H            1.391489650769     1.792730463599     0.000024011468     1.007825032230
         H            0.006535650769    -2.227256536401     0.000031011468     1.007825032230

  Basis Set: AUG-CC-PVTZ
    Blend: AUG-CC-PVTZ
  Basis Set: (AUG-CC-PVTZ AUX)
    Blend: AUG-CC-PVTZ-JKFIT
	 Reference Energy          =    -225.2708073008671192 [Eh]
	 Singles Energy            =      -0.0000000000000000 [Eh]
	 Same-Spin Energy          =      -0.2353831902750577 [Eh]
	 Opposite-Spin Energy      =      -0.7361359002151869 [Eh]
	 Correlation Energy        =      -0.9715190904902447 [Eh]
	 Total Energy              =    -226.2423263913573521 [Eh]

	 ================> DF-SCS-MP2 Energies <==================
	-----------------------------------------------------------
	 SCS Same-Spin Scale       =       0.3333333333333333 [-]
	 SCS Opposite-Spin Scale   =       1.2000000000000000 [-]
	 SCS Same-Spin Energy      =      -0.0784610634250192 [Eh]
	 SCS Opposite-Spin Energy  =      -0.8833630802582243 [Eh]
	 SCS Correlation Energy    =      -0.9618241436832435 [Eh]
	 SCS Total Energy          =    -226.2326314445503499 [Eh]
	-----------------------------------------------------------

  Dipole Moment: [D]
     X:    -0.1905      Y:    -1.2155      Z:    -0.0000     Total:     1.2303

*** Psi4 exiting successfully. Buy a developer a beer!
