                               Psi4 1.3.2 release

  ==> Input File <==

--------------------------------------------------------------------------
#psi4
#
memory 32 gb

molecule  {
1 1
  C       -0.6800136     0.8306398    -0.0000029
  C        0.6831640     0.9771070     0.0000100
  N        1.0743100    -0.3422210    -0.0000140
  C        0.0027860    -1.1465230     0.0000170
  N       -1.0726430    -0.3472790    -0.0000090
  H       -2.0345360    -0.6815610    -0.0000170
  H        2.0378550    -0.6719290    -0.0000370
  H       -1.3988240     1.7865140    -0.0000060
  H        1.3901120     1.7931810     0.0000240
  H        0.0051580    -2.2268060     0.0000310
units angstrom
no_reorient  #important for SAPT in psi4, default
symmetry c1  #important for SAPT in psi4, default
}

set PROPERTIES_ORIGIN ["COM"]
properties('MP2/aug-cc-pvtz', properties = ['dipole'])
--------------------------------------------------------------------------

    Molecular point group: c1
  Charge       = 1
  Multiplicity = 1
  Basis Set: AUG-CC-PVTZ
    Blend: AUG-CC-PVTZ
  Basis Set: (AUG-CC-PVTZ AUX)
    Blend: AUG-CC-PVTZ-JKFIT

    Orbital Energies [Eh]
    ---------------------

    Doubly Occupied:

       1A    -15.856301     2A    -15.855741     3A    -11.544712
       4A    -11.475202     5A    -11.470162     6A     -1.624296
       7A     -1.455234     8A     -1.244698     9A     -1.111161
      10A     -1.061001    11A     -0.984207    12A     -0.909404
      13A     -0.861023    14A     -0.846987    15A     -0.825428
      16A     -0.752461    17A     -0.682851    18A     -0.533631

  @DF-RHF Final Energy:  -225.24515394244077

   => Energetics <=

    Nuclear Repulsion Energy =            175.2945397970429724
    One-Electron Energy =                -642.8903851356302539
    Two-Electron Energy =                 242.3506913961465443
    Total Energy =                       -225.2451539424407656
  Basis Set: (AUG-CC-PVTZ AUX)
    Blend: AUG-CC-PVTZ-RI
    Molecular point group: c1

    Geometry (in Angstrom), charge = 1, multiplicity = 1:

       Center              X                  Y                   Z               Mass
    ------------   -----------------  -----------------  -----------------  -----------------
         C           -0.681379994558     0.855566048386    -0.000002350942    12.000000000000
         C            0.681797605442     1.002033248386     0.000010549058    12.000000000000
         N            1.072943605442    -0.317294751614    -0.000013450942    14.003074004430
         C            0.001419605442    -1.121596751614     0.000017549058    12.000000000000
         N           -1.074009394558    -0.322352751614    -0.000008450942    14.003074004430
         H           -2.035902394558    -0.656634751614    -0.000016450942     1.007825032230
         H            2.036488605442    -0.647002751614    -0.000036450942     1.007825032230
         H           -1.400190394558     1.811440248386    -0.000005450942     1.007825032230
         H            1.388745605442     1.818107248386     0.000024549058     1.007825032230
         H            0.003791605442    -2.201879751614     0.000031549058     1.007825032230

  Basis Set: AUG-CC-PVTZ
    Blend: AUG-CC-PVTZ
  Basis Set: (AUG-CC-PVTZ AUX)
    Blend: AUG-CC-PVTZ-JKFIT
	 Reference Energy          =    -225.2451539424407656 [Eh]
	 Singles Energy            =      -0.0000000000000000 [Eh]
	 Same-Spin Energy          =      -0.2381842053030798 [Eh]
	 Opposite-Spin Energy      =      -0.7388438521300050 [Eh]
	 Correlation Energy        =      -0.9770280574330849 [Eh]
	 Total Energy              =    -226.2221819998738397 [Eh]

	 ================> DF-SCS-MP2 Energies <==================
	-----------------------------------------------------------
	 SCS Same-Spin Scale       =       0.3333333333333333 [-]
	 SCS Opposite-Spin Scale   =       1.2000000000000000 [-]
	 SCS Same-Spin Energy      =      -0.0793947351010266 [Eh]
	 SCS Opposite-Spin Energy  =      -0.8866126225560060 [Eh]
	 SCS Correlation Energy    =      -0.9660073576570326 [Eh]
	 SCS Total Energy          =    -226.2111613000977854 [Eh]
	-----------------------------------------------------------

  Dipole Moment: [D]
     X:    -0.0963      Y:    -1.1820      Z:    -0.0000     Total:     1.1859

*** Psi4 exiting successfully. Buy a developer a beer!
