                               Psi4 1.4a3.dev225

  ==> Input File <==

--------------------------------------------------------------------------
#psi4
#
memory 32 gb

molecule  {
1 1
  C       -0.6853300     0.9742120     0.0000000
  C        0.6853300     0.9742120     0.0000080
  N        1.0731610    -0.3445600    -0.0000120
  C        0.0000000    -1.1430630     0.0000130
  N       -1.0731610    -0.3445590    -0.0000060
  H       -2.0346060    -0.6777470    -0.0000120
  H        2.0346050    -0.6777480    -0.0000220
  H       -1.3967670     1.7843860    -0.0000010
  H        1.3637752     1.7468155     0.0000128
  H       -0.0000010    -2.2216150     0.0000200
units angstrom
no_reorient  #important for SAPT in psi4, default
symmetry c1  #important for SAPT in psi4, default
}

set PROPERTIES_ORIGIN ["COM"]
properties('MP2/aug-cc-pvtz', properties = ['dipole'])
--------------------------------------------------------------------------

    Molecular point group: c1
  Charge       = 1
  Multiplicity = 1
  Basis Set: AUG-CC-PVTZ
    Blend: AUG-CC-PVTZ
  Basis Set: (AUG-CC-PVTZ AUX)
    Blend: AUG-CC-PVTZ-JKFIT

    Orbital Energies [Eh]
    ---------------------

    Doubly Occupied:

       1A    -15.852507     2A    -15.852414     3A    -11.554114
       4A    -11.477054     5A    -11.471909     6A     -1.595215
       7A     -1.433368     8A     -1.248229     9A     -1.098149
      10A     -1.051329    11A     -0.996179    12A     -0.897217
      13A     -0.842755    14A     -0.838760    15A     -0.825633
      16A     -0.807761    17A     -0.667306    18A     -0.544062

  @DF-RHF Final Energy:  -225.27640901272119

   => Energetics <=

    Nuclear Repulsion Energy =            173.1677106559487811
    One-Electron Energy =                -638.7803189890681779
    Two-Electron Energy =                 240.3361993203982081
    Total Energy =                       -225.2764090127211887
  Basis Set: (AUG-CC-PVTZ AUX)
    Blend: AUG-CC-PVTZ-RI
    Molecular point group: c1

    Geometry (in Angstrom), charge = 1, multiplicity = 1:

       Center              X                  Y                   Z               Mass
    ------------   -----------------  -----------------  -----------------  -----------------
         C           -0.684848403273     0.974671410020     0.000000032914    12.000000000000
         C            0.685811596727     0.974671410020     0.000008032914    12.000000000000
         N            1.073642596727    -0.344100589980    -0.000011967086    14.003074004430
         C            0.000481596727    -1.142603589980     0.000013032914    12.000000000000
         N           -1.072679403273    -0.344099589980    -0.000005967086    14.003074004430
         H           -2.034124403273    -0.677287589980    -0.000011967086     1.007825032230
         H            2.035086596727    -0.677288589980    -0.000021967086     1.007825032230
         H           -1.396285403273     1.784845410020    -0.000000967086     1.007825032230
         H            1.364256796727     1.747274910020     0.000012832914     1.007825032230
         H            0.000480596727    -2.221155589980     0.000020032914     1.007825032230

  Basis Set: AUG-CC-PVTZ
    Blend: AUG-CC-PVTZ
  Basis Set: (AUG-CC-PVTZ AUX)
    Blend: AUG-CC-PVTZ-JKFIT
	 Reference Energy          =    -225.2764090127211887 [Eh]
	 Singles Energy            =      -0.0000000000000000 [Eh]
	 Same-Spin Energy          =      -0.2359393829687609 [Eh]
	 Opposite-Spin Energy      =      -0.7371191641956436 [Eh]
	 Correlation Energy        =      -0.9730585471644045 [Eh]
	 Total Energy              =    -226.2494675598856020 [Eh]

	 ================> DF-SCS-MP2 Energies <==================
	-----------------------------------------------------------
	 SCS Same-Spin Scale       =       0.3333333333333333 [-]
	 SCS Opposite-Spin Scale   =       1.2000000000000000 [-]
	 SCS Same-Spin Energy      =      -0.0786464609895870 [Eh]
	 SCS Opposite-Spin Energy  =      -0.8845429970347723 [Eh]
	 SCS Correlation Energy    =      -0.9631894580243593 [Eh]
	 SCS Total Energy          =    -226.2395984707455341 [Eh]
	-----------------------------------------------------------

  Dipole Moment: [D]
     X:    -0.0282      Y:    -1.3107      Z:    -0.0000     Total:     1.3110

*** Psi4 exiting successfully. Buy a developer a beer!
