                               Psi4 1.3.2 release

  ==> Input File <==

--------------------------------------------------------------------------
#psi4
#
memory 32 gb

molecule  {
1 1
  C       -0.6878560     0.9739330     0.0000000
  C        0.6831640     0.9771070     0.0000100
  N        1.0743100    -0.3422210    -0.0000140
  C        0.0027860    -1.1465230     0.0000170
  N       -1.0726430    -0.3472790    -0.0000090
  H       -2.0345360    -0.6815610    -0.0000170
  H        2.0378550    -0.6719290    -0.0000370
  H       -1.3988240     1.7865140    -0.0000060
  H        1.3901120     1.7931810     0.0000240
  H        0.0053776    -2.3268058     0.0000323
units angstrom
no_reorient  #important for SAPT in psi4, default
symmetry c1  #important for SAPT in psi4, default
}

set PROPERTIES_ORIGIN ["COM"]
properties('MP2/aug-cc-pvtz', properties = ['dipole'])
--------------------------------------------------------------------------

    Molecular point group: c1
  Charge       = 1
  Multiplicity = 1
  Basis Set: AUG-CC-PVTZ
    Blend: AUG-CC-PVTZ
  Basis Set: (AUG-CC-PVTZ AUX)
    Blend: AUG-CC-PVTZ-JKFIT

    Orbital Energies [Eh]
    ---------------------

    Doubly Occupied:

       1A    -15.851813     2A    -15.851767     3A    -11.562379
       4A    -11.476912     5A    -11.475490     6A     -1.592628
       7A     -1.431121     8A     -1.242055     9A     -1.094560
      10A     -1.045276    11A     -0.976432    12A     -0.895146
      13A     -0.840824    14A     -0.817863    15A     -0.816482
      16A     -0.803378    17A     -0.665935    18A     -0.542676

  @DF-RHF Final Energy:  -225.26932061688373

   => Energetics <=

    Nuclear Repulsion Energy =            172.2718191376330026
    One-Electron Energy =                -637.1168088508214851
    Two-Electron Energy =                 239.5756690963047788
    Total Energy =                       -225.2693206168837321
  Basis Set: (AUG-CC-PVTZ AUX)
    Blend: AUG-CC-PVTZ-RI
    Molecular point group: c1

    Geometry (in Angstrom), charge = 1, multiplicity = 1:

       Center              X                  Y                   Z               Mass
    ------------   -----------------  -----------------  -----------------  -----------------
         C           -0.687862598625     0.975414687679     0.000000026065    12.000000000000
         C            0.683157401375     0.978588687679     0.000010026065    12.000000000000
         N            1.074303401375    -0.340739312321    -0.000013973935    14.003074004430
         C            0.002779401375    -1.145041312321     0.000017026065    12.000000000000
         N           -1.072649598625    -0.345797312321    -0.000008973935    14.003074004430
         H           -2.034542598625    -0.680079312321    -0.000016973935     1.007825032230
         H            2.037848401375    -0.670447312321    -0.000036973935     1.007825032230
         H           -1.398830598625     1.787995687679    -0.000005973935     1.007825032230
         H            1.390105401375     1.794662687679     0.000024026065     1.007825032230
         H            0.005371001375    -2.325324112321     0.000032326065     1.007825032230

  Basis Set: AUG-CC-PVTZ
    Blend: AUG-CC-PVTZ
  Basis Set: (AUG-CC-PVTZ AUX)
    Blend: AUG-CC-PVTZ-JKFIT
	 Reference Energy          =    -225.2693206168837321 [Eh]
	 Singles Energy            =      -0.0000000000000000 [Eh]
	 Same-Spin Energy          =      -0.2363384313383102 [Eh]
	 Opposite-Spin Energy      =      -0.7384200606443416 [Eh]
	 Correlation Energy        =      -0.9747584919826517 [Eh]
	 Total Energy              =    -226.2440791088663730 [Eh]

	 ================> DF-SCS-MP2 Energies <==================
	-----------------------------------------------------------
	 SCS Same-Spin Scale       =       0.3333333333333333 [-]
	 SCS Opposite-Spin Scale   =       1.2000000000000000 [-]
	 SCS Same-Spin Energy      =      -0.0787794771127701 [Eh]
	 SCS Opposite-Spin Energy  =      -0.8861040727732099 [Eh]
	 SCS Correlation Energy    =      -0.9648835498859800 [Eh]
	 SCS Total Energy          =    -226.2342041667697004 [Eh]
	-----------------------------------------------------------

  Dipole Moment: [D]
     X:     0.0034      Y:    -1.3801      Z:    -0.0000     Total:     1.3801

*** Psi4 exiting successfully. Buy a developer a beer!
