                               Psi4 1.3.2 release

  ==> Input File <==

--------------------------------------------------------------------------
#psi4
#
memory 32 gb

molecule  {
1 1
  C       -0.6878560     0.9739330     0.0000000
  C        0.6831640     0.9771070     0.0000100
  N        1.0743100    -0.3422210    -0.0000140
  C        0.0027860    -1.1465230     0.0000170
  N       -1.0726430    -0.3472790    -0.0000090
  H       -2.0345360    -0.6815610    -0.0000170
  H        2.0378550    -0.6719290    -0.0000370
  H       -1.3988240     1.7865140    -0.0000060
  H        1.4555883     1.8687644     0.0000253
  H        0.0051580    -2.2268060     0.0000310
units angstrom
no_reorient  #important for SAPT in psi4, default
symmetry c1  #important for SAPT in psi4, default
}

set PROPERTIES_ORIGIN ["COM"]
properties('MP2/aug-cc-pvtz', properties = ['dipole'])
--------------------------------------------------------------------------

    Molecular point group: c1
  Charge       = 1
  Multiplicity = 1
  Basis Set: AUG-CC-PVTZ
    Blend: AUG-CC-PVTZ
  Basis Set: (AUG-CC-PVTZ AUX)
    Blend: AUG-CC-PVTZ-JKFIT

    Orbital Energies [Eh]
    ---------------------

    Doubly Occupied:

       1A    -15.852419     2A    -15.852196     3A    -11.554423
       4A    -11.485458     5A    -11.476373     6A     -1.593169
       7A     -1.431237     8A     -1.243560     9A     -1.096777
      10A     -1.040549    11A     -0.986841    12A     -0.895327
      13A     -0.841231    14A     -0.835326    15A     -0.810625
      16A     -0.785995    17A     -0.666144    18A     -0.542912

  @DF-RHF Final Energy:  -225.26915368204695

   => Energetics <=

    Nuclear Repulsion Energy =            172.2799521911259717
    One-Electron Energy =                -637.1170910532180187
    Two-Electron Energy =                 239.5679851800450990
    Total Energy =                       -225.2691536820469480
  Basis Set: (AUG-CC-PVTZ AUX)
    Blend: AUG-CC-PVTZ-RI
    Molecular point group: c1

    Geometry (in Angstrom), charge = 1, multiplicity = 1:

       Center              X                  Y                   Z               Mass
    ------------   -----------------  -----------------  -----------------  -----------------
         C           -0.688815123436     0.972851772999     0.000000026065    12.000000000000
         C            0.682204876564     0.976025772999     0.000010026065    12.000000000000
         N            1.073350876564    -0.343302227001    -0.000013973935    14.003074004430
         C            0.001826876564    -1.147604227001     0.000017026065    12.000000000000
         N           -1.073602123436    -0.348360227001    -0.000008973935    14.003074004430
         H           -2.035495123436    -0.682642227001    -0.000016973935     1.007825032230
         H            2.036895876564    -0.673010227001    -0.000036973935     1.007825032230
         H           -1.399783123436     1.785432772999    -0.000005973935     1.007825032230
         H            1.454629176564     1.867683172999     0.000025326065     1.007825032230
         H            0.004198876564    -2.227887227001     0.000031026065     1.007825032230

  Basis Set: AUG-CC-PVTZ
    Blend: AUG-CC-PVTZ
  Basis Set: (AUG-CC-PVTZ AUX)
    Blend: AUG-CC-PVTZ-JKFIT
	 Reference Energy          =    -225.2691536820469480 [Eh]
	 Singles Energy            =      -0.0000000000000000 [Eh]
	 Same-Spin Energy          =      -0.2363794045864940 [Eh]
	 Opposite-Spin Energy      =      -0.7384952514350831 [Eh]
	 Correlation Energy        =      -0.9748746560215771 [Eh]
	 Total Energy              =    -226.2440283380685173 [Eh]

	 ================> DF-SCS-MP2 Energies <==================
	-----------------------------------------------------------
	 SCS Same-Spin Scale       =       0.3333333333333333 [-]
	 SCS Opposite-Spin Scale   =       1.2000000000000000 [-]
	 SCS Same-Spin Energy      =      -0.0787931348621647 [Eh]
	 SCS Opposite-Spin Energy  =      -0.8861943017220997 [Eh]
	 SCS Correlation Energy    =      -0.9649874365842643 [Eh]
	 SCS Total Energy          =    -226.2341411186312143 [Eh]
	-----------------------------------------------------------

  Dipole Moment: [D]
     X:     0.0613      Y:    -1.2022      Z:    -0.0000     Total:     1.2038

*** Psi4 exiting successfully. Buy a developer a beer!
