                               Psi4 1.3.2 release

  ==> Input File <==

--------------------------------------------------------------------------
#psi4
#
memory 32 gb

molecule  {
1 1
  C       -0.6878560     0.9739330     0.0000000
  C        0.6831640     0.9771070     0.0000100
  N        1.0601098    -0.3236428    -0.0000146
  C        0.0027860    -1.1465230     0.0000170
  N       -1.0726430    -0.3472790    -0.0000090
  H       -2.0345360    -0.6815610    -0.0000170
  H        2.0378550    -0.6719290    -0.0000370
  H       -1.3988240     1.7865140    -0.0000060
  H        1.3901120     1.7931810     0.0000240
  H        0.0051580    -2.2268060     0.0000310
units angstrom
no_reorient  #important for SAPT in psi4, default
symmetry c1  #important for SAPT in psi4, default
}

set PROPERTIES_ORIGIN ["COM"]
properties('MP2/aug-cc-pvtz', properties = ['dipole'])
--------------------------------------------------------------------------

    Molecular point group: c1
  Charge       = 1
  Multiplicity = 1
  Basis Set: AUG-CC-PVTZ
    Blend: AUG-CC-PVTZ
  Basis Set: (AUG-CC-PVTZ AUX)
    Blend: AUG-CC-PVTZ-JKFIT

    Orbital Energies [Eh]
    ---------------------

    Doubly Occupied:

       1A    -15.853558     2A    -15.852306     3A    -11.552530
       4A    -11.476271     5A    -11.474806     6A     -1.596817
       7A     -1.431927     8A     -1.247473     9A     -1.094088
      10A     -1.047982    11A     -0.992954    12A     -0.889653
      13A     -0.843583    14A     -0.840667    15A     -0.818049
      16A     -0.802200    17A     -0.667318    18A     -0.542237

  @DF-RHF Final Energy:  -225.27530833762432

   => Energetics <=

    Nuclear Repulsion Energy =            173.1190551347710027
    One-Electron Energy =                -638.7398891643942989
    Two-Electron Energy =                 240.3455256919990006
    Total Energy =                       -225.2753083376243239
  Basis Set: (AUG-CC-PVTZ AUX)
    Blend: AUG-CC-PVTZ-RI
    Molecular point group: c1

    Geometry (in Angstrom), charge = 1, multiplicity = 1:

       Center              X                  Y                   Z               Mass
    ------------   -----------------  -----------------  -----------------  -----------------
         C           -0.684979450211     0.970187187018     0.000000166726    12.000000000000
         C            0.686040549789     0.973361187018     0.000010166726    12.000000000000
         N            1.062986349789    -0.327388612982    -0.000014433274    14.003074004430
         C            0.005662549789    -1.150268812982     0.000017166726    12.000000000000
         N           -1.069766450211    -0.351024812982    -0.000008833274    14.003074004430
         H           -2.031659450211    -0.685306812982    -0.000016833274     1.007825032230
         H            2.040731549789    -0.675674812982    -0.000036833274     1.007825032230
         H           -1.395947450211     1.782768187018    -0.000005833274     1.007825032230
         H            1.392988549789     1.789435187018     0.000024166726     1.007825032230
         H            0.008034549789    -2.230551812982     0.000031166726     1.007825032230

  Basis Set: AUG-CC-PVTZ
    Blend: AUG-CC-PVTZ
  Basis Set: (AUG-CC-PVTZ AUX)
    Blend: AUG-CC-PVTZ-JKFIT
	 Reference Energy          =    -225.2753083376243239 [Eh]
	 Singles Energy            =      -0.0000000000000000 [Eh]
	 Same-Spin Energy          =      -0.2366081610826284 [Eh]
	 Opposite-Spin Energy      =      -0.7379948974532009 [Eh]
	 Correlation Energy        =      -0.9746030585358294 [Eh]
	 Total Energy              =    -226.2499113961601438 [Eh]

	 ================> DF-SCS-MP2 Energies <==================
	-----------------------------------------------------------
	 SCS Same-Spin Scale       =       0.3333333333333333 [-]
	 SCS Opposite-Spin Scale   =       1.2000000000000000 [-]
	 SCS Same-Spin Energy      =      -0.0788693870275428 [Eh]
	 SCS Opposite-Spin Energy  =      -0.8855938769438411 [Eh]
	 SCS Correlation Energy    =      -0.9644632639713839 [Eh]
	 SCS Total Energy          =    -226.2397716015957201 [Eh]
	-----------------------------------------------------------

  Dipole Moment: [D]
     X:     0.0564      Y:    -1.2885      Z:    -0.0000     Total:     1.2897

*** Psi4 exiting successfully. Buy a developer a beer!
