                               Psi4 1.3.2 release

  ==> Input File <==

--------------------------------------------------------------------------
#psi4
#
memory 32 gb

molecule  {
1 1
  C       -0.6878560     0.9739330     0.0000000
  C        0.6831640     0.9771070     0.0000100
  N        1.1278051    -0.4189260    -0.0000114
  C        0.0027860    -1.1465230     0.0000170
  N       -1.0726430    -0.3472790    -0.0000090
  H       -2.0345360    -0.6815610    -0.0000170
  H        2.0378550    -0.6719290    -0.0000370
  H       -1.3988240     1.7865140    -0.0000060
  H        1.3901120     1.7931810     0.0000240
  H        0.0051580    -2.2268060     0.0000310
units angstrom
no_reorient  #important for SAPT in psi4, default
symmetry c1  #important for SAPT in psi4, default
}

set PROPERTIES_ORIGIN ["COM"]
properties('MP2/aug-cc-pvtz', properties = ['dipole'])
--------------------------------------------------------------------------

    Molecular point group: c1
  Charge       = 1
  Multiplicity = 1
  Basis Set: AUG-CC-PVTZ
    Blend: AUG-CC-PVTZ
  Basis Set: (AUG-CC-PVTZ AUX)
    Blend: AUG-CC-PVTZ-JKFIT

    Orbital Energies [Eh]
    ---------------------

    Doubly Occupied:

       1A    -15.853408     2A    -15.847934     3A    -11.564042
       4A    -11.483641     5A    -11.481842     6A     -1.582698
       7A     -1.433415     8A     -1.241419     9A     -1.113756
      10A     -1.036906    11A     -0.990689    12A     -0.919927
      13A     -0.835069    14A     -0.829846    15A     -0.809060
      16A     -0.802988    17A     -0.664335    18A     -0.548366

  @DF-RHF Final Energy:  -225.26624625787298

   => Energetics <=

    Nuclear Repulsion Energy =            171.2650371551042667
    One-Electron Energy =                -634.9838875648849807
    Two-Electron Energy =                 238.4526041519077353
    Total Energy =                       -225.2662462578729787
  Basis Set: (AUG-CC-PVTZ AUX)
    Blend: AUG-CC-PVTZ-RI
    Molecular point group: c1

    Geometry (in Angstrom), charge = 1, multiplicity = 1:

       Center              X                  Y                   Z               Mass
    ------------   -----------------  -----------------  -----------------  -----------------
         C           -0.698708736114     0.989511575781    -0.000000482266    12.000000000000
         C            0.672311263886     0.992685575781     0.000009517734    12.000000000000
         N            1.116952363886    -0.403347424219    -0.000011882266    14.003074004430
         C           -0.008066736114    -1.130944424219     0.000016517734    12.000000000000
         N           -1.083495736114    -0.331700424219    -0.000009482266    14.003074004430
         H           -2.045388736114    -0.665982424219    -0.000017482266     1.007825032230
         H            2.027002263886    -0.656350424219    -0.000037482266     1.007825032230
         H           -1.409676736114     1.802092575781    -0.000006482266     1.007825032230
         H            1.379259263886     1.808759575781     0.000023517734     1.007825032230
         H           -0.005694736114    -2.211227424219     0.000030517734     1.007825032230

  Basis Set: AUG-CC-PVTZ
    Blend: AUG-CC-PVTZ
  Basis Set: (AUG-CC-PVTZ AUX)
    Blend: AUG-CC-PVTZ-JKFIT
	 Reference Energy          =    -225.2662462578729787 [Eh]
	 Singles Energy            =      -0.0000000000000000 [Eh]
	 Same-Spin Energy          =      -0.2344709105391018 [Eh]
	 Opposite-Spin Energy      =      -0.7371481003474452 [Eh]
	 Correlation Energy        =      -0.9716190108865469 [Eh]
	 Total Energy              =    -226.2378652687595206 [Eh]

	 ================> DF-SCS-MP2 Energies <==================
	-----------------------------------------------------------
	 SCS Same-Spin Scale       =       0.3333333333333333 [-]
	 SCS Opposite-Spin Scale   =       1.2000000000000000 [-]
	 SCS Same-Spin Energy      =      -0.0781569701797006 [Eh]
	 SCS Opposite-Spin Energy  =      -0.8845777204169342 [Eh]
	 SCS Correlation Energy    =      -0.9627346905966347 [Eh]
	 SCS Total Energy          =    -226.2289809484696264 [Eh]
	-----------------------------------------------------------

  Dipole Moment: [D]
     X:    -0.2041      Y:    -1.1744      Z:    -0.0000     Total:     1.1920

*** Psi4 exiting successfully. Buy a developer a beer!
