                               Psi4 1.3.2 release

  ==> Input File <==

--------------------------------------------------------------------------
#psi4
#
memory 32 gb

molecule  {
1 1
  C       -0.6878560     0.9739330     0.0000000
  C        0.6831640     0.9771070     0.0000100
  N        0.9843676    -0.2346223    -0.0000176
  C        0.0027860    -1.1465230     0.0000170
  N       -1.0726430    -0.3472790    -0.0000090
  H       -2.0345360    -0.6815610    -0.0000170
  H        2.0378550    -0.6719290    -0.0000370
  H       -1.3988240     1.7865140    -0.0000060
  H        1.3901120     1.7931810     0.0000240
  H        0.0051580    -2.2268060     0.0000310
units angstrom
no_reorient  #important for SAPT in psi4, default
symmetry c1  #important for SAPT in psi4, default
}

set PROPERTIES_ORIGIN ["COM"]
properties('MP2/aug-cc-pvtz', properties = ['dipole'])
--------------------------------------------------------------------------

    Molecular point group: c1
  Charge       = 1
  Multiplicity = 1
  Basis Set: AUG-CC-PVTZ
    Blend: AUG-CC-PVTZ
  Basis Set: (AUG-CC-PVTZ AUX)
    Blend: AUG-CC-PVTZ-JKFIT

    Orbital Energies [Eh]
    ---------------------

    Doubly Occupied:

       1A    -15.857899     2A    -15.851675     3A    -11.541297
       4A    -11.470733     5A    -11.467854     6A     -1.618500
       7A     -1.436542     8A     -1.254932     9A     -1.091160
      10A     -1.047709    11A     -0.995098    12A     -0.867692
      13A     -0.860247    14A     -0.857090    15A     -0.815775
      16A     -0.783707    17A     -0.673197    18A     -0.535183

  @DF-RHF Final Energy:  -225.23951493181517

   => Energetics <=

    Nuclear Repulsion Energy =            175.2742258683644252
    One-Electron Energy =                -642.9749036303375078
    Two-Electron Energy =                 242.4611628301579458
    Total Energy =                       -225.2395149318151653
  Basis Set: (AUG-CC-PVTZ AUX)
    Blend: AUG-CC-PVTZ-RI
    Molecular point group: c1

    Geometry (in Angstrom), charge = 1, multiplicity = 1:

       Center              X                  Y                   Z               Mass
    ------------   -----------------  -----------------  -----------------  -----------------
         C           -0.669618172267     0.952132936638     0.000000775157    12.000000000000
         C            0.701401827733     0.955306936638     0.000010775157    12.000000000000
         N            1.002605427733    -0.256422363362    -0.000016824843    14.003074004430
         C            0.021023827733    -1.168323063362     0.000017775157    12.000000000000
         N           -1.054405172267    -0.369079063362    -0.000008224843    14.003074004430
         H           -2.016298172267    -0.703361063362    -0.000016224843     1.007825032230
         H            2.056092827733    -0.693729063362    -0.000036224843     1.007825032230
         H           -1.380586172267     1.764713936638    -0.000005224843     1.007825032230
         H            1.408349827733     1.771380936638     0.000024775157     1.007825032230
         H            0.023395827733    -2.248606063362     0.000031775157     1.007825032230

  Basis Set: AUG-CC-PVTZ
    Blend: AUG-CC-PVTZ
  Basis Set: (AUG-CC-PVTZ AUX)
    Blend: AUG-CC-PVTZ-JKFIT
	 Reference Energy          =    -225.2395149318151653 [Eh]
	 Singles Energy            =      -0.0000000000000000 [Eh]
	 Same-Spin Energy          =      -0.2395486501068227 [Eh]
	 Opposite-Spin Energy      =      -0.7410864860025833 [Eh]
	 Correlation Energy        =      -0.9806351361094060 [Eh]
	 Total Energy              =    -226.2201500679245783 [Eh]

	 ================> DF-SCS-MP2 Energies <==================
	-----------------------------------------------------------
	 SCS Same-Spin Scale       =       0.3333333333333333 [-]
	 SCS Opposite-Spin Scale   =       1.2000000000000000 [-]
	 SCS Same-Spin Energy      =      -0.0798495500356075 [Eh]
	 SCS Opposite-Spin Energy  =      -0.8893037832031000 [Eh]
	 SCS Correlation Energy    =      -0.9691533332387076 [Eh]
	 SCS Total Energy          =    -226.2086682650538592 [Eh]
	-----------------------------------------------------------

  Dipole Moment: [D]
     X:     0.3182      Y:    -1.3431      Z:    -0.0000     Total:     1.3803

*** Psi4 exiting successfully. Buy a developer a beer!
