                               Psi4 1.3.2 release

  ==> Input File <==

--------------------------------------------------------------------------
#psi4
#
memory 32 gb

molecule  {
1 1
  C       -0.6842949     0.8783032    -0.0000019
  C        0.6831640     0.9771070     0.0000100
  N        1.0743100    -0.3422210    -0.0000140
  C        0.0027860    -1.1465230     0.0000170
  N       -1.0726430    -0.3472790    -0.0000090
  H       -2.0345360    -0.6815610    -0.0000170
  H        2.0378550    -0.6719290    -0.0000370
  H       -1.3988240     1.7865140    -0.0000060
  H        1.3901120     1.7931810     0.0000240
  H        0.0051580    -2.2268060     0.0000310
units angstrom
no_reorient  #important for SAPT in psi4, default
symmetry c1  #important for SAPT in psi4, default
}

set PROPERTIES_ORIGIN ["COM"]
properties('MP2/aug-cc-pvtz', properties = ['dipole'])
--------------------------------------------------------------------------

    Molecular point group: c1
  Charge       = 1
  Multiplicity = 1
  Basis Set: AUG-CC-PVTZ
    Blend: AUG-CC-PVTZ
  Basis Set: (AUG-CC-PVTZ AUX)
    Blend: AUG-CC-PVTZ-JKFIT

    Orbital Energies [Eh]
    ---------------------

    Doubly Occupied:

       1A    -15.855296     2A    -15.854500     3A    -11.548155
       4A    -11.475429     5A    -11.471993     6A     -1.612146
       7A     -1.447190     8A     -1.245221     9A     -1.105832
      10A     -1.054405    11A     -0.987641    12A     -0.904416
      13A     -0.853396    14A     -0.842744    15A     -0.823487
      16A     -0.771936    17A     -0.677139    18A     -0.536877

  @DF-RHF Final Energy:  -225.26322104426907

   => Energetics <=

    Nuclear Repulsion Energy =            174.3879579001476259
    One-Electron Energy =                -641.1667533444239098
    Two-Electron Energy =                 241.5155744000072104
    Total Energy =                       -225.2632210442690734
  Basis Set: (AUG-CC-PVTZ AUX)
    Blend: AUG-CC-PVTZ-RI
    Molecular point group: c1

    Geometry (in Angstrom), charge = 1, multiplicity = 1:

       Center              X                  Y                   Z               Mass
    ------------   -----------------  -----------------  -----------------  -----------------
         C           -0.684917208864     0.894945596737    -0.000001524741    12.000000000000
         C            0.682541691136     0.993749396737     0.000010375259    12.000000000000
         N            1.073687691136    -0.325578603263    -0.000013624741    14.003074004430
         C            0.002163691136    -1.129880603263     0.000017375259    12.000000000000
         N           -1.073265308864    -0.330636603263    -0.000008624741    14.003074004430
         H           -2.035158308864    -0.664918603263    -0.000016624741     1.007825032230
         H            2.037232691136    -0.655286603263    -0.000036624741     1.007825032230
         H           -1.399446308864     1.803156396737    -0.000005624741     1.007825032230
         H            1.389489691136     1.809823396737     0.000024375259     1.007825032230
         H            0.004535691136    -2.210163603263     0.000031375259     1.007825032230

  Basis Set: AUG-CC-PVTZ
    Blend: AUG-CC-PVTZ
  Basis Set: (AUG-CC-PVTZ AUX)
    Blend: AUG-CC-PVTZ-JKFIT
	 Reference Energy          =    -225.2632210442690734 [Eh]
	 Singles Energy            =      -0.0000000000000000 [Eh]
	 Same-Spin Energy          =      -0.2374224175737161 [Eh]
	 Opposite-Spin Energy      =      -0.7381860737840787 [Eh]
	 Correlation Energy        =      -0.9756084913577948 [Eh]
	 Total Energy              =    -226.2388295356268770 [Eh]

	 ================> DF-SCS-MP2 Energies <==================
	-----------------------------------------------------------
	 SCS Same-Spin Scale       =       0.3333333333333333 [-]
	 SCS Opposite-Spin Scale   =       1.2000000000000000 [-]
	 SCS Same-Spin Energy      =      -0.0791408058579054 [Eh]
	 SCS Opposite-Spin Energy  =      -0.8858232885408944 [Eh]
	 SCS Correlation Energy    =      -0.9649640943987998 [Eh]
	 SCS Total Energy          =    -226.2281851386678682 [Eh]
	-----------------------------------------------------------

  Dipole Moment: [D]
     X:    -0.0608      Y:    -1.2091      Z:    -0.0000     Total:     1.2106

*** Psi4 exiting successfully. Buy a developer a beer!
