                               Psi4 1.4a3.dev225

  ==> Input File <==

--------------------------------------------------------------------------
#psi4
#
memory 32 gb

molecule  {
1 1
  C       -0.6853300     0.9742120     0.0000000
  C        0.6853300     0.9742120     0.0000080
  N        1.0731610    -0.3445600    -0.0000120
  C        0.0000000    -1.1430630     0.0000130
  N       -1.0731610    -0.3445590    -0.0000060
  H       -2.0346060    -0.6777470    -0.0000120
  H        2.0535024    -0.6842969    -0.0000222
  H       -1.3967670     1.7843860    -0.0000010
  H        1.3967670     1.7843860     0.0000130
  H       -0.0000010    -2.2216150     0.0000200
units angstrom
no_reorient  #important for SAPT in psi4, default
symmetry c1  #important for SAPT in psi4, default
}

set PROPERTIES_ORIGIN ["COM"]
properties('MP2/aug-cc-pvtz', properties = ['dipole'])
--------------------------------------------------------------------------

    Molecular point group: c1
  Charge       = 1
  Multiplicity = 1
  Basis Set: AUG-CC-PVTZ
    Blend: AUG-CC-PVTZ
  Basis Set: (AUG-CC-PVTZ AUX)
    Blend: AUG-CC-PVTZ-JKFIT

    Orbital Energies [Eh]
    ---------------------

    Doubly Occupied:

       1A    -15.853555     2A    -15.851958     3A    -11.553446
       4A    -11.477059     5A    -11.475635     6A     -1.594200
       7A     -1.431113     8A     -1.246078     9A     -1.094410
      10A     -1.046495    11A     -0.992387    12A     -0.893711
      13A     -0.842113    14A     -0.836152    15A     -0.817293
      16A     -0.804208    17A     -0.666494    18A     -0.543372

  @DF-RHF Final Energy:  -225.27633237496039

   => Energetics <=

    Nuclear Repulsion Energy =            172.8113378000067826
    One-Electron Energy =                -638.1359840760976567
    Two-Electron Energy =                 240.0483139011305127
    Total Energy =                       -225.2763323749603899
  Basis Set: (AUG-CC-PVTZ AUX)
    Blend: AUG-CC-PVTZ-RI
    Molecular point group: c1

    Geometry (in Angstrom), charge = 1, multiplicity = 1:

       Center              X                  Y                   Z               Mass
    ------------   -----------------  -----------------  -----------------  -----------------
         C           -0.685605808267     0.974218600674     0.000000032914    12.000000000000
         C            0.685054191733     0.974218600674     0.000008032914    12.000000000000
         N            1.072885191733    -0.344553399326    -0.000011967086    14.003074004430
         C           -0.000275808267    -1.143056399326     0.000013032914    12.000000000000
         N           -1.073436808267    -0.344552399326    -0.000005967086    14.003074004430
         H           -2.034881808267    -0.677740399326    -0.000011967086     1.007825032230
         H            2.053226591733    -0.684290299326    -0.000022167086     1.007825032230
         H           -1.397042808267     1.784392600674    -0.000000967086     1.007825032230
         H            1.396491191733     1.784392600674     0.000013032914     1.007825032230
         H           -0.000276808267    -2.221608399326     0.000020032914     1.007825032230

  Basis Set: AUG-CC-PVTZ
    Blend: AUG-CC-PVTZ
  Basis Set: (AUG-CC-PVTZ AUX)
    Blend: AUG-CC-PVTZ-JKFIT
	 Reference Energy          =    -225.2763323749603899 [Eh]
	 Singles Energy            =      -0.0000000000000000 [Eh]
	 Same-Spin Energy          =      -0.2361985143988195 [Eh]
	 Opposite-Spin Energy      =      -0.7377386466094629 [Eh]
	 Correlation Energy        =      -0.9739371610082824 [Eh]
	 Total Energy              =    -226.2502695359686697 [Eh]

	 ================> DF-SCS-MP2 Energies <==================
	-----------------------------------------------------------
	 SCS Same-Spin Scale       =       0.3333333333333333 [-]
	 SCS Opposite-Spin Scale   =       1.2000000000000000 [-]
	 SCS Same-Spin Energy      =      -0.0787328381329398 [Eh]
	 SCS Opposite-Spin Energy  =      -0.8852863759313554 [Eh]
	 SCS Correlation Energy    =      -0.9640192140642952 [Eh]
	 SCS Total Energy          =    -226.2403515890246979 [Eh]
	-----------------------------------------------------------

  Dipole Moment: [D]
     X:     0.0403      Y:    -1.2900      Z:    -0.0000     Total:     1.2906

*** Psi4 exiting successfully. Buy a developer a beer!
