                               Psi4 1.3.2 release

  ==> Input File <==

--------------------------------------------------------------------------
#psi4
#
memory 32 gb

molecule  {
1 1
  C       -0.6877026     0.9978611     0.0000005
  C        0.6831640     0.9771070     0.0000100
  N        1.0743100    -0.3422210    -0.0000140
  C        0.0027860    -1.1465230     0.0000170
  N       -1.0726430    -0.3472790    -0.0000090
  H       -2.0345360    -0.6815610    -0.0000170
  H        2.0378550    -0.6719290    -0.0000370
  H       -1.3988240     1.7865140    -0.0000060
  H        1.3901120     1.7931810     0.0000240
  H        0.0051580    -2.2268060     0.0000310
units angstrom
no_reorient  #important for SAPT in psi4, default
symmetry c1  #important for SAPT in psi4, default
}

set PROPERTIES_ORIGIN ["COM"]
properties('MP2/aug-cc-pvtz', properties = ['dipole'])
--------------------------------------------------------------------------

    Molecular point group: c1
  Charge       = 1
  Multiplicity = 1
  Basis Set: AUG-CC-PVTZ
    Blend: AUG-CC-PVTZ
  Basis Set: (AUG-CC-PVTZ AUX)
    Blend: AUG-CC-PVTZ-JKFIT

    Orbital Energies [Eh]
    ---------------------

    Doubly Occupied:

       1A    -15.852113     2A    -15.851556     3A    -11.556368
       4A    -11.478782     5A    -11.477187     6A     -1.589794
       7A     -1.428142     8A     -1.246304     9A     -1.095364
      10A     -1.045331    11A     -0.993093    12A     -0.893800
      13A     -0.839148    14A     -0.835980    15A     -0.821733
      16A     -0.804030    17A     -0.664006    18A     -0.545248

  @DF-RHF Final Energy:  -225.27625112760964

   => Energetics <=

    Nuclear Repulsion Energy =            172.3389075846067726
    One-Electron Energy =                -637.1943575672038378
    Two-Electron Energy =                 239.5791988549874247
    Total Energy =                       -225.2762511276096404
  Basis Set: (AUG-CC-PVTZ AUX)
    Blend: AUG-CC-PVTZ-RI
    Molecular point group: c1

    Geometry (in Angstrom), charge = 1, multiplicity = 1:

       Center              X                  Y                   Z               Mass
    ------------   -----------------  -----------------  -----------------  -----------------
         C           -0.687732653983     0.993724452291     0.000000458141    12.000000000000
         C            0.683133946017     0.972970352291     0.000009958141    12.000000000000
         N            1.074279946017    -0.346357647709    -0.000014041859    14.003074004430
         C            0.002755946017    -1.150659647709     0.000016958141    12.000000000000
         N           -1.072673053983    -0.351415647709    -0.000009041859    14.003074004430
         H           -2.034566053983    -0.685697647709    -0.000017041859     1.007825032230
         H            2.037824946017    -0.676065647709    -0.000037041859     1.007825032230
         H           -1.398854053983     1.782377352291    -0.000006041859     1.007825032230
         H            1.390081946017     1.789044352291     0.000023958141     1.007825032230
         H            0.005127946017    -2.230942647709     0.000030958141     1.007825032230

  Basis Set: AUG-CC-PVTZ
    Blend: AUG-CC-PVTZ
  Basis Set: (AUG-CC-PVTZ AUX)
    Blend: AUG-CC-PVTZ-JKFIT
	 Reference Energy          =    -225.2762511276096404 [Eh]
	 Singles Energy            =      -0.0000000000000000 [Eh]
	 Same-Spin Energy          =      -0.2358246277085696 [Eh]
	 Opposite-Spin Energy      =      -0.7376587278937390 [Eh]
	 Correlation Energy        =      -0.9734833556023086 [Eh]
	 Total Energy              =    -226.2497344832119381 [Eh]

	 ================> DF-SCS-MP2 Energies <==================
	-----------------------------------------------------------
	 SCS Same-Spin Scale       =       0.3333333333333333 [-]
	 SCS Opposite-Spin Scale   =       1.2000000000000000 [-]
	 SCS Same-Spin Energy      =      -0.0786082092361899 [Eh]
	 SCS Opposite-Spin Energy  =      -0.8851904734724868 [Eh]
	 SCS Correlation Energy    =      -0.9637986827086766 [Eh]
	 SCS Total Energy          =    -226.2400498103183111 [Eh]
	-----------------------------------------------------------

  Dipole Moment: [D]
     X:     0.0174      Y:    -1.2847      Z:    -0.0000     Total:     1.2848

*** Psi4 exiting successfully. Buy a developer a beer!
