                               Psi4 1.3.2 release

  ==> Input File <==

--------------------------------------------------------------------------
#psi4
#
memory 32 gb

molecule  {
1 1
  C       -0.6878560     0.9739330     0.0000000
  C        0.6831640     0.9771070     0.0000100
  N        1.0743100    -0.3422210    -0.0000140
  C        0.0027860    -1.1465230     0.0000170
  N       -1.0726430    -0.3472790    -0.0000090
  H       -2.0345360    -0.6815610    -0.0000170
  H        2.0378550    -0.6719290    -0.0000370
  H       -1.3988240     1.7865140    -0.0000060
  H        1.3901120     1.7931810     0.0000240
  H        0.0049384    -2.1268062     0.0000297
units angstrom
no_reorient  #important for SAPT in psi4, default
symmetry c1  #important for SAPT in psi4, default
}

set PROPERTIES_ORIGIN ["COM"]
properties('MP2/aug-cc-pvtz', properties = ['dipole'])
--------------------------------------------------------------------------

    Molecular point group: c1
  Charge       = 1
  Multiplicity = 1
  Basis Set: AUG-CC-PVTZ
    Blend: AUG-CC-PVTZ
  Basis Set: (AUG-CC-PVTZ AUX)
    Blend: AUG-CC-PVTZ-JKFIT

    Orbital Energies [Eh]
    ---------------------

    Doubly Occupied:

       1A    -15.853299     2A    -15.853254     3A    -11.546204
       4A    -11.478398     5A    -11.476977     6A     -1.594362
       7A     -1.432400     8A     -1.251730     9A     -1.101181
      10A     -1.046910    11A     -1.012602    12A     -0.896205
      13A     -0.852750    14A     -0.842243    15A     -0.818054
      16A     -0.804802    17A     -0.667005    18A     -0.544471

  @DF-RHF Final Energy:  -225.27043210563596

   => Energetics <=

    Nuclear Repulsion Energy =            173.2415603658118357
    One-Electron Energy =                -638.8782884298275349
    Two-Electron Energy =                 240.3662959583797374
    Total Energy =                       -225.2704321056359618
  Basis Set: (AUG-CC-PVTZ AUX)
    Blend: AUG-CC-PVTZ-RI
    Molecular point group: c1

    Geometry (in Angstrom), charge = 1, multiplicity = 1:

       Center              X                  Y                   Z               Mass
    ------------   -----------------  -----------------  -----------------  -----------------
         C           -0.687856187806     0.972495377000     0.000000064016    12.000000000000
         C            0.683163812194     0.975669377000     0.000010064016    12.000000000000
         N            1.074309812194    -0.343658623000    -0.000013935984    14.003074004430
         C            0.002785812194    -1.147960623000     0.000017064016    12.000000000000
         N           -1.072643187806    -0.348716623000    -0.000008935984    14.003074004430
         H           -2.034536187806    -0.682998623000    -0.000016935984     1.007825032230
         H            2.037854812194    -0.673366623000    -0.000036935984     1.007825032230
         H           -1.398824187806     1.785076377000    -0.000005935984     1.007825032230
         H            1.390111812194     1.791743377000     0.000024064016     1.007825032230
         H            0.004938212194    -2.128243823000     0.000029764016     1.007825032230

  Basis Set: AUG-CC-PVTZ
    Blend: AUG-CC-PVTZ
  Basis Set: (AUG-CC-PVTZ AUX)
    Blend: AUG-CC-PVTZ-JKFIT
	 Reference Energy          =    -225.2704321056359618 [Eh]
	 Singles Energy            =      -0.0000000000000000 [Eh]
	 Same-Spin Energy          =      -0.2359821406417014 [Eh]
	 Opposite-Spin Energy      =      -0.7372974992543559 [Eh]
	 Correlation Energy        =      -0.9732796398960573 [Eh]
	 Total Energy              =    -226.2437117455320106 [Eh]

	 ================> DF-SCS-MP2 Energies <==================
	-----------------------------------------------------------
	 SCS Same-Spin Scale       =       0.3333333333333333 [-]
	 SCS Opposite-Spin Scale   =       1.2000000000000000 [-]
	 SCS Same-Spin Energy      =      -0.0786607135472338 [Eh]
	 SCS Opposite-Spin Energy  =      -0.8847569991052271 [Eh]
	 SCS Correlation Energy    =      -0.9634177126524609 [Eh]
	 SCS Total Energy          =    -226.2338498182884337 [Eh]
	-----------------------------------------------------------

  Dipole Moment: [D]
     X:     0.0029      Y:    -1.1646      Z:    -0.0000     Total:     1.1646

*** Psi4 exiting successfully. Buy a developer a beer!
