                               Psi4 1.4a3.dev225

  ==> Input File <==

--------------------------------------------------------------------------
#psi4
#
memory 32 gb

molecule  {
1 1
  C       -0.6853300     0.9742120     0.0000000
  C        0.6853300     0.9742120     0.0000080
  N        1.0731610    -0.3445600    -0.0000120
  C        0.0000000    -1.1430630     0.0000130
  N       -1.0731610    -0.3445590    -0.0000060
  H       -2.0346060    -0.6777470    -0.0000120
  H        2.0346050    -0.6777480    -0.0000220
  H       -1.3967670     1.7843860    -0.0000010
  H        1.4099637     1.7994142     0.0000131
  H       -0.0000010    -2.2216150     0.0000200
units angstrom
no_reorient  #important for SAPT in psi4, default
symmetry c1  #important for SAPT in psi4, default
}

set PROPERTIES_ORIGIN ["COM"]
properties('MP2/aug-cc-pvtz', properties = ['dipole'])
--------------------------------------------------------------------------

    Molecular point group: c1
  Charge       = 1
  Multiplicity = 1
  Basis Set: AUG-CC-PVTZ
    Blend: AUG-CC-PVTZ
  Basis Set: (AUG-CC-PVTZ AUX)
    Blend: AUG-CC-PVTZ-JKFIT

    Orbital Energies [Eh]
    ---------------------

    Doubly Occupied:

       1A    -15.852326     2A    -15.852275     3A    -11.553820
       4A    -11.478678     5A    -11.476303     6A     -1.594996
       7A     -1.432943     8A     -1.246025     9A     -1.097880
      10A     -1.045988    11A     -0.991837    12A     -0.896962
      13A     -0.842531    14A     -0.836273    15A     -0.815155
      16A     -0.802780    17A     -0.667053    18A     -0.543573

  @DF-RHF Final Energy:  -225.27677814276117

   => Energetics <=

    Nuclear Repulsion Energy =            172.8282361537619920
    One-Electron Energy =                -638.1552306906096419
    Two-Electron Energy =                 240.0502163940865046
    Total Energy =                       -225.2767781427611737
  Basis Set: (AUG-CC-PVTZ AUX)
    Blend: AUG-CC-PVTZ-RI
    Molecular point group: c1

    Geometry (in Angstrom), charge = 1, multiplicity = 1:

       Center              X                  Y                   Z               Mass
    ------------   -----------------  -----------------  -----------------  -----------------
         C           -0.685522597528     0.973903648752     0.000000028535    12.000000000000
         C            0.685137402472     0.973903648752     0.000008028535    12.000000000000
         N            1.072968402472    -0.344868351248    -0.000011971465    14.003074004430
         C           -0.000192597528    -1.143371351248     0.000013028535    12.000000000000
         N           -1.073353597528    -0.344867351248    -0.000005971465    14.003074004430
         H           -2.034798597528    -0.678055351248    -0.000011971465     1.007825032230
         H            2.034412402472    -0.678056351248    -0.000021971465     1.007825032230
         H           -1.396959597528     1.784077648752    -0.000000971465     1.007825032230
         H            1.409771102472     1.799105848752     0.000013128535     1.007825032230
         H           -0.000193597528    -2.221923351248     0.000020028535     1.007825032230

  Basis Set: AUG-CC-PVTZ
    Blend: AUG-CC-PVTZ
  Basis Set: (AUG-CC-PVTZ AUX)
    Blend: AUG-CC-PVTZ-JKFIT
	 Reference Energy          =    -225.2767781427611737 [Eh]
	 Singles Energy            =      -0.0000000000000000 [Eh]
	 Same-Spin Energy          =      -0.2360917623782787 [Eh]
	 Opposite-Spin Energy      =      -0.7375280586691795 [Eh]
	 Correlation Energy        =      -0.9736198210474581 [Eh]
	 Total Energy              =    -226.2503979638086378 [Eh]

	 ================> DF-SCS-MP2 Energies <==================
	-----------------------------------------------------------
	 SCS Same-Spin Scale       =       0.3333333333333333 [-]
	 SCS Opposite-Spin Scale   =       1.2000000000000000 [-]
	 SCS Same-Spin Energy      =      -0.0786972541260929 [Eh]
	 SCS Opposite-Spin Energy  =      -0.8850336704030154 [Eh]
	 SCS Correlation Energy    =      -0.9637309245291082 [Eh]
	 SCS Total Energy          =    -226.2405090672902759 [Eh]
	-----------------------------------------------------------

  Dipole Moment: [D]
     X:     0.0115      Y:    -1.2651      Z:    -0.0000     Total:     1.2652

*** Psi4 exiting successfully. Buy a developer a beer!
