                               Psi4 1.3.2 release

  ==> Input File <==

--------------------------------------------------------------------------
#psi4
#
memory 32 gb

molecule  {
1 1
  C       -0.6878560     0.9739330     0.0000000
  C        0.6831640     0.9771070     0.0000100
  N        1.0881838    -0.3610442    -0.0000134
  C        0.0027860    -1.1465230     0.0000170
  N       -1.0726430    -0.3472790    -0.0000090
  H       -2.0345360    -0.6815610    -0.0000170
  H        2.0378550    -0.6719290    -0.0000370
  H       -1.3988240     1.7865140    -0.0000060
  H        1.3901120     1.7931810     0.0000240
  H        0.0051580    -2.2268060     0.0000310
units angstrom
no_reorient  #important for SAPT in psi4, default
symmetry c1  #important for SAPT in psi4, default
}

set PROPERTIES_ORIGIN ["COM"]
properties('MP2/aug-cc-pvtz', properties = ['dipole'])
--------------------------------------------------------------------------

    Molecular point group: c1
  Charge       = 1
  Multiplicity = 1
  Basis Set: AUG-CC-PVTZ
    Blend: AUG-CC-PVTZ
  Basis Set: (AUG-CC-PVTZ AUX)
    Blend: AUG-CC-PVTZ-JKFIT

    Orbital Energies [Eh]
    ---------------------

    Doubly Occupied:

       1A    -15.852699     2A    -15.851437     3A    -11.557124
       4A    -11.479092     5A    -11.477635     6A     -1.590393
       7A     -1.431861     8A     -1.244791     9A     -1.100763
      10A     -1.043900    11A     -0.992117    12A     -0.901837
      13A     -0.839673    14A     -0.833719    15A     -0.815504
      16A     -0.805662    17A     -0.665786    18A     -0.544832

  @DF-RHF Final Energy:  -225.27674236640169

   => Energetics <=

    Nuclear Repulsion Energy =            172.3425982477662615
    One-Electron Energy =                -637.1810298790621800
    Two-Electron Energy =                 239.5616892648942269
    Total Energy =                       -225.2767423664016917
  Basis Set: (AUG-CC-PVTZ AUX)
    Blend: AUG-CC-PVTZ-RI
    Molecular point group: c1

    Geometry (in Angstrom), charge = 1, multiplicity = 1:

       Center              X                  Y                   Z               Mass
    ------------   -----------------  -----------------  -----------------  -----------------
         C           -0.690673139026     0.977772566118    -0.000000076646    12.000000000000
         C            0.680346860974     0.980946566118     0.000009923354    12.000000000000
         N            1.085366660974    -0.357204633882    -0.000013476646    14.003074004430
         C           -0.000031139026    -1.142683433882     0.000016923354    12.000000000000
         N           -1.075460139026    -0.343439433882    -0.000009076646    14.003074004430
         H           -2.037353139026    -0.677721433882    -0.000017076646     1.007825032230
         H            2.035037860974    -0.668089433882    -0.000037076646     1.007825032230
         H           -1.401641139026     1.790353566118    -0.000006076646     1.007825032230
         H            1.387294860974     1.797020566118     0.000023923354     1.007825032230
         H            0.002340860974    -2.222966433882     0.000030923354     1.007825032230

  Basis Set: AUG-CC-PVTZ
    Blend: AUG-CC-PVTZ
  Basis Set: (AUG-CC-PVTZ AUX)
    Blend: AUG-CC-PVTZ-JKFIT
	 Reference Energy          =    -225.2767423664016917 [Eh]
	 Singles Energy            =      -0.0000000000000000 [Eh]
	 Same-Spin Energy          =      -0.2356385845031410 [Eh]
	 Opposite-Spin Energy      =      -0.7373748461196707 [Eh]
	 Correlation Energy        =      -0.9730134306228118 [Eh]
	 Total Energy              =    -226.2497557970245055 [Eh]

	 ================> DF-SCS-MP2 Energies <==================
	-----------------------------------------------------------
	 SCS Same-Spin Scale       =       0.3333333333333333 [-]
	 SCS Opposite-Spin Scale   =       1.2000000000000000 [-]
	 SCS Same-Spin Energy      =      -0.0785461948343803 [Eh]
	 SCS Opposite-Spin Energy  =      -0.8848498153436049 [Eh]
	 SCS Correlation Energy    =      -0.9633960101779852 [Eh]
	 SCS Total Energy          =    -226.2401383765796652 [Eh]
	-----------------------------------------------------------

  Dipole Moment: [D]
     X:    -0.0497      Y:    -1.2494      Z:    -0.0000     Total:     1.2504

*** Psi4 exiting successfully. Buy a developer a beer!
