                               Psi4 1.3.2 release

  ==> Input File <==

--------------------------------------------------------------------------
#psi4
#
memory 32 gb

molecule  {
1 1
  C       -0.6869100     0.9260870    -0.0000010
  C        0.6831640     0.9771070     0.0000100
  N        1.0743100    -0.3422210    -0.0000140
  C        0.0027860    -1.1465230     0.0000170
  N       -1.0726430    -0.3472790    -0.0000090
  H       -2.0345360    -0.6815610    -0.0000170
  H        2.0378550    -0.6719290    -0.0000370
  H       -1.3988240     1.7865140    -0.0000060
  H        1.3901120     1.7931810     0.0000240
  H        0.0051580    -2.2268060     0.0000310
units angstrom
no_reorient  #important for SAPT in psi4, default
symmetry c1  #important for SAPT in psi4, default
}

set PROPERTIES_ORIGIN ["COM"]
properties('MP2/aug-cc-pvtz', properties = ['dipole'])
--------------------------------------------------------------------------

    Molecular point group: c1
  Charge       = 1
  Multiplicity = 1
  Basis Set: AUG-CC-PVTZ
    Blend: AUG-CC-PVTZ
  Basis Set: (AUG-CC-PVTZ AUX)
    Blend: AUG-CC-PVTZ-JKFIT

    Orbital Energies [Eh]
    ---------------------

    Doubly Occupied:

       1A    -15.854061     2A    -15.853438     3A    -11.551564
       4A    -11.476176     5A    -11.474090     6A     -1.601940
       7A     -1.439330     8A     -1.245677     9A     -1.101174
      10A     -1.049285    11A     -0.990556    12A     -0.899815
      13A     -0.846960    14A     -0.839247    15A     -0.819817
      16A     -0.790286    17A     -0.671678    18A     -0.540196

  @DF-RHF Final Energy:  -225.27351627467669

   => Energetics <=

    Nuclear Repulsion Energy =            173.5319645261955941
    One-Electron Energy =                -639.5203796181774578
    Two-Electron Energy =                 240.7148988173051976
    Total Energy =                       -225.2735162746766946
  Basis Set: (AUG-CC-PVTZ AUX)
    Blend: AUG-CC-PVTZ-RI
    Molecular point group: c1

    Geometry (in Angstrom), charge = 1, multiplicity = 1:

       Center              X                  Y                   Z               Mass
    ------------   -----------------  -----------------  -----------------  -----------------
         C           -0.687077807077     0.934424619687    -0.000000781161    12.000000000000
         C            0.682996192923     0.985444619687     0.000010218839    12.000000000000
         N            1.074142192923    -0.333883380313    -0.000013781161    14.003074004430
         C            0.002618192923    -1.138185380313     0.000017218839    12.000000000000
         N           -1.072810807077    -0.338941380313    -0.000008781161    14.003074004430
         H           -2.034703807077    -0.673223380313    -0.000016781161     1.007825032230
         H            2.037687192923    -0.663591380313    -0.000036781161     1.007825032230
         H           -1.398991807077     1.794851619687    -0.000005781161     1.007825032230
         H            1.389944192923     1.801518619687     0.000024218839     1.007825032230
         H            0.004990192923    -2.218468380313     0.000031218839     1.007825032230

  Basis Set: AUG-CC-PVTZ
    Blend: AUG-CC-PVTZ
  Basis Set: (AUG-CC-PVTZ AUX)
    Blend: AUG-CC-PVTZ-JKFIT
	 Reference Energy          =    -225.2735162746766946 [Eh]
	 Singles Energy            =      -0.0000000000000000 [Eh]
	 Same-Spin Energy          =      -0.2367274552063563 [Eh]
	 Opposite-Spin Energy      =      -0.7377854500580818 [Eh]
	 Correlation Energy        =      -0.9745129052644381 [Eh]
	 Total Energy              =    -226.2480291799411418 [Eh]

	 ================> DF-SCS-MP2 Energies <==================
	-----------------------------------------------------------
	 SCS Same-Spin Scale       =       0.3333333333333333 [-]
	 SCS Opposite-Spin Scale   =       1.2000000000000000 [-]
	 SCS Same-Spin Energy      =      -0.0789091517354521 [Eh]
	 SCS Opposite-Spin Energy  =      -0.8853425400696981 [Eh]
	 SCS Correlation Energy    =      -0.9642516918051502 [Eh]
	 SCS Total Energy          =    -226.2377679664818402 [Eh]
	-----------------------------------------------------------

  Dipole Moment: [D]
     X:    -0.0275      Y:    -1.2395      Z:    -0.0000     Total:     1.2398

*** Psi4 exiting successfully. Buy a developer a beer!
