                               Psi4 1.4a3.dev225

  ==> Input File <==

--------------------------------------------------------------------------
#psi4
#
memory 32 gb

molecule  {
1 1
  C       -0.6853300     0.9742120     0.0000000
  C        0.6853300     0.9742120     0.0000080
  N        1.0731610    -0.3445600    -0.0000120
  C        0.0000000    -1.1430630     0.0000130
  N       -1.0731610    -0.3445590    -0.0000060
  H       -2.0346060    -0.6777470    -0.0000120
  H        2.0346050    -0.6777480    -0.0000220
  H       -1.3967670     1.7843860    -0.0000010
  H        1.3967670     1.7843860     0.0000130
  H       -0.0000010    -2.2716150     0.0000203
units angstrom
no_reorient  #important for SAPT in psi4, default
symmetry c1  #important for SAPT in psi4, default
}

set PROPERTIES_ORIGIN ["COM"]
properties('MP2/aug-cc-pvtz', properties = ['dipole'])
--------------------------------------------------------------------------

    Molecular point group: c1
  Charge       = 1
  Multiplicity = 1
  Basis Set: AUG-CC-PVTZ
    Blend: AUG-CC-PVTZ
  Basis Set: (AUG-CC-PVTZ AUX)
    Blend: AUG-CC-PVTZ-JKFIT

    Orbital Energies [Eh]
    ---------------------

    Doubly Occupied:

       1A    -15.852007     2A    -15.851972     3A    -11.557861
       4A    -11.477001     5A    -11.475578     6A     -1.594642
       7A     -1.432744     8A     -1.244415     9A     -1.096572
      10A     -1.046929    11A     -0.984425    12A     -0.896778
      13A     -0.842247    14A     -0.827543    15A     -0.817254
      16A     -0.804711    17A     -0.666858    18A     -0.543271

  @DF-RHF Final Energy:  -225.27502825674631

   => Energetics <=

    Nuclear Repulsion Energy =            172.6876587509864009
    One-Electron Energy =                -637.8997567274308267
    Two-Electron Energy =                 239.9370697196980871
    Total Energy =                       -225.2750282567463103
  Basis Set: (AUG-CC-PVTZ AUX)
    Blend: AUG-CC-PVTZ-RI
    Molecular point group: c1

    Geometry (in Angstrom), charge = 1, multiplicity = 1:

       Center              X                  Y                   Z               Mass
    ------------   -----------------  -----------------  -----------------  -----------------
         C           -0.685329970807     0.974852838244     0.000000025616    12.000000000000
         C            0.685330029193     0.974852838244     0.000008025616    12.000000000000
         N            1.073161029193    -0.343919161756    -0.000011974384    14.003074004430
         C            0.000000029193    -1.142422161756     0.000013025616    12.000000000000
         N           -1.073160970807    -0.343918161756    -0.000005974384    14.003074004430
         H           -2.034605970807    -0.677106161756    -0.000011974384     1.007825032230
         H            2.034605029193    -0.677107161756    -0.000021974384     1.007825032230
         H           -1.396766970807     1.785026838244    -0.000000974384     1.007825032230
         H            1.396767029193     1.785026838244     0.000013025616     1.007825032230
         H           -0.000000970807    -2.270974161756     0.000020325616     1.007825032230

  Basis Set: AUG-CC-PVTZ
    Blend: AUG-CC-PVTZ
  Basis Set: (AUG-CC-PVTZ AUX)
    Blend: AUG-CC-PVTZ-JKFIT
	 Reference Energy          =    -225.2750282567463103 [Eh]
	 Singles Energy            =      -0.0000000000000000 [Eh]
	 Same-Spin Energy          =      -0.2361474041206805 [Eh]
	 Opposite-Spin Energy      =      -0.7377284953706011 [Eh]
	 Correlation Energy        =      -0.9738758994912816 [Eh]
	 Total Energy              =    -226.2489041562375860 [Eh]

	 ================> DF-SCS-MP2 Energies <==================
	-----------------------------------------------------------
	 SCS Same-Spin Scale       =       0.3333333333333333 [-]
	 SCS Opposite-Spin Scale   =       1.2000000000000000 [-]
	 SCS Same-Spin Energy      =      -0.0787158013735602 [Eh]
	 SCS Opposite-Spin Energy  =      -0.8852741944447213 [Eh]
	 SCS Correlation Energy    =      -0.9639899958182815 [Eh]
	 SCS Total Energy          =    -226.2390182525645912 [Eh]
	-----------------------------------------------------------

  Dipole Moment: [D]
     X:    -0.0000      Y:    -1.3320      Z:    -0.0000     Total:     1.3320

*** Psi4 exiting successfully. Buy a developer a beer!
