                               Psi4 1.3.2 release

  ==> Input File <==

--------------------------------------------------------------------------
#psi4
#
memory 32 gb

molecule  {
1 1
  C       -0.6878560     0.9739330     0.0000000
  C        0.6831640     0.9771070     0.0000100
  N        1.0155946    -0.2694345    -0.0000165
  C        0.0027860    -1.1465230     0.0000170
  N       -1.0726430    -0.3472790    -0.0000090
  H       -2.0345360    -0.6815610    -0.0000170
  H        2.0378550    -0.6719290    -0.0000370
  H       -1.3988240     1.7865140    -0.0000060
  H        1.3901120     1.7931810     0.0000240
  H        0.0051580    -2.2268060     0.0000310
units angstrom
no_reorient  #important for SAPT in psi4, default
symmetry c1  #important for SAPT in psi4, default
}

set PROPERTIES_ORIGIN ["COM"]
properties('MP2/aug-cc-pvtz', properties = ['dipole'])
--------------------------------------------------------------------------

    Molecular point group: c1
  Charge       = 1
  Multiplicity = 1
  Basis Set: AUG-CC-PVTZ
    Blend: AUG-CC-PVTZ
  Basis Set: (AUG-CC-PVTZ AUX)
    Blend: AUG-CC-PVTZ-JKFIT

    Orbital Energies [Eh]
    ---------------------

    Doubly Occupied:

       1A    -15.856323     2A    -15.851857     3A    -11.545716
       4A    -11.472659     5A    -11.470541     6A     -1.608772
       7A     -1.433907     8A     -1.251898     9A     -1.089633
      10A     -1.050082    11A     -0.994189    12A     -0.873886
      13A     -0.853217    14A     -0.850972    15A     -0.817374
      16A     -0.793362    17A     -0.670497    18A     -0.538066

  @DF-RHF Final Energy:  -225.25960093403654

   => Energetics <=

    Nuclear Repulsion Energy =            174.3750364834569382
    One-Electron Energy =                -641.2233720223293858
    Two-Electron Energy =                 241.5887346048359063
    Total Energy =                       -225.2596009340365413
  Basis Set: (AUG-CC-PVTZ AUX)
    Blend: AUG-CC-PVTZ-RI
    Molecular point group: c1

    Geometry (in Angstrom), charge = 1, multiplicity = 1:

       Center              X                  Y                   Z               Mass
    ------------   -----------------  -----------------  -----------------  -----------------
         C           -0.675951321111     0.959193200005     0.000000552065    12.000000000000
         C            0.695068678889     0.962367200005     0.000010552065    12.000000000000
         N            1.027499278889    -0.284174299995    -0.000015947935    14.003074004430
         C            0.014690678889    -1.161262799995     0.000017552065    12.000000000000
         N           -1.060738321111    -0.362018799995    -0.000008447935    14.003074004430
         H           -2.022631321111    -0.696300799995    -0.000016447935     1.007825032230
         H            2.049759678889    -0.686668799995    -0.000036447935     1.007825032230
         H           -1.386919321111     1.771774200005    -0.000005447935     1.007825032230
         H            1.402016678889     1.778441200005     0.000024552065     1.007825032230
         H            0.017062678889    -2.241545799995     0.000031552065     1.007825032230

  Basis Set: AUG-CC-PVTZ
    Blend: AUG-CC-PVTZ
  Basis Set: (AUG-CC-PVTZ AUX)
    Blend: AUG-CC-PVTZ-JKFIT
	 Reference Energy          =    -225.2596009340365413 [Eh]
	 Singles Energy            =      -0.0000000000000000 [Eh]
	 Same-Spin Energy          =      -0.2382965838945494 [Eh]
	 Opposite-Spin Energy      =      -0.7395940226845138 [Eh]
	 Correlation Energy        =      -0.9778906065790632 [Eh]
	 Total Energy              =    -226.2374915406155935 [Eh]

	 ================> DF-SCS-MP2 Energies <==================
	-----------------------------------------------------------
	 SCS Same-Spin Scale       =       0.3333333333333333 [-]
	 SCS Opposite-Spin Scale   =       1.2000000000000000 [-]
	 SCS Same-Spin Energy      =      -0.0794321946315165 [Eh]
	 SCS Opposite-Spin Energy  =      -0.8875128272214166 [Eh]
	 SCS Correlation Energy    =      -0.9669450218529331 [Eh]
	 SCS Total Energy          =    -226.2265459558894634 [Eh]
	-----------------------------------------------------------

  Dipole Moment: [D]
     X:     0.2158      Y:    -1.3291      Z:    -0.0000     Total:     1.3465

*** Psi4 exiting successfully. Buy a developer a beer!
