                               Psi4 1.3.2 release

  ==> Input File <==

--------------------------------------------------------------------------
#psi4
#
memory 32 gb

molecule  {
1 1
  C       -0.6878560     0.9739330     0.0000000
  C        0.6831640     0.9771070     0.0000100
  N        1.0743100    -0.3422210    -0.0000140
  C        0.0027860    -1.1465230     0.0000170
  N       -1.0726430    -0.3472790    -0.0000090
  H       -2.0345360    -0.6815610    -0.0000170
  H        2.0378550    -0.6719290    -0.0000370
  H       -1.3988240     1.7865140    -0.0000060
  H        1.3246357     1.7175976     0.0000227
  H        0.0051580    -2.2268060     0.0000310
units angstrom
no_reorient  #important for SAPT in psi4, default
symmetry c1  #important for SAPT in psi4, default
}

set PROPERTIES_ORIGIN ["COM"]
properties('MP2/aug-cc-pvtz', properties = ['dipole'])
--------------------------------------------------------------------------

    Molecular point group: c1
  Charge       = 1
  Multiplicity = 1
  Basis Set: AUG-CC-PVTZ
    Blend: AUG-CC-PVTZ
  Basis Set: (AUG-CC-PVTZ AUX)
    Blend: AUG-CC-PVTZ-JKFIT

    Orbital Energies [Eh]
    ---------------------

    Doubly Occupied:

       1A    -15.852828     2A    -15.852700     3A    -11.555265
       4A    -11.477632     5A    -11.467441     6A     -1.593796
       7A     -1.432427     8A     -1.249681     9A     -1.097545
      10A     -1.055199    11A     -0.998855    12A     -0.896061
      13A     -0.844260    14A     -0.841872    15A     -0.831007
      16A     -0.807910    17A     -0.666868    18A     -0.544294

  @DF-RHF Final Energy:  -225.27060855272435

   => Energetics <=

    Nuclear Repulsion Energy =            173.2326895822504298
    One-Electron Energy =                -638.8753196639107728
    Two-Electron Energy =                 240.3720215289359885
    Total Energy =                       -225.2706085527243545
  Basis Set: (AUG-CC-PVTZ AUX)
    Blend: AUG-CC-PVTZ-RI
    Molecular point group: c1

    Geometry (in Angstrom), charge = 1, multiplicity = 1:

       Center              X                  Y                   Z               Mass
    ------------   -----------------  -----------------  -----------------  -----------------
         C           -0.686903662995     0.975058291680     0.000000064016    12.000000000000
         C            0.684116337005     0.978232291680     0.000010064016    12.000000000000
         N            1.075262337005    -0.341095708320    -0.000013935984    14.003074004430
         C            0.003738337005    -1.145397708320     0.000017064016    12.000000000000
         N           -1.071690662995    -0.346153708320    -0.000008935984    14.003074004430
         H           -2.033583662995    -0.680435708320    -0.000016935984     1.007825032230
         H            2.038807337005    -0.670803708320    -0.000036935984     1.007825032230
         H           -1.397871662995     1.787639291680    -0.000005935984     1.007825032230
         H            1.325588037005     1.718722891680     0.000022764016     1.007825032230
         H            0.006110337005    -2.225680708320     0.000031064016     1.007825032230

  Basis Set: AUG-CC-PVTZ
    Blend: AUG-CC-PVTZ
  Basis Set: (AUG-CC-PVTZ AUX)
    Blend: AUG-CC-PVTZ-JKFIT
	 Reference Energy          =    -225.2706085527243545 [Eh]
	 Singles Energy            =      -0.0000000000000000 [Eh]
	 Same-Spin Energy          =      -0.2359217783725166 [Eh]
	 Opposite-Spin Energy      =      -0.7372045104948715 [Eh]
	 Correlation Energy        =      -0.9731262888673881 [Eh]
	 Total Energy              =    -226.2437348415917313 [Eh]

	 ================> DF-SCS-MP2 Energies <==================
	-----------------------------------------------------------
	 SCS Same-Spin Scale       =       0.3333333333333333 [-]
	 SCS Opposite-Spin Scale   =       1.2000000000000000 [-]
	 SCS Same-Spin Energy      =      -0.0786405927908388 [Eh]
	 SCS Opposite-Spin Energy  =      -0.8846454125938458 [Eh]
	 SCS Correlation Energy    =      -0.9632860053846846 [Eh]
	 SCS Total Energy          =    -226.2338945581090286 [Eh]
	-----------------------------------------------------------

  Dipole Moment: [D]
     X:    -0.0523      Y:    -1.3352      Z:    -0.0000     Total:     1.3362

*** Psi4 exiting successfully. Buy a developer a beer!
