                               Psi4 1.3.2 release

  ==> Input File <==

--------------------------------------------------------------------------
#psi4
#
memory 32 gb

molecule  {
1 1
  C       -0.6878560     0.9739330     0.0000000
  C        0.8232141     1.0107655     0.0000054
  N        1.0743100    -0.3422210    -0.0000140
  C        0.0027860    -1.1465230     0.0000170
  N       -1.0726430    -0.3472790    -0.0000090
  H       -2.0345360    -0.6815610    -0.0000170
  H        2.0378550    -0.6719290    -0.0000370
  H       -1.3988240     1.7865140    -0.0000060
  H        1.3901120     1.7931810     0.0000240
  H        0.0051580    -2.2268060     0.0000310
units angstrom
no_reorient  #important for SAPT in psi4, default
symmetry c1  #important for SAPT in psi4, default
}

set PROPERTIES_ORIGIN ["COM"]
properties('MP2/aug-cc-pvtz', properties = ['dipole'])
--------------------------------------------------------------------------

    Molecular point group: c1
  Charge       = 1
  Multiplicity = 1
  Basis Set: AUG-CC-PVTZ
    Blend: AUG-CC-PVTZ
  Basis Set: (AUG-CC-PVTZ AUX)
    Blend: AUG-CC-PVTZ-JKFIT

    Orbital Energies [Eh]
    ---------------------

    Doubly Occupied:

       1A    -15.860120     2A    -15.859431     3A    -11.549621
       4A    -11.496091     5A    -11.488982     6A     -1.587001
       7A     -1.436696     8A     -1.231218     9A     -1.092037
      10A     -1.062780    11A     -0.993541    12A     -0.896855
      13A     -0.870329    14A     -0.836962    15A     -0.830625
      16A     -0.767426    17A     -0.671341    18A     -0.521252

  @DF-RHF Final Energy:  -225.23823894411063

   => Energetics <=

    Nuclear Repulsion Energy =            170.8242576043697341
    One-Electron Energy =                -634.0203786238641896
    Two-Electron Energy =                 237.9578820753838215
    Total Energy =                       -225.2382389441106341
  Basis Set: (AUG-CC-PVTZ AUX)
    Blend: AUG-CC-PVTZ-RI
    Molecular point group: c1

    Geometry (in Angstrom), charge = 1, multiplicity = 1:

       Center              X                  Y                   Z               Mass
    ------------   -----------------  -----------------  -----------------  -----------------
         C           -0.712199961698     0.968105218421     0.000000844516    12.000000000000
         C            0.798870138302     1.004937718421     0.000006244516    12.000000000000
         N            1.049966038302    -0.348048781579    -0.000013155484    14.003074004430
         C           -0.021557961698    -1.152350781579     0.000017844516    12.000000000000
         N           -1.096986961698    -0.353106781579    -0.000008155484    14.003074004430
         H           -2.058879961698    -0.687388781579    -0.000016155484     1.007825032230
         H            2.013511038302    -0.677756781579    -0.000036155484     1.007825032230
         H           -1.423167961698     1.780686218421    -0.000005155484     1.007825032230
         H            1.365768038302     1.787353218421     0.000024844516     1.007825032230
         H           -0.019185961698    -2.232633781579     0.000031844516     1.007825032230

  Basis Set: AUG-CC-PVTZ
    Blend: AUG-CC-PVTZ
  Basis Set: (AUG-CC-PVTZ AUX)
    Blend: AUG-CC-PVTZ-JKFIT
	 Reference Energy          =    -225.2382389441106341 [Eh]
	 Singles Energy            =      -0.0000000000000000 [Eh]
	 Same-Spin Energy          =      -0.2387919705010274 [Eh]
	 Opposite-Spin Energy      =      -0.7434495713765266 [Eh]
	 Correlation Energy        =      -0.9822415418775539 [Eh]
	 Total Energy              =    -226.2204804859881904 [Eh]

	 ================> DF-SCS-MP2 Energies <==================
	-----------------------------------------------------------
	 SCS Same-Spin Scale       =       0.3333333333333333 [-]
	 SCS Opposite-Spin Scale   =       1.2000000000000000 [-]
	 SCS Same-Spin Energy      =      -0.0795973235003424 [Eh]
	 SCS Opposite-Spin Energy  =      -0.8921394856518319 [Eh]
	 SCS Correlation Energy    =      -0.9717368091521743 [Eh]
	 SCS Total Energy          =    -226.2099757532627962 [Eh]
	-----------------------------------------------------------

  Dipole Moment: [D]
     X:    -0.0795      Y:    -1.2501      Z:    -0.0000     Total:     1.2527

*** Psi4 exiting successfully. Buy a developer a beer!
