                               Psi4 1.4a3.dev225

  ==> Input File <==

--------------------------------------------------------------------------
#psi4
#
memory 32 gb

molecule  {
1 1
  C       -0.6853300     0.9742120     0.0000000
  C        0.6853300     0.9742120     0.0000080
  N        1.0731610    -0.3445600    -0.0000120
  C        0.0000000    -1.1430630     0.0000130
  N       -1.0731610    -0.3445590    -0.0000060
  H       -2.0346060    -0.6777470    -0.0000120
  H        2.0157076    -0.6711991    -0.0000218
  H       -1.3967670     1.7843860    -0.0000010
  H        1.3967670     1.7843860     0.0000130
  H       -0.0000010    -2.2216150     0.0000200
units angstrom
no_reorient  #important for SAPT in psi4, default
symmetry c1  #important for SAPT in psi4, default
}

set PROPERTIES_ORIGIN ["COM"]
properties('MP2/aug-cc-pvtz', properties = ['dipole'])
--------------------------------------------------------------------------

    Molecular point group: c1
  Charge       = 1
  Multiplicity = 1
  Basis Set: AUG-CC-PVTZ
    Blend: AUG-CC-PVTZ
  Basis Set: (AUG-CC-PVTZ AUX)
    Blend: AUG-CC-PVTZ-JKFIT

    Orbital Energies [Eh]
    ---------------------

    Doubly Occupied:

       1A    -15.852727     2A    -15.851054     3A    -11.554357
       4A    -11.477664     5A    -11.476240     6A     -1.595951
       7A     -1.435107     8A     -1.247131     9A     -1.101721
      10A     -1.048140    11A     -0.993701    12A     -0.900302
      13A     -0.843072    14A     -0.837245    15A     -0.817979
      16A     -0.805869    17A     -0.667754    18A     -0.544040

  @DF-RHF Final Energy:  -225.27782788486542

   => Energetics <=

    Nuclear Repulsion Energy =            173.0359876890700264
    One-Electron Energy =                -638.5275230971038809
    Two-Electron Energy =                 240.2137075231684662
    Total Energy =                       -225.2778278848654168
  Basis Set: (AUG-CC-PVTZ AUX)
    Blend: AUG-CC-PVTZ-RI
    Molecular point group: c1

    Geometry (in Angstrom), charge = 1, multiplicity = 1:

       Center              X                  Y                   Z               Mass
    ------------   -----------------  -----------------  -----------------  -----------------
         C           -0.685054133347     0.974027417554     0.000000027075    12.000000000000
         C            0.685605866653     0.974027417554     0.000008027075    12.000000000000
         N            1.073436866653    -0.344744582446    -0.000011972925    14.003074004430
         C            0.000275866653    -1.143247582446     0.000013027075    12.000000000000
         N           -1.072885133347    -0.344743582446    -0.000005972925    14.003074004430
         H           -2.034330133347    -0.677931582446    -0.000011972925     1.007825032230
         H            2.015983466653    -0.671383682446    -0.000021772925     1.007825032230
         H           -1.396491133347     1.784201417554    -0.000000972925     1.007825032230
         H            1.397042866653     1.784201417554     0.000013027075     1.007825032230
         H            0.000274866653    -2.221799582446     0.000020027075     1.007825032230

  Basis Set: AUG-CC-PVTZ
    Blend: AUG-CC-PVTZ
  Basis Set: (AUG-CC-PVTZ AUX)
    Blend: AUG-CC-PVTZ-JKFIT
	 Reference Energy          =    -225.2778278848654168 [Eh]
	 Singles Energy            =      -0.0000000000000000 [Eh]
	 Same-Spin Energy          =      -0.2358915864962940 [Eh]
	 Opposite-Spin Energy      =      -0.7370552692317409 [Eh]
	 Correlation Energy        =      -0.9729468557280350 [Eh]
	 Total Energy              =    -226.2507747405934424 [Eh]

	 ================> DF-SCS-MP2 Energies <==================
	-----------------------------------------------------------
	 SCS Same-Spin Scale       =       0.3333333333333333 [-]
	 SCS Opposite-Spin Scale   =       1.2000000000000000 [-]
	 SCS Same-Spin Energy      =      -0.0786305288320980 [Eh]
	 SCS Opposite-Spin Energy  =      -0.8844663230780890 [Eh]
	 SCS Correlation Energy    =      -0.9630968519101870 [Eh]
	 SCS Total Energy          =    -226.2409247367756109 [Eh]
	-----------------------------------------------------------

  Dipole Moment: [D]
     X:    -0.0398      Y:    -1.2668      Z:    -0.0000     Total:     1.2675

*** Psi4 exiting successfully. Buy a developer a beer!
