                               Psi4 1.4a3.dev225

  ==> Input File <==

--------------------------------------------------------------------------
#psi4
#
memory 32 gb

molecule  {
1 1
  C       -0.6853300     0.9742120     0.0000000
  C        0.6853300     0.9742120     0.0000080
  N        1.0731610    -0.3445600    -0.0000120
  C        0.0000000    -1.1430630     0.0000130
  N       -1.0731610    -0.3445590    -0.0000060
  H       -2.0346060    -0.6777470    -0.0000120
  H        1.9873615    -0.6613758    -0.0000215
  H       -1.3967670     1.7843860    -0.0000010
  H        1.3967670     1.7843860     0.0000130
  H       -0.0000010    -2.2216150     0.0000200
units angstrom
no_reorient  #important for SAPT in psi4, default
symmetry c1  #important for SAPT in psi4, default
}

set PROPERTIES_ORIGIN ["COM"]
properties('MP2/aug-cc-pvtz', properties = ['dipole'])
--------------------------------------------------------------------------

    Molecular point group: c1
  Charge       = 1
  Multiplicity = 1
  Basis Set: AUG-CC-PVTZ
    Blend: AUG-CC-PVTZ
  Basis Set: (AUG-CC-PVTZ AUX)
    Blend: AUG-CC-PVTZ-JKFIT

    Orbital Energies [Eh]
    ---------------------

    Doubly Occupied:

       1A    -15.853296     2A    -15.848976     3A    -11.555037
       4A    -11.478110     5A    -11.476686     6A     -1.597374
       7A     -1.438390     8A     -1.247946     9A     -1.107778
      10A     -1.049309    11A     -0.994666    12A     -0.905078
      13A     -0.843788    14A     -0.838031    15A     -0.818484
      16A     -0.806988    17A     -0.668702    18A     -0.544531

  @DF-RHF Final Energy:  -225.27705191240565

   => Energetics <=

    Nuclear Repulsion Energy =            173.2135353825113384
    One-Electron Energy =                -638.8348351613049090
    Two-Electron Energy =                 240.3442478663879172
    Total Energy =                       -225.2770519124056534
  Basis Set: (AUG-CC-PVTZ AUX)
    Blend: AUG-CC-PVTZ-RI
    Molecular point group: c1

    Geometry (in Angstrom), charge = 1, multiplicity = 1:

       Center              X                  Y                   Z               Mass
    ------------   -----------------  -----------------  -----------------  -----------------
         C           -0.684640377157     0.973884030945     0.000000022696    12.000000000000
         C            0.686019622843     0.973884030945     0.000008022696    12.000000000000
         N            1.073850622843    -0.344887969055    -0.000011977304    14.003074004430
         C            0.000689622843    -1.143390969055     0.000013022696    12.000000000000
         N           -1.072471377157    -0.344886969055    -0.000005977304    14.003074004430
         H           -2.033916377157    -0.678074969055    -0.000011977304     1.007825032230
         H            1.988051122843    -0.661703769055    -0.000021477304     1.007825032230
         H           -1.396077377157     1.784058030945    -0.000000977304     1.007825032230
         H            1.397456622843     1.784058030945     0.000013022696     1.007825032230
         H            0.000688622843    -2.221942969055     0.000020022696     1.007825032230

  Basis Set: AUG-CC-PVTZ
    Blend: AUG-CC-PVTZ
  Basis Set: (AUG-CC-PVTZ AUX)
    Blend: AUG-CC-PVTZ-JKFIT
	 Reference Energy          =    -225.2770519124056534 [Eh]
	 Singles Energy            =      -0.0000000000000000 [Eh]
	 Same-Spin Energy          =      -0.2356701999080715 [Eh]
	 Opposite-Spin Energy      =      -0.7365840312268808 [Eh]
	 Correlation Energy        =      -0.9722542311349522 [Eh]
	 Total Energy              =    -226.2493061435405934 [Eh]

	 ================> DF-SCS-MP2 Energies <==================
	-----------------------------------------------------------
	 SCS Same-Spin Scale       =       0.3333333333333333 [-]
	 SCS Opposite-Spin Scale   =       1.2000000000000000 [-]
	 SCS Same-Spin Energy      =      -0.0785567333026905 [Eh]
	 SCS Opposite-Spin Energy  =      -0.8839008374722569 [Eh]
	 SCS Correlation Energy    =      -0.9624575707749474 [Eh]
	 SCS Total Energy          =    -226.2395094831805977 [Eh]
	-----------------------------------------------------------

  Dipole Moment: [D]
     X:    -0.0984      Y:    -1.2500      Z:    -0.0000     Total:     1.2538

*** Psi4 exiting successfully. Buy a developer a beer!
