                               Psi4 1.3.2 release

  ==> Input File <==

--------------------------------------------------------------------------
#psi4
#
memory 32 gb

molecule  {
0 1
  C       -0.4111520    -0.7126550     0.0000000
  C       -1.9333033    -0.7802951     0.0000000
  C       -2.4211380    -2.2516450     0.0000000
  N        0.0000000     0.6708000     0.0000000
  C        1.2895240     1.1529650     0.0000000
  N        1.4680370     2.4337510     0.0000000
  N        2.2639170     0.1721360     0.0000000
  H       -0.0251680    -1.2402640     0.8864350
  H       -0.0251680    -1.2402640    -0.8864350
  H       -2.3164570    -0.2812890     0.8815700
  H       -2.3164570    -0.2812890    -0.8815700
  H       -3.5133300    -2.2957770     0.0000000
  H       -2.0641790    -2.7865400    -0.8851380
  H       -2.0641790    -2.7865400     0.8851380
  H       -0.7011600     1.3990150     0.0000000
  H        2.4653750     2.6550960     0.0000000
  H        2.0510630    -0.8112120     0.0000000
  H        3.2339250     0.4413680     0.0000000
units angstrom
no_reorient  #important for SAPT in psi4, default
symmetry c1  #important for SAPT in psi4, default
}

set PROPERTIES_ORIGIN ["COM"]
properties('MP2/aug-cc-pvtz', properties = ['dipole'])
--------------------------------------------------------------------------

    Molecular point group: c1
  Charge       = 0
  Multiplicity = 1
  Basis Set: AUG-CC-PVTZ
    Blend: AUG-CC-PVTZ
  Basis Set: (AUG-CC-PVTZ AUX)
    Blend: AUG-CC-PVTZ-JKFIT

    Orbital Energies [Eh]
    ---------------------

    Doubly Occupied:

       1A    -15.577123     2A    -15.561870     3A    -15.490842
       4A    -11.340352     5A    -11.271116     6A    -11.234773
       7A    -11.226865     8A     -1.292508     9A     -1.182039
      10A     -1.124421    11A     -1.052693    12A     -0.930488
      13A     -0.829608    14A     -0.806456    15A     -0.721729
      16A     -0.691030    17A     -0.664159    18A     -0.629380
      19A     -0.598557    20A     -0.586703    21A     -0.566173
      22A     -0.531762    23A     -0.506432    24A     -0.494732
      25A     -0.494660    26A     -0.411687    27A     -0.403071
      28A     -0.330482

  @DF-RHF Final Energy:  -321.34356848063709

   => Energetics <=

    Nuclear Repulsion Energy =            308.8681402451178997
    One-Electron Energy =               -1047.3199924170396571
    Two-Electron Energy =                 417.1082836912846119
    Total Energy =                       -321.3435684806370887
  Basis Set: (AUG-CC-PVTZ AUX)
    Blend: AUG-CC-PVTZ-RI
    Molecular point group: c1

    Geometry (in Angstrom), charge = 0, multiplicity = 1:

       Center              X                  Y                   Z               Mass
    ------------   -----------------  -----------------  -----------------  -----------------
         C           -0.462875262930    -0.786841204418     0.000000000000    12.000000000000
         C           -1.985026562930    -0.854481304418     0.000000000000    12.000000000000
         C           -2.472861262930    -2.325831204418     0.000000000000    12.000000000000
         N           -0.051723262930     0.596613795582     0.000000000000    14.003074004430
         C            1.237800737070     1.078778795582     0.000000000000    12.000000000000
         N            1.416313737070     2.359564795582     0.000000000000    14.003074004430
         N            2.212193737070     0.097949795582     0.000000000000    14.003074004430
         H           -0.076891262930    -1.314450204418     0.886435000000     1.007825032230
         H           -0.076891262930    -1.314450204418    -0.886435000000     1.007825032230
         H           -2.368180262930    -0.355475204418     0.881570000000     1.007825032230
         H           -2.368180262930    -0.355475204418    -0.881570000000     1.007825032230
         H           -3.565053262930    -2.369963204418     0.000000000000     1.007825032230
         H           -2.115902262930    -2.860726204418    -0.885138000000     1.007825032230
         H           -2.115902262930    -2.860726204418     0.885138000000     1.007825032230
         H           -0.752883262930     1.324828795582     0.000000000000     1.007825032230
         H            2.413651737070     2.580909795582     0.000000000000     1.007825032230
         H            1.999339737070    -0.885398204418     0.000000000000     1.007825032230
         H            3.182201737070     0.367181795582     0.000000000000     1.007825032230

  Basis Set: AUG-CC-PVTZ
    Blend: AUG-CC-PVTZ
  Basis Set: (AUG-CC-PVTZ AUX)
    Blend: AUG-CC-PVTZ-JKFIT
	 Reference Energy          =    -321.3435684806370887 [Eh]
	 Singles Energy            =      -0.0000000000000000 [Eh]
	 Same-Spin Energy          =      -0.3378087863826128 [Eh]
	 Opposite-Spin Energy      =      -1.1253087379253763 [Eh]
	 Correlation Energy        =      -1.4631175243079890 [Eh]
	 Total Energy              =    -322.8066860049450497 [Eh]

	 ================> DF-SCS-MP2 Energies <==================
	-----------------------------------------------------------
	 SCS Same-Spin Scale       =       0.3333333333333333 [-]
	 SCS Opposite-Spin Scale   =       1.2000000000000000 [-]
	 SCS Same-Spin Energy      =      -0.1126029287942043 [Eh]
	 SCS Opposite-Spin Energy  =      -1.3503704855104515 [Eh]
	 SCS Correlation Energy    =      -1.4629734143046558 [Eh]
	 SCS Total Energy          =    -322.8065418949417449 [Eh]
	-----------------------------------------------------------

  Dipole Moment: [D]
     X:     0.0784      Y:    -3.8817      Z:    -0.0000     Total:     3.8825

*** Psi4 exiting successfully. Buy a developer a beer!
