                               Psi4 1.3.2 release

  ==> Input File <==

--------------------------------------------------------------------------
#psi4
#
memory 32 gb

molecule  {
0 1
  C       -0.4111520    -0.7126550     0.0000000
  C       -1.9347573    -0.7005392     0.0000000
  C       -2.4211380    -2.2516450     0.0000000
  N        0.0000000     0.6708000     0.0000000
  C        1.2895240     1.1529650     0.0000000
  N        1.4680370     2.4337510     0.0000000
  N        2.2639170     0.1721360     0.0000000
  H       -0.0251680    -1.2402640     0.8864350
  H       -0.0251680    -1.2402640    -0.8864350
  H       -2.3164570    -0.2812890     0.8815700
  H       -2.3164570    -0.2812890    -0.8815700
  H       -3.5133300    -2.2957770     0.0000000
  H       -2.0641790    -2.7865400    -0.8851380
  H       -2.0641790    -2.7865400     0.8851380
  H       -0.7011600     1.3990150     0.0000000
  H        2.4653750     2.6550960     0.0000000
  H        2.0510630    -0.8112120     0.0000000
  H        3.2339250     0.4413680     0.0000000
units angstrom
no_reorient  #important for SAPT in psi4, default
symmetry c1  #important for SAPT in psi4, default
}

set PROPERTIES_ORIGIN ["COM"]
properties('MP2/aug-cc-pvtz', properties = ['dipole'])
--------------------------------------------------------------------------

    Molecular point group: c1
  Charge       = 0
  Multiplicity = 1
  Basis Set: AUG-CC-PVTZ
    Blend: AUG-CC-PVTZ
  Basis Set: (AUG-CC-PVTZ AUX)
    Blend: AUG-CC-PVTZ-JKFIT

    Orbital Energies [Eh]
    ---------------------

    Doubly Occupied:

       1A    -15.577129     2A    -15.560419     3A    -15.490380
       4A    -11.339247     5A    -11.271590     6A    -11.232675
       7A    -11.228425     8A     -1.292263     9A     -1.182443
      10A     -1.124072    11A     -1.044389    12A     -0.925591
      13A     -0.837699    14A     -0.806281    15A     -0.721857
      16A     -0.689765    17A     -0.669121    18A     -0.628633
      19A     -0.594804    20A     -0.587024    21A     -0.564840
      22A     -0.532304    23A     -0.509197    24A     -0.504789
      25A     -0.477986    26A     -0.410930    27A     -0.402855
      28A     -0.330084

  @DF-RHF Final Energy:  -321.33422685520105

   => Energetics <=

    Nuclear Repulsion Energy =            308.6838622576830176
    One-Electron Energy =               -1046.9625943124478908
    Two-Electron Energy =                 416.9445051995638210
    Total Energy =                       -321.3342268552010523
  Basis Set: (AUG-CC-PVTZ AUX)
    Blend: AUG-CC-PVTZ-RI
    Molecular point group: c1

    Geometry (in Angstrom), charge = 0, multiplicity = 1:

       Center              X                  Y                   Z               Mass
    ------------   -----------------  -----------------  -----------------  -----------------
         C           -0.462702673299    -0.796308220440     0.000000000000    12.000000000000
         C           -1.986307973299    -0.784192420440     0.000000000000    12.000000000000
         C           -2.472688673299    -2.335298220440     0.000000000000    12.000000000000
         N           -0.051550673299     0.587146779560     0.000000000000    14.003074004430
         C            1.237973326701     1.069311779560     0.000000000000    12.000000000000
         N            1.416486326701     2.350097779560     0.000000000000    14.003074004430
         N            2.212366326701     0.088482779560     0.000000000000    14.003074004430
         H           -0.076718673299    -1.323917220440     0.886435000000     1.007825032230
         H           -0.076718673299    -1.323917220440    -0.886435000000     1.007825032230
         H           -2.368007673299    -0.364942220440     0.881570000000     1.007825032230
         H           -2.368007673299    -0.364942220440    -0.881570000000     1.007825032230
         H           -3.564880673299    -2.379430220440     0.000000000000     1.007825032230
         H           -2.115729673299    -2.870193220440    -0.885138000000     1.007825032230
         H           -2.115729673299    -2.870193220440     0.885138000000     1.007825032230
         H           -0.752710673299     1.315361779560     0.000000000000     1.007825032230
         H            2.413824326701     2.571442779560     0.000000000000     1.007825032230
         H            1.999512326701    -0.894865220440     0.000000000000     1.007825032230
         H            3.182374326701     0.357714779560     0.000000000000     1.007825032230

  Basis Set: AUG-CC-PVTZ
    Blend: AUG-CC-PVTZ
  Basis Set: (AUG-CC-PVTZ AUX)
    Blend: AUG-CC-PVTZ-JKFIT
	 Reference Energy          =    -321.3342268552010523 [Eh]
	 Singles Energy            =      -0.0000000000000000 [Eh]
	 Same-Spin Energy          =      -0.3377599389227559 [Eh]
	 Opposite-Spin Energy      =      -1.1256803950666012 [Eh]
	 Correlation Energy        =      -1.4634403339893571 [Eh]
	 Total Energy              =    -322.7976671891904061 [Eh]

	 ================> DF-SCS-MP2 Energies <==================
	-----------------------------------------------------------
	 SCS Same-Spin Scale       =       0.3333333333333333 [-]
	 SCS Opposite-Spin Scale   =       1.2000000000000000 [-]
	 SCS Same-Spin Energy      =      -0.1125866463075853 [Eh]
	 SCS Opposite-Spin Energy  =      -1.3508164740799213 [Eh]
	 SCS Correlation Energy    =      -1.4634031203875066 [Eh]
	 SCS Total Energy          =    -322.7976299755885634 [Eh]
	-----------------------------------------------------------

  Dipole Moment: [D]
     X:     0.0857      Y:    -3.8616      Z:     0.0000     Total:     3.8626

*** Psi4 exiting successfully. Buy a developer a beer!
