                               Psi4 1.3.2 release

  ==> Input File <==

--------------------------------------------------------------------------
#psi4
#
memory 32 gb

molecule  {
0 1
  C       -0.4111520    -0.7126550     0.0000000
  C       -1.9137142    -0.9652945     0.0000000
  C       -2.4211380    -2.2516450     0.0000000
  N        0.0000000     0.6708000     0.0000000
  C        1.2895240     1.1529650     0.0000000
  N        1.4680370     2.4337510     0.0000000
  N        2.2639170     0.1721360     0.0000000
  H       -0.0251680    -1.2402640     0.8864350
  H       -0.0251680    -1.2402640    -0.8864350
  H       -2.3164570    -0.2812890     0.8815700
  H       -2.3164570    -0.2812890    -0.8815700
  H       -3.5133300    -2.2957770     0.0000000
  H       -2.0641790    -2.7865400    -0.8851380
  H       -2.0641790    -2.7865400     0.8851380
  H       -0.7011600     1.3990150     0.0000000
  H        2.4653750     2.6550960     0.0000000
  H        2.0510630    -0.8112120     0.0000000
  H        3.2339250     0.4413680     0.0000000
units angstrom
no_reorient  #important for SAPT in psi4, default
symmetry c1  #important for SAPT in psi4, default
}

set PROPERTIES_ORIGIN ["COM"]
properties('MP2/aug-cc-pvtz', properties = ['dipole'])
--------------------------------------------------------------------------

    Molecular point group: c1
  Charge       = 0
  Multiplicity = 1
  Basis Set: AUG-CC-PVTZ
    Blend: AUG-CC-PVTZ
  Basis Set: (AUG-CC-PVTZ AUX)
    Blend: AUG-CC-PVTZ-JKFIT

    Orbital Energies [Eh]
    ---------------------

    Doubly Occupied:

       1A    -15.577529     2A    -15.566232     3A    -15.492442
       4A    -11.343407     5A    -11.273492     6A    -11.246600
       7A    -11.222239     8A     -1.293936     9A     -1.182601
      10A     -1.126435    11A     -1.082575    12A     -0.944034
      13A     -0.812711    14A     -0.803958    15A     -0.722498
      16A     -0.694444    17A     -0.660525    18A     -0.633222
      19A     -0.612744    20A     -0.592455    21A     -0.570693
      22A     -0.559193    23A     -0.532530    24A     -0.470573
      25A     -0.447286    26A     -0.413517    27A     -0.404080
      28A     -0.332023

  @DF-RHF Final Energy:  -321.31343704165903

   => Energetics <=

    Nuclear Repulsion Energy =            309.5234271079457358
    One-Electron Energy =               -1048.4457834383078989
    Two-Electron Energy =                 417.6089192887031345
    Total Energy =                       -321.3134370416590286
  Basis Set: (AUG-CC-PVTZ AUX)
    Blend: AUG-CC-PVTZ-RI
    Molecular point group: c1

    Geometry (in Angstrom), charge = 0, multiplicity = 1:

       Center              X                  Y                   Z               Mass
    ------------   -----------------  -----------------  -----------------  -----------------
         C           -0.465200486814    -0.764881797227     0.000000000000    12.000000000000
         C           -1.967762686814    -1.017521297227     0.000000000000    12.000000000000
         C           -2.475186486814    -2.303871797227     0.000000000000    12.000000000000
         N           -0.054048486814     0.618573202773     0.000000000000    14.003074004430
         C            1.235475513186     1.100738202773     0.000000000000    12.000000000000
         N            1.413988513186     2.381524202773     0.000000000000    14.003074004430
         N            2.209868513186     0.119909202773     0.000000000000    14.003074004430
         H           -0.079216486814    -1.292490797227     0.886435000000     1.007825032230
         H           -0.079216486814    -1.292490797227    -0.886435000000     1.007825032230
         H           -2.370505486814    -0.333515797227     0.881570000000     1.007825032230
         H           -2.370505486814    -0.333515797227    -0.881570000000     1.007825032230
         H           -3.567378486814    -2.348003797227     0.000000000000     1.007825032230
         H           -2.118227486814    -2.838766797227    -0.885138000000     1.007825032230
         H           -2.118227486814    -2.838766797227     0.885138000000     1.007825032230
         H           -0.755208486814     1.346788202773     0.000000000000     1.007825032230
         H            2.411326513186     2.602869202773     0.000000000000     1.007825032230
         H            1.997014513186    -0.863438797227     0.000000000000     1.007825032230
         H            3.179876513186     0.389141202773     0.000000000000     1.007825032230

  Basis Set: AUG-CC-PVTZ
    Blend: AUG-CC-PVTZ
  Basis Set: (AUG-CC-PVTZ AUX)
    Blend: AUG-CC-PVTZ-JKFIT
	 Reference Energy          =    -321.3134370416590286 [Eh]
	 Singles Energy            =      -0.0000000000000000 [Eh]
	 Same-Spin Energy          =      -0.3396047706341295 [Eh]
	 Opposite-Spin Energy      =      -1.1277660323888457 [Eh]
	 Correlation Energy        =      -1.4673708030229751 [Eh]
	 Total Energy              =    -322.7808078446819877 [Eh]

	 ================> DF-SCS-MP2 Energies <==================
	-----------------------------------------------------------
	 SCS Same-Spin Scale       =       0.3333333333333333 [-]
	 SCS Opposite-Spin Scale   =       1.2000000000000000 [-]
	 SCS Same-Spin Energy      =      -0.1132015902113765 [Eh]
	 SCS Opposite-Spin Energy  =      -1.3533192388666146 [Eh]
	 SCS Correlation Energy    =      -1.4665208290779912 [Eh]
	 SCS Total Energy          =    -322.7799578707370074 [Eh]
	-----------------------------------------------------------

  Dipole Moment: [D]
     X:     0.1073      Y:    -3.9678      Z:    -0.0000     Total:     3.9692

*** Psi4 exiting successfully. Buy a developer a beer!
