                               Psi4 1.3.2 release

  ==> Input File <==

--------------------------------------------------------------------------
#psi4
#
memory 32 gb

molecule  {
0 1
  C       -0.4111520    -0.7126550     0.0000000
  C       -1.9300155    -0.8333762     0.0000000
  C       -2.4211380    -2.2516450     0.0000000
  N        0.0000000     0.6708000     0.0000000
  C        1.2895240     1.1529650     0.0000000
  N        1.4680370     2.4337510     0.0000000
  N        2.2639170     0.1721360     0.0000000
  H       -0.0251680    -1.2402640     0.8864350
  H       -0.0251680    -1.2402640    -0.8864350
  H       -2.3164570    -0.2812890     0.8815700
  H       -2.3164570    -0.2812890    -0.8815700
  H       -3.5133300    -2.2957770     0.0000000
  H       -2.0641790    -2.7865400    -0.8851380
  H       -2.0641790    -2.7865400     0.8851380
  H       -0.7011600     1.3990150     0.0000000
  H        2.4653750     2.6550960     0.0000000
  H        2.0510630    -0.8112120     0.0000000
  H        3.2339250     0.4413680     0.0000000
units angstrom
no_reorient  #important for SAPT in psi4, default
symmetry c1  #important for SAPT in psi4, default
}

set PROPERTIES_ORIGIN ["COM"]
properties('MP2/aug-cc-pvtz', properties = ['dipole'])
--------------------------------------------------------------------------

    Molecular point group: c1
  Charge       = 0
  Multiplicity = 1
  Basis Set: AUG-CC-PVTZ
    Blend: AUG-CC-PVTZ
  Basis Set: (AUG-CC-PVTZ AUX)
    Blend: AUG-CC-PVTZ-JKFIT

    Orbital Energies [Eh]
    ---------------------

    Doubly Occupied:

       1A    -15.577183     2A    -15.562991     3A    -15.491231
       4A    -11.341164     5A    -11.271271     6A    -11.237236
       7A    -11.225616     8A     -1.292804     9A     -1.181990
      10A     -1.124797    11A     -1.059645    12A     -0.934099
      13A     -0.823985    14A     -0.806568    15A     -0.721794
      16A     -0.691956    17A     -0.661961    18A     -0.630153
      19A     -0.601700    20A     -0.587449    21A     -0.567300
      22A     -0.531746    23A     -0.522351    24A     -0.489454
      25A     -0.482622    26A     -0.412187    27A     -0.403310
      28A     -0.330844

  @DF-RHF Final Energy:  -321.34303259533914

   => Energetics <=

    Nuclear Repulsion Energy =            309.0216717929117749
    One-Electron Energy =               -1047.5985922361114717
    Two-Electron Energy =                 417.2338878478605579
    Total Energy =                       -321.3430325953391389
  Basis Set: (AUG-CC-PVTZ AUX)
    Blend: AUG-CC-PVTZ-RI
    Molecular point group: c1

    Geometry (in Angstrom), charge = 0, multiplicity = 1:

       Center              X                  Y                   Z               Mass
    ------------   -----------------  -----------------  -----------------  -----------------
         C           -0.463265524406    -0.780540484042     0.000000000000    12.000000000000
         C           -1.982129024406    -0.901261684042     0.000000000000    12.000000000000
         C           -2.473251524406    -2.319530484042     0.000000000000    12.000000000000
         N           -0.052113524406     0.602914515958     0.000000000000    14.003074004430
         C            1.237410475594     1.085079515958     0.000000000000    12.000000000000
         N            1.415923475594     2.365865515958     0.000000000000    14.003074004430
         N            2.211803475594     0.104250515958     0.000000000000    14.003074004430
         H           -0.077281524406    -1.308149484042     0.886435000000     1.007825032230
         H           -0.077281524406    -1.308149484042    -0.886435000000     1.007825032230
         H           -2.368570524406    -0.349174484042     0.881570000000     1.007825032230
         H           -2.368570524406    -0.349174484042    -0.881570000000     1.007825032230
         H           -3.565443524406    -2.363662484042     0.000000000000     1.007825032230
         H           -2.116292524406    -2.854425484042    -0.885138000000     1.007825032230
         H           -2.116292524406    -2.854425484042     0.885138000000     1.007825032230
         H           -0.753273524406     1.331129515958     0.000000000000     1.007825032230
         H            2.413261475594     2.587210515958     0.000000000000     1.007825032230
         H            1.998949475594    -0.879097484042     0.000000000000     1.007825032230
         H            3.181811475594     0.373482515958     0.000000000000     1.007825032230

  Basis Set: AUG-CC-PVTZ
    Blend: AUG-CC-PVTZ
  Basis Set: (AUG-CC-PVTZ AUX)
    Blend: AUG-CC-PVTZ-JKFIT
	 Reference Energy          =    -321.3430325953391389 [Eh]
	 Singles Energy            =      -0.0000000000000000 [Eh]
	 Same-Spin Energy          =      -0.3380778500331103 [Eh]
	 Opposite-Spin Energy      =      -1.1255345111574844 [Eh]
	 Correlation Energy        =      -1.4636123611905947 [Eh]
	 Total Energy              =    -322.8066449565297376 [Eh]

	 ================> DF-SCS-MP2 Energies <==================
	-----------------------------------------------------------
	 SCS Same-Spin Scale       =       0.3333333333333333 [-]
	 SCS Opposite-Spin Scale   =       1.2000000000000000 [-]
	 SCS Same-Spin Energy      =      -0.1126926166777034 [Eh]
	 SCS Opposite-Spin Energy  =      -1.3506414133889812 [Eh]
	 SCS Correlation Energy    =      -1.4633340300666846 [Eh]
	 SCS Total Energy          =    -322.8063666254058148 [Eh]
	-----------------------------------------------------------

  Dipole Moment: [D]
     X:     0.0798      Y:    -3.8993      Z:     0.0000     Total:     3.9001

*** Psi4 exiting successfully. Buy a developer a beer!
