                               Psi4 1.3.2 release

  ==> Input File <==

--------------------------------------------------------------------------
#psi4
#
memory 32 gb

molecule  {
0 1
  C       -0.4111520    -0.7126550     0.0000000
  C       -1.9342520    -0.7537196     0.0000000
  C       -2.4211380    -2.2516450     0.0000000
  N        0.0000000     0.6708000     0.0000000
  C        1.2895240     1.1529650     0.0000000
  N        1.4680370     2.4337510     0.0000000
  N        2.2639170     0.1721360     0.0000000
  H       -0.0251680    -1.2402640     0.8864350
  H       -0.0251680    -1.2402640    -0.8864350
  H       -2.3164570    -0.2812890     0.8815700
  H       -2.3164570    -0.2812890    -0.8815700
  H       -3.5133300    -2.2957770     0.0000000
  H       -2.0641790    -2.7865400    -0.8851380
  H       -2.0641790    -2.7865400     0.8851380
  H       -0.7011600     1.3990150     0.0000000
  H        2.4653750     2.6550960     0.0000000
  H        2.0510630    -0.8112120     0.0000000
  H        3.2339250     0.4413680     0.0000000
units angstrom
no_reorient  #important for SAPT in psi4, default
symmetry c1  #important for SAPT in psi4, default
}

set PROPERTIES_ORIGIN ["COM"]
properties('MP2/aug-cc-pvtz', properties = ['dipole'])
--------------------------------------------------------------------------

    Molecular point group: c1
  Charge       = 0
  Multiplicity = 1
  Basis Set: AUG-CC-PVTZ
    Blend: AUG-CC-PVTZ
  Basis Set: (AUG-CC-PVTZ AUX)
    Blend: AUG-CC-PVTZ-JKFIT

    Orbital Energies [Eh]
    ---------------------

    Doubly Occupied:

       1A    -15.577113     2A    -15.561354     3A    -15.490671
       4A    -11.339968     5A    -11.271183     6A    -11.233853
       7A    -11.227431     8A     -1.292399     9A     -1.182129
      10A     -1.124278    11A     -1.049659    12A     -0.928782
      13A     -0.832372    14A     -0.806387    15A     -0.721742
      16A     -0.690590    17A     -0.665600    18A     -0.629078
      19A     -0.597184    20A     -0.586620    21A     -0.565680
      22A     -0.531864    23A     -0.501849    24A     -0.500022
      25A     -0.493462    26A     -0.411440    27A     -0.402979
      28A     -0.330329

  @DF-RHF Final Energy:  -321.34171596238082

   => Energetics <=

    Nuclear Repulsion Energy =            308.8008405544952666
    One-Electron Energy =               -1047.1930803724756061
    Two-Electron Energy =                 417.0505238555995220
    Total Energy =                       -321.3417159623808175
  Basis Set: (AUG-CC-PVTZ AUX)
    Blend: AUG-CC-PVTZ-RI
    Molecular point group: c1

    Geometry (in Angstrom), charge = 0, multiplicity = 1:

       Center              X                  Y                   Z               Mass
    ------------   -----------------  -----------------  -----------------  -----------------
         C           -0.462762652350    -0.789995713166     0.000000000000    12.000000000000
         C           -1.985862652350    -0.831060313166     0.000000000000    12.000000000000
         C           -2.472748652350    -2.328985713166     0.000000000000    12.000000000000
         N           -0.051610652350     0.593459286834     0.000000000000    14.003074004430
         C            1.237913347650     1.075624286834     0.000000000000    12.000000000000
         N            1.416426347650     2.356410286834     0.000000000000    14.003074004430
         N            2.212306347650     0.094795286834     0.000000000000    14.003074004430
         H           -0.076778652350    -1.317604713166     0.886435000000     1.007825032230
         H           -0.076778652350    -1.317604713166    -0.886435000000     1.007825032230
         H           -2.368067652350    -0.358629713166     0.881570000000     1.007825032230
         H           -2.368067652350    -0.358629713166    -0.881570000000     1.007825032230
         H           -3.564940652350    -2.373117713166     0.000000000000     1.007825032230
         H           -2.115789652350    -2.863880713166    -0.885138000000     1.007825032230
         H           -2.115789652350    -2.863880713166     0.885138000000     1.007825032230
         H           -0.752770652350     1.321674286834     0.000000000000     1.007825032230
         H            2.413764347650     2.577755286834     0.000000000000     1.007825032230
         H            1.999452347650    -0.888552713166     0.000000000000     1.007825032230
         H            3.182314347650     0.364027286834     0.000000000000     1.007825032230

  Basis Set: AUG-CC-PVTZ
    Blend: AUG-CC-PVTZ
  Basis Set: (AUG-CC-PVTZ AUX)
    Blend: AUG-CC-PVTZ-JKFIT
	 Reference Energy          =    -321.3417159623808175 [Eh]
	 Singles Energy            =      -0.0000000000000000 [Eh]
	 Same-Spin Energy          =      -0.3377457126856322 [Eh]
	 Opposite-Spin Energy      =      -1.1253380800881621 [Eh]
	 Correlation Energy        =      -1.4630837927737943 [Eh]
	 Total Energy              =    -322.8047997551545905 [Eh]

	 ================> DF-SCS-MP2 Energies <==================
	-----------------------------------------------------------
	 SCS Same-Spin Scale       =       0.3333333333333333 [-]
	 SCS Opposite-Spin Scale   =       1.2000000000000000 [-]
	 SCS Same-Spin Energy      =      -0.1125819042285441 [Eh]
	 SCS Opposite-Spin Energy  =      -1.3504056961057944 [Eh]
	 SCS Correlation Energy    =      -1.4629876003343385 [Eh]
	 SCS Total Energy          =    -322.8047035627151331 [Eh]
	-----------------------------------------------------------

  Dipole Moment: [D]
     X:     0.0796      Y:    -3.8743      Z:     0.0000     Total:     3.8751

*** Psi4 exiting successfully. Buy a developer a beer!
