                               Psi4 1.3.2 release

  ==> Input File <==

--------------------------------------------------------------------------
#psi4
#
memory 32 gb

molecule  {
0 1
  C       -0.4111520    -0.7126550     0.0000000
  C       -1.9216158    -0.9127019     0.0000000
  C       -2.4211380    -2.2516450     0.0000000
  N        0.0000000     0.6708000     0.0000000
  C        1.2895240     1.1529650     0.0000000
  N        1.4680370     2.4337510     0.0000000
  N        2.2639170     0.1721360     0.0000000
  H       -0.0251680    -1.2402640     0.8864350
  H       -0.0251680    -1.2402640    -0.8864350
  H       -2.3164570    -0.2812890     0.8815700
  H       -2.3164570    -0.2812890    -0.8815700
  H       -3.5133300    -2.2957770     0.0000000
  H       -2.0641790    -2.7865400    -0.8851380
  H       -2.0641790    -2.7865400     0.8851380
  H       -0.7011600     1.3990150     0.0000000
  H        2.4653750     2.6550960     0.0000000
  H        2.0510630    -0.8112120     0.0000000
  H        3.2339250     0.4413680     0.0000000
units angstrom
no_reorient  #important for SAPT in psi4, default
symmetry c1  #important for SAPT in psi4, default
}

set PROPERTIES_ORIGIN ["COM"]
properties('MP2/aug-cc-pvtz', properties = ['dipole'])
--------------------------------------------------------------------------

    Molecular point group: c1
  Charge       = 0
  Multiplicity = 1
  Basis Set: AUG-CC-PVTZ
    Blend: AUG-CC-PVTZ
  Basis Set: (AUG-CC-PVTZ AUX)
    Blend: AUG-CC-PVTZ-JKFIT

    Orbital Energies [Eh]
    ---------------------

    Doubly Occupied:

       1A    -15.577360     2A    -15.564870     3A    -15.491923
       4A    -11.342478     5A    -11.272276     6A    -11.242352
       7A    -11.223576     8A     -1.293423     9A     -1.182232
      10A     -1.125626    11A     -1.072448    12A     -0.939934
      13A     -0.816079    14A     -0.806087    15A     -0.722124
      16A     -0.693423    17A     -0.660403    18A     -0.631783
      19A     -0.607642    20A     -0.589950    21A     -0.569267
      22A     -0.545599    23A     -0.532095    24A     -0.478753
      25A     -0.462058    26A     -0.412970    27A     -0.403766
      28A     -0.331513

  @DF-RHF Final Energy:  -321.33044567036325

   => Energetics <=

    Nuclear Repulsion Energy =            309.3020833739206523
    One-Electron Energy =               -1048.0810361384733369
    Two-Electron Energy =                 417.4485070941894946
    Total Energy =                       -321.3304456703632468
  Basis Set: (AUG-CC-PVTZ AUX)
    Blend: AUG-CC-PVTZ-RI
    Molecular point group: c1

    Geometry (in Angstrom), charge = 0, multiplicity = 1:

       Center              X                  Y                   Z               Mass
    ------------   -----------------  -----------------  -----------------  -----------------
         C           -0.464262567816    -0.771124532709     0.000000000000    12.000000000000
         C           -1.974726367816    -0.971171432709     0.000000000000    12.000000000000
         C           -2.474248567816    -2.310114532709     0.000000000000    12.000000000000
         N           -0.053110567816     0.612330467291     0.000000000000    14.003074004430
         C            1.236413432184     1.094495467291     0.000000000000    12.000000000000
         N            1.414926432184     2.375281467291     0.000000000000    14.003074004430
         N            2.210806432184     0.113666467291     0.000000000000    14.003074004430
         H           -0.078278567816    -1.298733532709     0.886435000000     1.007825032230
         H           -0.078278567816    -1.298733532709    -0.886435000000     1.007825032230
         H           -2.369567567816    -0.339758532709     0.881570000000     1.007825032230
         H           -2.369567567816    -0.339758532709    -0.881570000000     1.007825032230
         H           -3.566440567816    -2.354246532709     0.000000000000     1.007825032230
         H           -2.117289567816    -2.845009532709    -0.885138000000     1.007825032230
         H           -2.117289567816    -2.845009532709     0.885138000000     1.007825032230
         H           -0.754270567816     1.340545467291     0.000000000000     1.007825032230
         H            2.412264432184     2.596626467291     0.000000000000     1.007825032230
         H            1.997952432184    -0.869681532709     0.000000000000     1.007825032230
         H            3.180814432184     0.382898467291     0.000000000000     1.007825032230

  Basis Set: AUG-CC-PVTZ
    Blend: AUG-CC-PVTZ
  Basis Set: (AUG-CC-PVTZ AUX)
    Blend: AUG-CC-PVTZ-JKFIT
	 Reference Energy          =    -321.3304456703632468 [Eh]
	 Singles Energy            =      -0.0000000000000000 [Eh]
	 Same-Spin Energy          =      -0.3388458092169419 [Eh]
	 Opposite-Spin Energy      =      -1.1265877510404698 [Eh]
	 Correlation Energy        =      -1.4654335602574116 [Eh]
	 Total Energy              =    -322.7958792306206419 [Eh]

	 ================> DF-SCS-MP2 Energies <==================
	-----------------------------------------------------------
	 SCS Same-Spin Scale       =       0.3333333333333333 [-]
	 SCS Opposite-Spin Scale   =       1.2000000000000000 [-]
	 SCS Same-Spin Energy      =      -0.1129486030723139 [Eh]
	 SCS Opposite-Spin Energy  =      -1.3519053012485638 [Eh]
	 SCS Correlation Energy    =      -1.4648539043208777 [Eh]
	 SCS Total Energy          =    -322.7952995746841225 [Eh]
	-----------------------------------------------------------

  Dipole Moment: [D]
     X:     0.0921      Y:    -3.9348      Z:    -0.0000     Total:     3.9359

*** Psi4 exiting successfully. Buy a developer a beer!
