                               Psi4 1.3.2 release

  ==> Input File <==

--------------------------------------------------------------------------
#psi4
#
memory 32 gb

molecule  {
0 1
  C       -0.4111520    -0.7126550     0.0000000
  C       -1.9318910    -0.8068500     0.0000000
  C       -2.4211380    -2.2516450     0.0000000
  N        0.0000000     0.6708000     0.0000000
  C        1.2895240     1.1529650     0.0000000
  N        1.4680370     2.4337510     0.0000000
  N        2.2639170     0.1721360     0.0000000
  H       -0.0251680    -1.2402640     0.8864350
  H       -0.0251680    -1.2402640    -0.8864350
  H       -2.3164570    -0.2812890     0.8815700
  H       -2.3164570    -0.2812890    -0.8815700
  H       -3.5133300    -2.2957770     0.0000000
  H       -2.0641790    -2.7865400    -0.8851380
  H       -2.0641790    -2.7865400     0.8851380
  H       -0.7011600     1.3990150     0.0000000
  H        2.4653750     2.6550960     0.0000000
  H        2.0510630    -0.8112120     0.0000000
  H        3.2339250     0.4413680     0.0000000
units angstrom
no_reorient  #important for SAPT in psi4, default
symmetry c1  #important for SAPT in psi4, default
}

set PROPERTIES_ORIGIN ["COM"]
properties('MP2/aug-cc-pvtz', properties = ['dipole'])
--------------------------------------------------------------------------

    Molecular point group: c1
  Charge       = 0
  Multiplicity = 1
  Basis Set: AUG-CC-PVTZ
    Blend: AUG-CC-PVTZ
  Basis Set: (AUG-CC-PVTZ AUX)
    Blend: AUG-CC-PVTZ-JKFIT

    Orbital Energies [Eh]
    ---------------------

    Doubly Occupied:

       1A    -15.577147     2A    -15.562416     3A    -15.491029
       4A    -11.340750     5A    -11.271144     6A    -11.235903
       7A    -11.226258     8A     -1.292644     9A     -1.181993
      10A     -1.124594    11A     -1.056017    12A     -0.932262
      13A     -0.826802    14A     -0.806523    15A     -0.721746
      16A     -0.691486    17A     -0.662945    18A     -0.629737
      19A     -0.600059    20A     -0.586981    21A     -0.566715
      22A     -0.531726    23A     -0.514222    24A     -0.492456
      25A     -0.488844    26A     -0.411935    27A     -0.403182
      28A     -0.330654

  @DF-RHF Final Energy:  -321.34403576563648

   => Energetics <=

    Nuclear Repulsion Energy =            308.9416743365163711
    One-Electron Energy =               -1047.4550825159694796
    Two-Electron Energy =                 417.1693724138166317
    Total Energy =                       -321.3440357656364768
  Basis Set: (AUG-CC-PVTZ AUX)
    Blend: AUG-CC-PVTZ-RI
    Molecular point group: c1

    Geometry (in Angstrom), charge = 0, multiplicity = 1:

       Center              X                  Y                   Z               Mass
    ------------   -----------------  -----------------  -----------------  -----------------
         C           -0.463042902775    -0.783689140887     0.000000000000    12.000000000000
         C           -1.983781902775    -0.877884140887     0.000000000000    12.000000000000
         C           -2.473028902775    -2.322679140887     0.000000000000    12.000000000000
         N           -0.051890902775     0.599765859113     0.000000000000    14.003074004430
         C            1.237633097225     1.081930859113     0.000000000000    12.000000000000
         N            1.416146097225     2.362716859113     0.000000000000    14.003074004430
         N            2.212026097225     0.101101859113     0.000000000000    14.003074004430
         H           -0.077058902775    -1.311298140887     0.886435000000     1.007825032230
         H           -0.077058902775    -1.311298140887    -0.886435000000     1.007825032230
         H           -2.368347902775    -0.352323140887     0.881570000000     1.007825032230
         H           -2.368347902775    -0.352323140887    -0.881570000000     1.007825032230
         H           -3.565220902775    -2.366811140887     0.000000000000     1.007825032230
         H           -2.116069902775    -2.857574140887    -0.885138000000     1.007825032230
         H           -2.116069902775    -2.857574140887     0.885138000000     1.007825032230
         H           -0.753050902775     1.327980859113     0.000000000000     1.007825032230
         H            2.413484097225     2.584061859113     0.000000000000     1.007825032230
         H            1.999172097225    -0.882246140887     0.000000000000     1.007825032230
         H            3.182034097225     0.370333859113     0.000000000000     1.007825032230

  Basis Set: AUG-CC-PVTZ
    Blend: AUG-CC-PVTZ
  Basis Set: (AUG-CC-PVTZ AUX)
    Blend: AUG-CC-PVTZ-JKFIT
	 Reference Energy          =    -321.3440357656364768 [Eh]
	 Singles Energy            =      -0.0000000000000000 [Eh]
	 Same-Spin Energy          =      -0.3379193319780450 [Eh]
	 Opposite-Spin Energy      =      -1.1253741373547728 [Eh]
	 Correlation Energy        =      -1.4632934693328177 [Eh]
	 Total Energy              =    -322.8073292349693020 [Eh]

	 ================> DF-SCS-MP2 Energies <==================
	-----------------------------------------------------------
	 SCS Same-Spin Scale       =       0.3333333333333333 [-]
	 SCS Opposite-Spin Scale   =       1.2000000000000000 [-]
	 SCS Same-Spin Energy      =      -0.1126397773260150 [Eh]
	 SCS Opposite-Spin Energy  =      -1.3504489648257272 [Eh]
	 SCS Correlation Energy    =      -1.4630887421517422 [Eh]
	 SCS Total Energy          =    -322.8071245077882168 [Eh]
	-----------------------------------------------------------

  Dipole Moment: [D]
     X:     0.0784      Y:    -3.8900      Z:    -0.0000     Total:     3.8908

*** Psi4 exiting successfully. Buy a developer a beer!
