                               Psi4 1.3.2 release

  ==> Input File <==

--------------------------------------------------------------------------
#psi4
#
memory 32 gb

molecule  {
0 1
  C       -0.4111520    -0.7126550     0.0000000
  C       -1.9334063    -0.6473735     0.0000000
  C       -2.4211380    -2.2516450     0.0000000
  N        0.0000000     0.6708000     0.0000000
  C        1.2895240     1.1529650     0.0000000
  N        1.4680370     2.4337510     0.0000000
  N        2.2639170     0.1721360     0.0000000
  H       -0.0251680    -1.2402640     0.8864350
  H       -0.0251680    -1.2402640    -0.8864350
  H       -2.3164570    -0.2812890     0.8815700
  H       -2.3164570    -0.2812890    -0.8815700
  H       -3.5133300    -2.2957770     0.0000000
  H       -2.0641790    -2.7865400    -0.8851380
  H       -2.0641790    -2.7865400     0.8851380
  H       -0.7011600     1.3990150     0.0000000
  H        2.4653750     2.6550960     0.0000000
  H        2.0510630    -0.8112120     0.0000000
  H        3.2339250     0.4413680     0.0000000
units angstrom
no_reorient  #important for SAPT in psi4, default
symmetry c1  #important for SAPT in psi4, default
}

set PROPERTIES_ORIGIN ["COM"]
properties('MP2/aug-cc-pvtz', properties = ['dipole'])
--------------------------------------------------------------------------

    Molecular point group: c1
  Charge       = 0
  Multiplicity = 1
  Basis Set: AUG-CC-PVTZ
    Blend: AUG-CC-PVTZ
  Basis Set: (AUG-CC-PVTZ AUX)
    Blend: AUG-CC-PVTZ-JKFIT

    Orbital Energies [Eh]
    ---------------------

    Doubly Occupied:

       1A    -15.577197     2A    -15.559617     3A    -15.490160
       4A    -11.338591     5A    -11.272331     6A    -11.232411
       7A    -11.229229     8A     -1.292243     9A     -1.182941
      10A     -1.123968    11A     -1.040056    12A     -0.922709
      13A     -0.842675    14A     -0.806256    15A     -0.722089
      16A     -0.689033    17A     -0.673362    18A     -0.628380
      19A     -0.592909    20A     -0.588105    21A     -0.564178
      22A     -0.533139    23A     -0.516109    24A     -0.508768
      25A     -0.460689    26A     -0.410335    27A     -0.402816
      28A     -0.329925

  @DF-RHF Final Energy:  -321.32236727852887

   => Energetics <=

    Nuclear Repulsion Energy =            308.5883156407030015
    One-Electron Energy =               -1046.7609264869913659
    Two-Electron Energy =                 416.8502435677594349
    Total Energy =                       -321.3223672785288727
  Basis Set: (AUG-CC-PVTZ AUX)
    Blend: AUG-CC-PVTZ-RI
    Molecular point group: c1

    Geometry (in Angstrom), charge = 0, multiplicity = 1:

       Center              X                  Y                   Z               Mass
    ------------   -----------------  -----------------  -----------------  -----------------
         C           -0.462863036842    -0.802618982826     0.000000000000    12.000000000000
         C           -1.985117336842    -0.737337482826     0.000000000000    12.000000000000
         C           -2.472849036842    -2.341608982826     0.000000000000    12.000000000000
         N           -0.051711036842     0.580836017174     0.000000000000    14.003074004430
         C            1.237812963158     1.063001017174     0.000000000000    12.000000000000
         N            1.416325963158     2.343787017174     0.000000000000    14.003074004430
         N            2.212205963158     0.082172017174     0.000000000000    14.003074004430
         H           -0.076879036842    -1.330227982826     0.886435000000     1.007825032230
         H           -0.076879036842    -1.330227982826    -0.886435000000     1.007825032230
         H           -2.368168036842    -0.371252982826     0.881570000000     1.007825032230
         H           -2.368168036842    -0.371252982826    -0.881570000000     1.007825032230
         H           -3.565041036842    -2.385740982826     0.000000000000     1.007825032230
         H           -2.115890036842    -2.876503982826    -0.885138000000     1.007825032230
         H           -2.115890036842    -2.876503982826     0.885138000000     1.007825032230
         H           -0.752871036842     1.309051017174     0.000000000000     1.007825032230
         H            2.413663963158     2.565132017174     0.000000000000     1.007825032230
         H            1.999351963158    -0.901175982826     0.000000000000     1.007825032230
         H            3.182213963158     0.351404017174     0.000000000000     1.007825032230

  Basis Set: AUG-CC-PVTZ
    Blend: AUG-CC-PVTZ
  Basis Set: (AUG-CC-PVTZ AUX)
    Blend: AUG-CC-PVTZ-JKFIT
	 Reference Energy          =    -321.3223672785288727 [Eh]
	 Singles Energy            =      -0.0000000000000000 [Eh]
	 Same-Spin Energy          =      -0.3379579440896342 [Eh]
	 Opposite-Spin Energy      =      -1.1264003067484520 [Eh]
	 Correlation Energy        =      -1.4643582508380861 [Eh]
	 Total Energy              =    -322.7867255293669473 [Eh]

	 ================> DF-SCS-MP2 Energies <==================
	-----------------------------------------------------------
	 SCS Same-Spin Scale       =       0.3333333333333333 [-]
	 SCS Opposite-Spin Scale   =       1.2000000000000000 [-]
	 SCS Same-Spin Energy      =      -0.1126526480298781 [Eh]
	 SCS Opposite-Spin Energy  =      -1.3516803680981424 [Eh]
	 SCS Correlation Energy    =      -1.4643330161280206 [Eh]
	 SCS Total Energy          =    -322.7867002946568959 [Eh]
	-----------------------------------------------------------

  Dipole Moment: [D]
     X:     0.0959      Y:    -3.8523      Z:    -0.0000     Total:     3.8534

*** Psi4 exiting successfully. Buy a developer a beer!
