                               Psi4 1.3.2 release

  ==> Input File <==

--------------------------------------------------------------------------
#psi4
#
memory 32 gb

molecule  {
0 1
  C       -0.4111520    -0.7126550     0.0000000
  C       -1.9276772    -0.8598656     0.0000000
  C       -2.4211380    -2.2516450     0.0000000
  N        0.0000000     0.6708000     0.0000000
  C        1.2895240     1.1529650     0.0000000
  N        1.4680370     2.4337510     0.0000000
  N        2.2639170     0.1721360     0.0000000
  H       -0.0251680    -1.2402640     0.8864350
  H       -0.0251680    -1.2402640    -0.8864350
  H       -2.3164570    -0.2812890     0.8815700
  H       -2.3164570    -0.2812890    -0.8815700
  H       -3.5133300    -2.2957770     0.0000000
  H       -2.0641790    -2.7865400    -0.8851380
  H       -2.0641790    -2.7865400     0.8851380
  H       -0.7011600     1.3990150     0.0000000
  H        2.4653750     2.6550960     0.0000000
  H        2.0510630    -0.8112120     0.0000000
  H        3.2339250     0.4413680     0.0000000
units angstrom
no_reorient  #important for SAPT in psi4, default
symmetry c1  #important for SAPT in psi4, default
}

set PROPERTIES_ORIGIN ["COM"]
properties('MP2/aug-cc-pvtz', properties = ['dipole'])
--------------------------------------------------------------------------

    Molecular point group: c1
  Charge       = 0
  Multiplicity = 1
  Basis Set: AUG-CC-PVTZ
    Blend: AUG-CC-PVTZ
  Basis Set: (AUG-CC-PVTZ AUX)
    Blend: AUG-CC-PVTZ-JKFIT

    Orbital Energies [Eh]
    ---------------------

    Doubly Occupied:

       1A    -15.577231     2A    -15.563593     3A    -15.491449
       4A    -11.341590     5A    -11.271501     6A    -11.238762
       7A    -11.224949     8A     -1.292988     9A     -1.182029
      10A     -1.125034    11A     -1.063589    12A     -0.935994
      13A     -0.821200    14A     -0.806559    15A     -0.721873
      16A     -0.692436    17A     -0.661209    18A     -0.630630
      19A     -0.603495    20A     -0.588105    21A     -0.567925
      22A     -0.531818    23A     -0.530374    24A     -0.486123
      25A     -0.476049    26A     -0.412443    27A     -0.403452
      28A     -0.331052

  @DF-RHF Final Energy:  -321.34048019463887

   => Energetics <=

    Nuclear Repulsion Energy =            309.1083217885415593
    One-Electron Energy =               -1047.7507028636621271
    Two-Electron Energy =                 417.3019008804816394
    Total Energy =                       -321.3404801946388716
  Basis Set: (AUG-CC-PVTZ AUX)
    Blend: AUG-CC-PVTZ-RI
    Molecular point group: c1

    Geometry (in Angstrom), charge = 0, multiplicity = 1:

       Center              X                  Y                   Z               Mass
    ------------   -----------------  -----------------  -----------------  -----------------
         C           -0.463543080343    -0.777396195353     0.000000000000    12.000000000000
         C           -1.980068280343    -0.924606795353     0.000000000000    12.000000000000
         C           -2.473529080343    -2.316386195353     0.000000000000    12.000000000000
         N           -0.052391080343     0.606058804647     0.000000000000    14.003074004430
         C            1.237132919657     1.088223804647     0.000000000000    12.000000000000
         N            1.415645919657     2.369009804647     0.000000000000    14.003074004430
         N            2.211525919657     0.107394804647     0.000000000000    14.003074004430
         H           -0.077559080343    -1.305005195353     0.886435000000     1.007825032230
         H           -0.077559080343    -1.305005195353    -0.886435000000     1.007825032230
         H           -2.368848080343    -0.346030195353     0.881570000000     1.007825032230
         H           -2.368848080343    -0.346030195353    -0.881570000000     1.007825032230
         H           -3.565721080343    -2.360518195353     0.000000000000     1.007825032230
         H           -2.116570080343    -2.851281195353    -0.885138000000     1.007825032230
         H           -2.116570080343    -2.851281195353     0.885138000000     1.007825032230
         H           -0.753551080343     1.334273804647     0.000000000000     1.007825032230
         H            2.412983919657     2.590354804647     0.000000000000     1.007825032230
         H            1.998671919657    -0.875953195353     0.000000000000     1.007825032230
         H            3.181533919657     0.376626804647     0.000000000000     1.007825032230

  Basis Set: AUG-CC-PVTZ
    Blend: AUG-CC-PVTZ
  Basis Set: (AUG-CC-PVTZ AUX)
    Blend: AUG-CC-PVTZ-JKFIT
	 Reference Energy          =    -321.3404801946388716 [Eh]
	 Singles Energy            =      -0.0000000000000000 [Eh]
	 Same-Spin Energy          =      -0.3382848206175306 [Eh]
	 Opposite-Spin Energy      =      -1.1257901239587427 [Eh]
	 Correlation Energy        =      -1.4640749445762733 [Eh]
	 Total Energy              =    -322.8045551392151538 [Eh]

	 ================> DF-SCS-MP2 Energies <==================
	-----------------------------------------------------------
	 SCS Same-Spin Scale       =       0.3333333333333333 [-]
	 SCS Opposite-Spin Scale   =       1.2000000000000000 [-]
	 SCS Same-Spin Energy      =      -0.1127616068725102 [Eh]
	 SCS Opposite-Spin Energy  =      -1.3509481487504911 [Eh]
	 SCS Correlation Energy    =      -1.4637097556230012 [Eh]
	 SCS Total Energy          =    -322.8041899502619003 [Eh]
	-----------------------------------------------------------

  Dipole Moment: [D]
     X:     0.0825      Y:    -3.9097      Z:    -0.0000     Total:     3.9106

*** Psi4 exiting successfully. Buy a developer a beer!
