                               Psi4 1.3.2 release

  ==> Input File <==

--------------------------------------------------------------------------
#psi4
#
memory 32 gb

molecule  {
0 1
  O        1.7739800     1.6003060    -0.2911220
  N        0.9906540    -0.4920130     0.2058460
  C       -2.2286800    -0.2510300    -0.1765170
  C       -1.2730330    -1.4351160    -0.3152870
  C       -1.5989250     1.1242550    -0.3956020
  C       -0.0841310    -1.3759550     0.6456410
  C       -0.4584780     1.4603760     0.5782350
  C        0.8707430     0.8730760     0.1404640
  C        2.1918860    -1.1187650    -0.3259700
  H       -2.6348533    -0.2716484     0.8445223
  H       -3.0608600    -0.3791320    -0.8796750
  H       -1.8321650    -2.3606500    -0.1255340
  H       -0.8887130    -1.5005570    -1.3409750
  H       -2.3834680     1.8827830    -0.2893500
  H       -1.2246060     1.2090190    -1.4238390
  H       -0.4244360    -1.0900460     1.6492300
  H        0.3620160    -2.3701320     0.7449650
  H       -0.7218730     1.1400510     1.5944380
  H       -0.2910430     2.5394790     0.6064930
  H        1.9486170    -1.7578730    -1.1825500
  H        2.6762910    -1.7288140     0.4434650
  H        2.8674440    -0.3269360    -0.6441440
units angstrom
no_reorient  #important for SAPT in psi4, default
symmetry c1  #important for SAPT in psi4, default
}

set PROPERTIES_ORIGIN ["COM"]
properties('MP2/aug-cc-pvtz', properties = ['dipole'])
--------------------------------------------------------------------------

    Molecular point group: c1
  Charge       = 0
  Multiplicity = 1
  Basis Set: AUG-CC-PVTZ
    Blend: AUG-CC-PVTZ
  Basis Set: (AUG-CC-PVTZ AUX)
    Blend: AUG-CC-PVTZ-JKFIT

    Orbital Energies [Eh]
    ---------------------

    Doubly Occupied:

       1A    -20.505734     2A    -15.580612     3A    -11.339973
       4A    -11.272305     5A    -11.250605     6A    -11.234505
       7A    -11.233576     8A    -11.233212     9A    -11.231643
      10A     -1.361875    11A     -1.241237    12A     -1.097843
      13A     -1.038192    14A     -0.975598    15A     -0.913839
      16A     -0.878181    17A     -0.792116    18A     -0.725373
      19A     -0.690942    20A     -0.668745    21A     -0.633675
      22A     -0.608676    23A     -0.601594    24A     -0.594651
      25A     -0.583278    26A     -0.558216    27A     -0.544460
      28A     -0.527093    29A     -0.509831    30A     -0.509653
      31A     -0.478368    32A     -0.467759    33A     -0.465421
      34A     -0.407480    35A     -0.365142

  @DF-RHF Final Energy:  -402.11187956613298

   => Energetics <=

    Nuclear Repulsion Energy =            486.3725390985367767
    One-Electron Energy =               -1510.7260329424016163
    Two-Electron Energy =                 622.2416142777317418
    Total Energy =                       -402.1118795661329841
  Basis Set: (AUG-CC-PVTZ AUX)
    Blend: AUG-CC-PVTZ-RI
    Molecular point group: c1

    Geometry (in Angstrom), charge = 0, multiplicity = 1:

       Center              X                  Y                   Z               Mass
    ------------   -----------------  -----------------  -----------------  -----------------
         O            1.729700478071     1.561159879652    -0.291394199077    15.994914619570
         N            0.946374478071    -0.531159120348     0.205573800923    14.003074004430
         C           -2.272959521929    -0.290176120348    -0.176789199077    12.000000000000
         C           -1.317312521929    -1.474262120348    -0.315559199077    12.000000000000
         C           -1.643204521929     1.085108879652    -0.395874199077    12.000000000000
         C           -0.128410521929    -1.415101120348     0.645368800923    12.000000000000
         C           -0.502757521929     1.421229879652     0.577962800923    12.000000000000
         C            0.826463478071     0.833929879652     0.140191800923    12.000000000000
         C            2.147606478071    -1.157911120348    -0.326242199077    12.000000000000
         H           -2.679132821929    -0.310794520348     0.844250100923     1.007825032230
         H           -3.105139521929    -0.418278120348    -0.879947199077     1.007825032230
         H           -1.876444521929    -2.399796120348    -0.125806199077     1.007825032230
         H           -0.932992521929    -1.539703120348    -1.341247199077     1.007825032230
         H           -2.427747521929     1.843636879652    -0.289622199077     1.007825032230
         H           -1.268885521929     1.169872879652    -1.424111199077     1.007825032230
         H           -0.468715521929    -1.129192120348     1.648957800923     1.007825032230
         H            0.317736478071    -2.409278120348     0.744692800923     1.007825032230
         H           -0.766152521929     1.100904879652     1.594165800923     1.007825032230
         H           -0.335322521929     2.500332879652     0.606220800923     1.007825032230
         H            1.904337478071    -1.797019120348    -1.182822199077     1.007825032230
         H            2.632011478071    -1.767960120348     0.443192800923     1.007825032230
         H            2.823164478071    -0.366082120348    -0.644416199077     1.007825032230

  Basis Set: AUG-CC-PVTZ
    Blend: AUG-CC-PVTZ
  Basis Set: (AUG-CC-PVTZ AUX)
    Blend: AUG-CC-PVTZ-JKFIT
	 Reference Energy          =    -402.1118795661329841 [Eh]
	 Singles Energy            =      -0.0000000000000000 [Eh]
	 Same-Spin Energy          =      -0.4218222377877850 [Eh]
	 Opposite-Spin Energy      =      -1.4052832845672147 [Eh]
	 Correlation Energy        =      -1.8271055223549997 [Eh]
	 Total Energy              =    -403.9389850884879820 [Eh]

	 ================> DF-SCS-MP2 Energies <==================
	-----------------------------------------------------------
	 SCS Same-Spin Scale       =       0.3333333333333333 [-]
	 SCS Opposite-Spin Scale   =       1.2000000000000000 [-]
	 SCS Same-Spin Energy      =      -0.1406074125959283 [Eh]
	 SCS Opposite-Spin Energy  =      -1.6863399414806577 [Eh]
	 SCS Correlation Energy    =      -1.8269473540765859 [Eh]
	 SCS Total Energy          =    -403.9388269202095785 [Eh]
	-----------------------------------------------------------

  Dipole Moment: [D]
     X:    -2.5690      Y:    -3.1022      Z:     0.7910     Total:     4.1048

*** Psi4 exiting successfully. Buy a developer a beer!
