                               Psi4 1.4a3.dev225

  ==> Input File <==

--------------------------------------------------------------------------
#psi4
#
memory 32 gb

molecule  {
0 1
  O        1.7739800     1.6003060    -0.2911220
  N        0.9906540    -0.4920130     0.2058460
  C       -2.2286800    -0.2510300    -0.1765170
  C       -1.2730330    -1.4351160    -0.3152870
  C       -1.5989250     1.1242550    -0.3956020
  C       -0.0841310    -1.3759550     0.6456410
  C       -0.4584780     1.4603760     0.5782350
  C        0.8853429     0.8848309     0.1334879
  C        2.1918860    -1.1187650    -0.3259700
  H       -2.6699130    -0.2765890     0.8297550
  H       -3.0608600    -0.3791320    -0.8796750
  H       -1.8321650    -2.3606500    -0.1255340
  H       -0.8887130    -1.5005570    -1.3409750
  H       -2.3834680     1.8827830    -0.2893500
  H       -1.2246060     1.2090190    -1.4238390
  H       -0.4244360    -1.0900460     1.6492300
  H        0.3620160    -2.3701320     0.7449650
  H       -0.7218730     1.1400510     1.5944380
  H       -0.2910430     2.5394790     0.6064930
  H        1.9486170    -1.7578730    -1.1825500
  H        2.6762910    -1.7288140     0.4434650
  H        2.8674440    -0.3269360    -0.6441440
units angstrom
no_reorient  #important for SAPT in psi4, default
symmetry c1  #important for SAPT in psi4, default
}

set PROPERTIES_ORIGIN ["COM"]
properties('MP2/aug-cc-pvtz', properties = ['dipole'])
--------------------------------------------------------------------------

    Molecular point group: c1
  Charge       = 0
  Multiplicity = 1
  Basis Set: AUG-CC-PVTZ
    Blend: AUG-CC-PVTZ
  Basis Set: (AUG-CC-PVTZ AUX)
    Blend: AUG-CC-PVTZ-JKFIT

    Orbital Energies [Eh]
    ---------------------

    Doubly Occupied:

       1A    -20.510003     2A    -15.577498     3A    -11.339720
       4A    -11.271161     5A    -11.249225     6A    -11.234034
       7A    -11.232876     8A    -11.232351     9A    -11.230757
      10A     -1.374204    11A     -1.239985    12A     -1.096220
      13A     -1.036416    14A     -0.973593    15A     -0.910712
      16A     -0.876815    17A     -0.791370    18A     -0.724032
      19A     -0.690660    20A     -0.668727    21A     -0.633004
      22A     -0.607286    23A     -0.604159    24A     -0.593737
      25A     -0.583247    26A     -0.557929    27A     -0.546378
      28A     -0.526631    29A     -0.512114    30A     -0.509558
      31A     -0.478653    32A     -0.468602    33A     -0.464712
      34A     -0.408356    35A     -0.364687

  @DF-RHF Final Energy:  -402.11281740045803

   => Energetics <=

    Nuclear Repulsion Energy =            486.2381634109704578
    One-Electron Energy =               -1510.4631344656240799
    Two-Electron Energy =                 622.1121536541957084
    Total Energy =                       -402.1128174004579705
  Basis Set: (AUG-CC-PVTZ AUX)
    Blend: AUG-CC-PVTZ-RI
    Molecular point group: c1

    Geometry (in Angstrom), charge = 0, multiplicity = 1:

       Center              X                  Y                   Z               Mass
    ------------   -----------------  -----------------  -----------------  -----------------
         O            1.728600044779     1.560089227836    -0.290618461261    15.994914619570
         N            0.945274044779    -0.532229772164     0.206349538739    14.003074004430
         C           -2.274059955221    -0.291246772164    -0.176013461261    12.000000000000
         C           -1.318412955221    -1.475332772164    -0.314783461261    12.000000000000
         C           -1.644304955221     1.084038227836    -0.395098461261    12.000000000000
         C           -0.129510955221    -1.416171772164     0.646144538739    12.000000000000
         C           -0.503857955221     1.420159227836     0.578738538739    12.000000000000
         C            0.839962944779     0.844614127836     0.133991438739    12.000000000000
         C            2.146506044779    -1.158981772164    -0.325466461261    12.000000000000
         H           -2.715292955221    -0.316805772164     0.830258538739     1.007825032230
         H           -3.106239955221    -0.419348772164    -0.879171461261     1.007825032230
         H           -1.877544955221    -2.400866772164    -0.125030461261     1.007825032230
         H           -0.934092955221    -1.540773772164    -1.340471461261     1.007825032230
         H           -2.428847955221     1.842566227836    -0.288846461261     1.007825032230
         H           -1.269985955221     1.168802227836    -1.423335461261     1.007825032230
         H           -0.469815955221    -1.130262772164     1.649733538739     1.007825032230
         H            0.316636044779    -2.410348772164     0.745468538739     1.007825032230
         H           -0.767252955221     1.099834227836     1.594941538739     1.007825032230
         H           -0.336422955221     2.499262227836     0.606996538739     1.007825032230
         H            1.903237044779    -1.798089772164    -1.182046461261     1.007825032230
         H            2.630911044779    -1.769030772164     0.443968538739     1.007825032230
         H            2.822064044779    -0.367152772164    -0.643640461261     1.007825032230

  Basis Set: AUG-CC-PVTZ
    Blend: AUG-CC-PVTZ
  Basis Set: (AUG-CC-PVTZ AUX)
    Blend: AUG-CC-PVTZ-JKFIT
	 Reference Energy          =    -402.1128174004580274 [Eh]
	 Singles Energy            =      -0.0000000000000000 [Eh]
	 Same-Spin Energy          =      -0.4213653513438415 [Eh]
	 Opposite-Spin Energy      =      -1.4044134950419616 [Eh]
	 Correlation Energy        =      -1.8257788463858031 [Eh]
	 Total Energy              =    -403.9385962468438152 [Eh]

	 ================> DF-SCS-MP2 Energies <==================
	-----------------------------------------------------------
	 SCS Same-Spin Scale       =       0.3333333333333333 [-]
	 SCS Opposite-Spin Scale   =       1.2000000000000000 [-]
	 SCS Same-Spin Energy      =      -0.1404551171146138 [Eh]
	 SCS Opposite-Spin Energy  =      -1.6852961940503539 [Eh]
	 SCS Correlation Energy    =      -1.8257513111649677 [Eh]
	 SCS Total Energy          =    -403.9385687116230201 [Eh]
	-----------------------------------------------------------

  Dipole Moment: [D]
     X:    -2.4952      Y:    -2.9705      Z:     0.7603     Total:     3.9532

*** Psi4 exiting successfully. Buy a developer a beer!
