                               Psi4 1.3.2 release

  ==> Input File <==

--------------------------------------------------------------------------
#psi4
#
memory 32 gb

molecule  {
0 1
  O        1.7739800     1.6003060    -0.2911220
  N        0.9906540    -0.4920130     0.2058460
  C       -2.2286800    -0.2510300    -0.1765170
  C       -1.2730330    -1.4351160    -0.3152870
  C       -1.5989250     1.1242550    -0.3956020
  C       -0.0841310    -1.3759550     0.6456410
  C       -0.4584780     1.4603760     0.5782350
  C        0.8727898     0.8608551     0.1638754
  C        2.1918860    -1.1187650    -0.3259700
  H       -2.6699130    -0.2765890     0.8297550
  H       -3.0608600    -0.3791320    -0.8796750
  H       -1.8321650    -2.3606500    -0.1255340
  H       -0.8887130    -1.5005570    -1.3409750
  H       -2.3834680     1.8827830    -0.2893500
  H       -1.2246060     1.2090190    -1.4238390
  H       -0.4244360    -1.0900460     1.6492300
  H        0.3620160    -2.3701320     0.7449650
  H       -0.7218730     1.1400510     1.5944380
  H       -0.2910430     2.5394790     0.6064930
  H        1.9486170    -1.7578730    -1.1825500
  H        2.6762910    -1.7288140     0.4434650
  H        2.8674440    -0.3269360    -0.6441440
units angstrom
no_reorient  #important for SAPT in psi4, default
symmetry c1  #important for SAPT in psi4, default
}

set PROPERTIES_ORIGIN ["COM"]
properties('MP2/aug-cc-pvtz', properties = ['dipole'])
--------------------------------------------------------------------------

    Molecular point group: c1
  Charge       = 0
  Multiplicity = 1
  Basis Set: AUG-CC-PVTZ
    Blend: AUG-CC-PVTZ
  Basis Set: (AUG-CC-PVTZ AUX)
    Blend: AUG-CC-PVTZ-JKFIT

    Orbital Energies [Eh]
    ---------------------

    Doubly Occupied:

       1A    -20.502048     2A    -15.583551     3A    -11.339554
       4A    -11.273561     5A    -11.251989     6A    -11.234870
       7A    -11.234268     8A    -11.233710     9A    -11.231872
      10A     -1.354093    11A     -1.242894    12A     -1.098085
      13A     -1.038638    14A     -0.977198    15A     -0.917377
      16A     -0.878815    17A     -0.793315    18A     -0.726777
      19A     -0.689825    20A     -0.668924    21A     -0.634230
      22A     -0.609045    23A     -0.600780    24A     -0.594770
      25A     -0.582017    26A     -0.558683    27A     -0.543180
      28A     -0.527654    29A     -0.509152    30A     -0.508276
      31A     -0.479729    32A     -0.466945    33A     -0.465079
      34A     -0.405341    35A     -0.365842

  @DF-RHF Final Energy:  -402.11070761119129

   => Energetics <=

    Nuclear Repulsion Energy =            486.2910787148653071
    One-Electron Energy =               -1510.5593964909671740
    Two-Electron Energy =                 622.1576101649105794
    Total Energy =                       -402.1107076111912875
  Basis Set: (AUG-CC-PVTZ AUX)
    Blend: AUG-CC-PVTZ-RI
    Molecular point group: c1

    Geometry (in Angstrom), charge = 0, multiplicity = 1:

       Center              X                  Y                   Z               Mass
    ------------   -----------------  -----------------  -----------------  -----------------
         O            1.729785233913     1.562352880451    -0.293487468502    15.994914619570
         N            0.946459233913    -0.529966119549     0.203480531498    14.003074004430
         C           -2.272874766087    -0.288983119549    -0.178882468502    12.000000000000
         C           -1.317227766087    -1.473069119549    -0.317652468502    12.000000000000
         C           -1.643119766087     1.086301880451    -0.397967468502    12.000000000000
         C           -0.128325766087    -1.413908119549     0.643275531498    12.000000000000
         C           -0.502672766087     1.422422880451     0.575869531498    12.000000000000
         C            0.828595033913     0.822901980451     0.161509931498    12.000000000000
         C            2.147691233913    -1.156718119549    -0.328335468502    12.000000000000
         H           -2.714107766087    -0.314542119549     0.827389531498     1.007825032230
         H           -3.105054766087    -0.417085119549    -0.882040468502     1.007825032230
         H           -1.876359766087    -2.398603119549    -0.127899468502     1.007825032230
         H           -0.932907766087    -1.538510119549    -1.343340468502     1.007825032230
         H           -2.427662766087     1.844829880451    -0.291715468502     1.007825032230
         H           -1.268800766087     1.171065880451    -1.426204468502     1.007825032230
         H           -0.468630766087    -1.127999119549     1.646864531498     1.007825032230
         H            0.317821233913    -2.408085119549     0.742599531498     1.007825032230
         H           -0.766067766087     1.102097880451     1.592072531498     1.007825032230
         H           -0.335237766087     2.501525880451     0.604127531498     1.007825032230
         H            1.904422233913    -1.795826119549    -1.184915468502     1.007825032230
         H            2.632096233913    -1.766767119549     0.441099531498     1.007825032230
         H            2.823249233913    -0.364889119549    -0.646509468502     1.007825032230

  Basis Set: AUG-CC-PVTZ
    Blend: AUG-CC-PVTZ
  Basis Set: (AUG-CC-PVTZ AUX)
    Blend: AUG-CC-PVTZ-JKFIT
	 Reference Energy          =    -402.1107076111912875 [Eh]
	 Singles Energy            =      -0.0000000000000000 [Eh]
	 Same-Spin Energy          =      -0.4220152651951286 [Eh]
	 Opposite-Spin Energy      =      -1.4056975508590874 [Eh]
	 Correlation Energy        =      -1.8277128160542160 [Eh]
	 Total Energy              =    -403.9384204272454895 [Eh]

	 ================> DF-SCS-MP2 Energies <==================
	-----------------------------------------------------------
	 SCS Same-Spin Scale       =       0.3333333333333333 [-]
	 SCS Opposite-Spin Scale   =       1.2000000000000000 [-]
	 SCS Same-Spin Energy      =      -0.1406717550650429 [Eh]
	 SCS Opposite-Spin Energy  =      -1.6868370610309049 [Eh]
	 SCS Correlation Energy    =      -1.8275088160959478 [Eh]
	 SCS Total Energy          =    -403.9382164272872160 [Eh]
	-----------------------------------------------------------

  Dipole Moment: [D]
     X:    -2.6178      Y:    -3.2392      Z:     0.8202     Total:     4.2447

*** Psi4 exiting successfully. Buy a developer a beer!
