                               Psi4 1.4a3.dev225

  ==> Input File <==

--------------------------------------------------------------------------
#psi4
#
memory 32 gb

molecule  {
0 1
  O        1.7739800     1.6003060    -0.2911220
  N        0.9906540    -0.4920130     0.2058460
  C       -2.2286800    -0.2510300    -0.1765170
  C       -1.2730330    -1.4351160    -0.3152870
  C       -1.5989250     1.1242550    -0.3956020
  C       -0.0694022    -1.3638415     0.6396141
  C       -0.4584780     1.4603760     0.5782350
  C        0.8707430     0.8730760     0.1404640
  C        2.1918860    -1.1187650    -0.3259700
  H       -2.6699130    -0.2765890     0.8297550
  H       -3.0608600    -0.3791320    -0.8796750
  H       -1.8321650    -2.3606500    -0.1255340
  H       -0.8887130    -1.5005570    -1.3409750
  H       -2.3834680     1.8827830    -0.2893500
  H       -1.2246060     1.2090190    -1.4238390
  H       -0.4244360    -1.0900460     1.6492300
  H        0.3620160    -2.3701320     0.7449650
  H       -0.7218730     1.1400510     1.5944380
  H       -0.2910430     2.5394790     0.6064930
  H        1.9486170    -1.7578730    -1.1825500
  H        2.6762910    -1.7288140     0.4434650
  H        2.8674440    -0.3269360    -0.6441440
units angstrom
no_reorient  #important for SAPT in psi4, default
symmetry c1  #important for SAPT in psi4, default
}

set PROPERTIES_ORIGIN ["COM"]
properties('MP2/aug-cc-pvtz', properties = ['dipole'])
--------------------------------------------------------------------------

    Molecular point group: c1
  Charge       = 0
  Multiplicity = 1
  Basis Set: AUG-CC-PVTZ
    Blend: AUG-CC-PVTZ
  Basis Set: (AUG-CC-PVTZ AUX)
    Blend: AUG-CC-PVTZ-JKFIT

    Orbital Energies [Eh]
    ---------------------

    Doubly Occupied:

       1A    -20.506661     2A    -15.581234     3A    -11.340811
       4A    -11.271915     5A    -11.251236     6A    -11.234700
       7A    -11.233774     8A    -11.233053     9A    -11.231099
      10A     -1.363093    11A     -1.245597    12A     -1.097134
      13A     -1.037036    14A     -0.976158    15A     -0.914017
      16A     -0.879339    17A     -0.792293    18A     -0.726743
      19A     -0.691401    20A     -0.669448    21A     -0.634459
      22A     -0.607844    23A     -0.601960    24A     -0.594707
      25A     -0.582502    26A     -0.557791    27A     -0.544384
      28A     -0.528206    29A     -0.509989    30A     -0.508681
      31A     -0.478966    32A     -0.467553    33A     -0.464408
      34A     -0.408165    35A     -0.364936

  @DF-RHF Final Energy:  -402.11166513139949

   => Energetics <=

    Nuclear Repulsion Energy =            486.5818225238527930
    One-Electron Energy =               -1511.1243901919472137
    Two-Electron Energy =                 622.4309025366948163
    Total Energy =                       -402.1116651313994907
  Basis Set: (AUG-CC-PVTZ AUX)
    Blend: AUG-CC-PVTZ-RI
    Molecular point group: c1

    Geometry (in Angstrom), charge = 0, multiplicity = 1:

       Center              X                  Y                   Z               Mass
    ------------   -----------------  -----------------  -----------------  -----------------
         O            1.728587874807     1.560055370954    -0.290708079086    15.994914619570
         N            0.945261874807    -0.532263629046     0.206259920914    14.003074004430
         C           -2.274072125193    -0.291280629046    -0.176103079086    12.000000000000
         C           -1.318425125193    -1.475366629046    -0.314873079086    12.000000000000
         C           -1.644317125193     1.084004370954    -0.395188079086    12.000000000000
         C           -0.114794325193    -1.404092129046     0.640028020914    12.000000000000
         C           -0.503870125193     1.420125370954     0.578648920914    12.000000000000
         C            0.825350874807     0.832825370954     0.140877920914    12.000000000000
         C            2.146493874807    -1.159015629046    -0.325556079086    12.000000000000
         H           -2.715305125193    -0.316839629046     0.830168920914     1.007825032230
         H           -3.106252125193    -0.419382629046    -0.879261079086     1.007825032230
         H           -1.877557125193    -2.400900629046    -0.125120079086     1.007825032230
         H           -0.934105125193    -1.540807629046    -1.340561079086     1.007825032230
         H           -2.428860125193     1.842532370954    -0.288936079086     1.007825032230
         H           -1.269998125193     1.168768370954    -1.423425079086     1.007825032230
         H           -0.469828125193    -1.130296629046     1.649643920914     1.007825032230
         H            0.316623874807    -2.410382629046     0.745378920914     1.007825032230
         H           -0.767265125193     1.099800370954     1.594851920914     1.007825032230
         H           -0.336435125193     2.499228370954     0.606906920914     1.007825032230
         H            1.903224874807    -1.798123629046    -1.182136079086     1.007825032230
         H            2.630898874807    -1.769064629046     0.443878920914     1.007825032230
         H            2.822051874807    -0.367186629046    -0.643730079086     1.007825032230

  Basis Set: AUG-CC-PVTZ
    Blend: AUG-CC-PVTZ
  Basis Set: (AUG-CC-PVTZ AUX)
    Blend: AUG-CC-PVTZ-JKFIT
	 Reference Energy          =    -402.1116651313994907 [Eh]
	 Singles Energy            =      -0.0000000000000000 [Eh]
	 Same-Spin Energy          =      -0.4218853760418939 [Eh]
	 Opposite-Spin Energy      =      -1.4052342804858742 [Eh]
	 Correlation Energy        =      -1.8271196565277681 [Eh]
	 Total Energy              =    -403.9387847879272613 [Eh]

	 ================> DF-SCS-MP2 Energies <==================
	-----------------------------------------------------------
	 SCS Same-Spin Scale       =       0.3333333333333333 [-]
	 SCS Opposite-Spin Scale   =       1.2000000000000000 [-]
	 SCS Same-Spin Energy      =      -0.1406284586806313 [Eh]
	 SCS Opposite-Spin Energy  =      -1.6862811365830490 [Eh]
	 SCS Correlation Energy    =      -1.8269095952636802 [Eh]
	 SCS Total Energy          =    -403.9385747266631483 [Eh]
	-----------------------------------------------------------

  Dipole Moment: [D]
     X:    -2.5329      Y:    -3.0641      Z:     0.7788     Total:     4.0510

*** Psi4 exiting successfully. Buy a developer a beer!
