                               Psi4 1.3.2 release

  ==> Input File <==

--------------------------------------------------------------------------
#psi4
#
memory 32 gb

molecule  {
0 1
  O        1.7739800     1.6003060    -0.2911220
  N        0.9906540    -0.4920130     0.2058460
  C       -2.2286800    -0.2510300    -0.1765170
  C       -1.2730330    -1.4351160    -0.3152870
  C       -1.5989250     1.1242550    -0.3956020
  C       -0.0841310    -1.3759550     0.6456410
  C       -0.4584780     1.4603760     0.5782350
  C        0.8707430     0.8730760     0.1404640
  C        2.1918860    -1.1187650    -0.3259700
  H       -2.6699130    -0.2765890     0.8297550
  H       -3.0608600    -0.3791320    -0.8796750
  H       -1.8361379    -2.3544266    -0.1078531
  H       -0.8887130    -1.5005570    -1.3409750
  H       -2.3834680     1.8827830    -0.2893500
  H       -1.2246060     1.2090190    -1.4238390
  H       -0.4244360    -1.0900460     1.6492300
  H        0.3620160    -2.3701320     0.7449650
  H       -0.7218730     1.1400510     1.5944380
  H       -0.2910430     2.5394790     0.6064930
  H        1.9486170    -1.7578730    -1.1825500
  H        2.6762910    -1.7288140     0.4434650
  H        2.8674440    -0.3269360    -0.6441440
units angstrom
no_reorient  #important for SAPT in psi4, default
symmetry c1  #important for SAPT in psi4, default
}

set PROPERTIES_ORIGIN ["COM"]
properties('MP2/aug-cc-pvtz', properties = ['dipole'])
--------------------------------------------------------------------------

    Molecular point group: c1
  Charge       = 0
  Multiplicity = 1
  Basis Set: AUG-CC-PVTZ
    Blend: AUG-CC-PVTZ
  Basis Set: (AUG-CC-PVTZ AUX)
    Blend: AUG-CC-PVTZ-JKFIT

    Orbital Energies [Eh]
    ---------------------

    Doubly Occupied:

       1A    -20.505694     2A    -15.580544     3A    -11.339918
       4A    -11.272146     5A    -11.250586     6A    -11.234591
       7A    -11.233491     8A    -11.233456     9A    -11.231427
      10A     -1.361836    11A     -1.241189    12A     -1.097603
      13A     -1.038217    14A     -0.975613    15A     -0.913915
      16A     -0.878093    17A     -0.792276    18A     -0.725257
      19A     -0.690739    20A     -0.668782    21A     -0.633157
      22A     -0.608365    23A     -0.602181    24A     -0.594450
      25A     -0.583143    26A     -0.558349    27A     -0.544483
      28A     -0.526740    29A     -0.510122    30A     -0.509162
      31A     -0.479789    32A     -0.467184    33A     -0.465069
      34A     -0.407438    35A     -0.365035

  @DF-RHF Final Energy:  -402.11203713287193

   => Energetics <=

    Nuclear Repulsion Energy =            486.3143218092142774
    One-Electron Energy =               -1510.6126366238172523
    Two-Electron Energy =                 622.1862776817309850
    Total Energy =                       -402.1120371328719330
  Basis Set: (AUG-CC-PVTZ AUX)
    Blend: AUG-CC-PVTZ-RI
    Molecular point group: c1

    Geometry (in Angstrom), charge = 0, multiplicity = 1:

       Center              X                  Y                   Z               Mass
    ------------   -----------------  -----------------  -----------------  -----------------
         O            1.730009983342     1.561149707812    -0.291417302190    15.994914619570
         N            0.946683983342    -0.531169292188     0.205550697810    14.003074004430
         C           -2.272650016658    -0.290186292188    -0.176812302190    12.000000000000
         C           -1.317003016658    -1.474272292188    -0.315582302190    12.000000000000
         C           -1.642895016658     1.085098707812    -0.395897302190    12.000000000000
         C           -0.128101016658    -1.415111292188     0.645345697810    12.000000000000
         C           -0.502448016658     1.421219707812     0.577939697810    12.000000000000
         C            0.826772983342     0.833919707812     0.140168697810    12.000000000000
         C            2.147915983342    -1.157921292188    -0.326265302190    12.000000000000
         H           -2.713883016658    -0.315745292188     0.829459697810     1.007825032230
         H           -3.104830016658    -0.418288292188    -0.879970302190     1.007825032230
         H           -1.880107916658    -2.393582892188    -0.108148402190     1.007825032230
         H           -0.932683016658    -1.539713292188    -1.341270302190     1.007825032230
         H           -2.427438016658     1.843626707812    -0.289645302190     1.007825032230
         H           -1.268576016658     1.169862707812    -1.424134302190     1.007825032230
         H           -0.468406016658    -1.129202292188     1.648934697810     1.007825032230
         H            0.318045983342    -2.409288292188     0.744669697810     1.007825032230
         H           -0.765843016658     1.100894707812     1.594142697810     1.007825032230
         H           -0.335013016658     2.500322707812     0.606197697810     1.007825032230
         H            1.904646983342    -1.797029292188    -1.182845302190     1.007825032230
         H            2.632320983342    -1.767970292188     0.443169697810     1.007825032230
         H            2.823473983342    -0.366092292188    -0.644439302190     1.007825032230

  Basis Set: AUG-CC-PVTZ
    Blend: AUG-CC-PVTZ
  Basis Set: (AUG-CC-PVTZ AUX)
    Blend: AUG-CC-PVTZ-JKFIT
	 Reference Energy          =    -402.1120371328719330 [Eh]
	 Singles Energy            =      -0.0000000000000000 [Eh]
	 Same-Spin Energy          =      -0.4217829036118886 [Eh]
	 Opposite-Spin Energy      =      -1.4052204551154985 [Eh]
	 Correlation Energy        =      -1.8270033587273871 [Eh]
	 Total Energy              =    -403.9390404915993145 [Eh]

	 ================> DF-SCS-MP2 Energies <==================
	-----------------------------------------------------------
	 SCS Same-Spin Scale       =       0.3333333333333333 [-]
	 SCS Opposite-Spin Scale   =       1.2000000000000000 [-]
	 SCS Same-Spin Energy      =      -0.1405943012039629 [Eh]
	 SCS Opposite-Spin Energy  =      -1.6862645461385981 [Eh]
	 SCS Correlation Energy    =      -1.8268588473425609 [Eh]
	 SCS Total Energy          =    -403.9388959802145109 [Eh]
	-----------------------------------------------------------

  Dipole Moment: [D]
     X:    -2.5807      Y:    -3.1021      Z:     0.7984     Total:     4.1135

*** Psi4 exiting successfully. Buy a developer a beer!
