                               Psi4 1.3.2 release

  ==> Input File <==

--------------------------------------------------------------------------
#psi4
#
memory 32 gb

molecule  {
0 1
  O        1.7739800     1.6003060    -0.2911220
  N        0.9906540    -0.4920130     0.2058460
  C       -2.2286800    -0.2510300    -0.1765170
  C       -1.2730330    -1.4351160    -0.3152870
  C       -1.5989250     1.1242550    -0.3956020
  C       -0.0841310    -1.3759550     0.6456410
  C       -0.4584780     1.4603760     0.5782350
  C        0.8707430     0.8730760     0.1404640
  C        2.1093579    -1.0757053    -0.2894327
  H       -2.6699130    -0.2765890     0.8297550
  H       -3.0608600    -0.3791320    -0.8796750
  H       -1.8321650    -2.3606500    -0.1255340
  H       -0.8887130    -1.5005570    -1.3409750
  H       -2.3834680     1.8827830    -0.2893500
  H       -1.2246060     1.2090190    -1.4238390
  H       -0.4244360    -1.0900460     1.6492300
  H        0.3620160    -2.3701320     0.7449650
  H       -0.7218730     1.1400510     1.5944380
  H       -0.2910430     2.5394790     0.6064930
  H        1.9486170    -1.7578730    -1.1825500
  H        2.6762910    -1.7288140     0.4434650
  H        2.8674440    -0.3269360    -0.6441440
units angstrom
no_reorient  #important for SAPT in psi4, default
symmetry c1  #important for SAPT in psi4, default
}

set PROPERTIES_ORIGIN ["COM"]
properties('MP2/aug-cc-pvtz', properties = ['dipole'])
--------------------------------------------------------------------------

    Molecular point group: c1
  Charge       = 0
  Multiplicity = 1
  Basis Set: AUG-CC-PVTZ
    Blend: AUG-CC-PVTZ
  Basis Set: (AUG-CC-PVTZ AUX)
    Blend: AUG-CC-PVTZ-JKFIT

    Orbital Energies [Eh]
    ---------------------

    Doubly Occupied:

       1A    -20.509752     2A    -15.582439     3A    -11.343452
       4A    -11.274750     5A    -11.250882     6A    -11.236500
       7A    -11.235749     8A    -11.235373     9A    -11.233085
      10A     -1.368884    11A     -1.262297    12A     -1.102493
      13A     -1.040997    14A     -0.980268    15A     -0.913620
      16A     -0.878056    17A     -0.795022    18A     -0.735147
      19A     -0.695542    20A     -0.674950    21A     -0.639407
      22A     -0.617789    23A     -0.604033    24A     -0.595862
      25A     -0.584959    26A     -0.551108    27A     -0.550878
      28A     -0.519714    29A     -0.505099    30A     -0.500688
      31A     -0.480787    32A     -0.470102    33A     -0.466416
      34A     -0.411524    35A     -0.362680

  @DF-RHF Final Energy:  -402.10120945987785

   => Energetics <=

    Nuclear Repulsion Energy =            488.4788575086353717
    One-Electron Energy =               -1514.7395267317517664
    Two-Electron Energy =                 624.1594597632384875
    Total Energy =                       -402.1012094598778503
  Basis Set: (AUG-CC-PVTZ AUX)
    Blend: AUG-CC-PVTZ-RI
    Molecular point group: c1

    Geometry (in Angstrom), charge = 0, multiplicity = 1:

       Center              X                  Y                   Z               Mass
    ------------   -----------------  -----------------  -----------------  -----------------
         O            1.737770293578     1.557133614578    -0.294726738010    15.994914619570
         N            0.954444293578    -0.535185385422     0.202241261990    14.003074004430
         C           -2.264889706422    -0.294202385422    -0.180121738010    12.000000000000
         C           -1.309242706422    -1.478288385422    -0.318891738010    12.000000000000
         C           -1.635134706422     1.081082614578    -0.399206738010    12.000000000000
         C           -0.120340706422    -1.419127385422     0.642036261990    12.000000000000
         C           -0.494687706422     1.417203614578     0.574630261990    12.000000000000
         C            0.834533293578     0.829903614578     0.136859261990    12.000000000000
         C            2.073148193578    -1.118877685422    -0.293037438010    12.000000000000
         H           -2.706122706422    -0.319761385422     0.826150261990     1.007825032230
         H           -3.097069706422    -0.422304385422    -0.883279738010     1.007825032230
         H           -1.868374706422    -2.403822385422    -0.129138738010     1.007825032230
         H           -0.924922706422    -1.543729385422    -1.344579738010     1.007825032230
         H           -2.419677706422     1.839610614578    -0.292954738010     1.007825032230
         H           -1.260815706422     1.165846614578    -1.427443738010     1.007825032230
         H           -0.460645706422    -1.133218385422     1.645625261990     1.007825032230
         H            0.325806293578    -2.413304385422     0.741360261990     1.007825032230
         H           -0.758082706422     1.096878614578     1.590833261990     1.007825032230
         H           -0.327252706422     2.496306614578     0.602888261990     1.007825032230
         H            1.912407293578    -1.801045385422    -1.186154738010     1.007825032230
         H            2.640081293578    -1.771986385422     0.439860261990     1.007825032230
         H            2.831234293578    -0.370108385422    -0.647748738010     1.007825032230

  Basis Set: AUG-CC-PVTZ
    Blend: AUG-CC-PVTZ
  Basis Set: (AUG-CC-PVTZ AUX)
    Blend: AUG-CC-PVTZ-JKFIT
	 Reference Energy          =    -402.1012094598778503 [Eh]
	 Singles Energy            =      -0.0000000000000000 [Eh]
	 Same-Spin Energy          =      -0.4227929901088227 [Eh]
	 Opposite-Spin Energy      =      -1.4058996731431646 [Eh]
	 Correlation Energy        =      -1.8286926632519873 [Eh]
	 Total Energy              =    -403.9299021231298639 [Eh]

	 ================> DF-SCS-MP2 Energies <==================
	-----------------------------------------------------------
	 SCS Same-Spin Scale       =       0.3333333333333333 [-]
	 SCS Opposite-Spin Scale   =       1.2000000000000000 [-]
	 SCS Same-Spin Energy      =      -0.1409309967029409 [Eh]
	 SCS Opposite-Spin Energy  =      -1.6870796077717973 [Eh]
	 SCS Correlation Energy    =      -1.8280106044747382 [Eh]
	 SCS Total Energy          =    -403.9292200643525916 [Eh]
	-----------------------------------------------------------

  Dipole Moment: [D]
     X:    -2.8058      Y:    -2.8921      Z:     0.8662     Total:     4.1215

*** Psi4 exiting successfully. Buy a developer a beer!
