                               Psi4 1.3.2 release

  ==> Input File <==

--------------------------------------------------------------------------
#psi4
#
memory 32 gb

molecule  {
0 1
  O        1.7739800     1.6003060    -0.2911220
  N        0.9906540    -0.4920130     0.2058460
  C       -2.2484801    -0.2679735    -0.1708595
  C       -1.2730330    -1.4351160    -0.3152870
  C       -1.5989250     1.1242550    -0.3956020
  C       -0.0841310    -1.3759550     0.6456410
  C       -0.4584780     1.4603760     0.5782350
  C        0.8707430     0.8730760     0.1404640
  C        2.1918860    -1.1187650    -0.3259700
  H       -2.6699130    -0.2765890     0.8297550
  H       -3.0608600    -0.3791320    -0.8796750
  H       -1.8321650    -2.3606500    -0.1255340
  H       -0.8887130    -1.5005570    -1.3409750
  H       -2.3834680     1.8827830    -0.2893500
  H       -1.2246060     1.2090190    -1.4238390
  H       -0.4244360    -1.0900460     1.6492300
  H        0.3620160    -2.3701320     0.7449650
  H       -0.7218730     1.1400510     1.5944380
  H       -0.2910430     2.5394790     0.6064930
  H        1.9486170    -1.7578730    -1.1825500
  H        2.6762910    -1.7288140     0.4434650
  H        2.8674440    -0.3269360    -0.6441440
units angstrom
no_reorient  #important for SAPT in psi4, default
symmetry c1  #important for SAPT in psi4, default
}

set PROPERTIES_ORIGIN ["COM"]
properties('MP2/aug-cc-pvtz', properties = ['dipole'])
--------------------------------------------------------------------------

    Molecular point group: c1
  Charge       = 0
  Multiplicity = 1
  Basis Set: AUG-CC-PVTZ
    Blend: AUG-CC-PVTZ
  Basis Set: (AUG-CC-PVTZ AUX)
    Blend: AUG-CC-PVTZ-JKFIT

    Orbital Energies [Eh]
    ---------------------

    Doubly Occupied:

       1A    -20.505621     2A    -15.580487     3A    -11.339800
       4A    -11.272445     5A    -11.250565     6A    -11.235166
       7A    -11.233491     8A    -11.233155     9A    -11.230454
      10A     -1.361747    11A     -1.241081    12A     -1.095124
      13A     -1.037931    14A     -0.974939    15A     -0.914357
      16A     -0.876706    17A     -0.794509    18A     -0.725208
      19A     -0.690307    20A     -0.668185    21A     -0.633775
      22A     -0.608800    23A     -0.600535    24A     -0.594330
      25A     -0.582676    26A     -0.558810    27A     -0.543840
      28A     -0.526746    29A     -0.510388    30A     -0.509428
      31A     -0.482377    32A     -0.468843    33A     -0.460660
      34A     -0.407310    35A     -0.365110

  @DF-RHF Final Energy:  -402.11171723860781

   => Energetics <=

    Nuclear Repulsion Energy =            485.9197317454608083
    One-Electron Energy =               -1509.8330868153582287
    Two-Electron Energy =                 621.8016378312896677
    Total Energy =                       -402.1117172386077527
  Basis Set: (AUG-CC-PVTZ AUX)
    Blend: AUG-CC-PVTZ-RI
    Molecular point group: c1

    Geometry (in Angstrom), charge = 0, multiplicity = 1:

       Center              X                  Y                   Z               Mass
    ------------   -----------------  -----------------  -----------------  -----------------
         O            1.731847888436     1.562798760290    -0.291811250726    15.994914619570
         N            0.948521888436    -0.529520239710     0.205156749274    14.003074004430
         C           -2.290612211564    -0.305480739710    -0.171548750726    12.000000000000
         C           -1.315165111564    -1.472623239710    -0.315976250726    12.000000000000
         C           -1.641057111564     1.086747760290    -0.396291250726    12.000000000000
         C           -0.126263111564    -1.413462239710     0.644951749274    12.000000000000
         C           -0.500610111564     1.422868760290     0.577545749274    12.000000000000
         C            0.828610888436     0.835568760290     0.139774749274    12.000000000000
         C            2.149753888436    -1.156272239710    -0.326659250726    12.000000000000
         H           -2.712045111564    -0.314096239710     0.829065749274     1.007825032230
         H           -3.102992111564    -0.416639239710    -0.880364250726     1.007825032230
         H           -1.874297111564    -2.398157239710    -0.126223250726     1.007825032230
         H           -0.930845111564    -1.538064239710    -1.341664250726     1.007825032230
         H           -2.425600111564     1.845275760290    -0.290039250726     1.007825032230
         H           -1.266738111564     1.171511760290    -1.424528250726     1.007825032230
         H           -0.466568111564    -1.127553239710     1.648540749274     1.007825032230
         H            0.319883888436    -2.407639239710     0.744275749274     1.007825032230
         H           -0.764005111564     1.102543760290     1.593748749274     1.007825032230
         H           -0.333175111564     2.501971760290     0.605803749274     1.007825032230
         H            1.906484888436    -1.795380239710    -1.183239250726     1.007825032230
         H            2.634158888436    -1.766321239710     0.442775749274     1.007825032230
         H            2.825311888436    -0.364443239710    -0.644833250726     1.007825032230

  Basis Set: AUG-CC-PVTZ
    Blend: AUG-CC-PVTZ
  Basis Set: (AUG-CC-PVTZ AUX)
    Blend: AUG-CC-PVTZ-JKFIT
	 Reference Energy          =    -402.1117172386078096 [Eh]
	 Singles Energy            =      -0.0000000000000000 [Eh]
	 Same-Spin Energy          =      -0.4216247798671172 [Eh]
	 Opposite-Spin Energy      =      -1.4050628149943341 [Eh]
	 Correlation Energy        =      -1.8266875948614514 [Eh]
	 Total Energy              =    -403.9384048334692352 [Eh]

	 ================> DF-SCS-MP2 Energies <==================
	-----------------------------------------------------------
	 SCS Same-Spin Scale       =       0.3333333333333333 [-]
	 SCS Opposite-Spin Scale   =       1.2000000000000000 [-]
	 SCS Same-Spin Energy      =      -0.1405415932890391 [Eh]
	 SCS Opposite-Spin Energy  =      -1.6860753779932007 [Eh]
	 SCS Correlation Energy    =      -1.8266169712822398 [Eh]
	 SCS Total Energy          =    -403.9383342098900584 [Eh]
	-----------------------------------------------------------

  Dipole Moment: [D]
     X:    -2.5873      Y:    -3.1083      Z:     0.7991     Total:     4.1224

*** Psi4 exiting successfully. Buy a developer a beer!
