                               Psi4 1.3.2 release

  ==> Input File <==

--------------------------------------------------------------------------
#psi4
#
memory 32 gb

molecule  {
0 1
  O        1.7739800     1.6003060    -0.2911220
  N        0.9906540    -0.4920130     0.2058460
  C       -2.2286800    -0.2510300    -0.1765170
  C       -1.2730330    -1.4351160    -0.3152870
  C       -1.5989250     1.1242550    -0.3956020
  C       -0.0841310    -1.3759550     0.6456410
  C       -0.4584780     1.4603760     0.5782350
  C        0.8707430     0.8730760     0.1404640
  C        2.1918860    -1.1187650    -0.3259700
  H       -2.7044352    -0.2814984     0.8137617
  H       -3.0608600    -0.3791320    -0.8796750
  H       -1.8321650    -2.3606500    -0.1255340
  H       -0.8887130    -1.5005570    -1.3409750
  H       -2.3834680     1.8827830    -0.2893500
  H       -1.2246060     1.2090190    -1.4238390
  H       -0.4244360    -1.0900460     1.6492300
  H        0.3620160    -2.3701320     0.7449650
  H       -0.7218730     1.1400510     1.5944380
  H       -0.2910430     2.5394790     0.6064930
  H        1.9486170    -1.7578730    -1.1825500
  H        2.6762910    -1.7288140     0.4434650
  H        2.8674440    -0.3269360    -0.6441440
units angstrom
no_reorient  #important for SAPT in psi4, default
symmetry c1  #important for SAPT in psi4, default
}

set PROPERTIES_ORIGIN ["COM"]
properties('MP2/aug-cc-pvtz', properties = ['dipole'])
--------------------------------------------------------------------------

    Molecular point group: c1
  Charge       = 0
  Multiplicity = 1
  Basis Set: AUG-CC-PVTZ
    Blend: AUG-CC-PVTZ
  Basis Set: (AUG-CC-PVTZ AUX)
    Blend: AUG-CC-PVTZ-JKFIT

    Orbital Energies [Eh]
    ---------------------

    Doubly Occupied:

       1A    -20.505686     2A    -15.580550     3A    -11.339900
       4A    -11.272138     5A    -11.250577     6A    -11.234840
       7A    -11.233580     8A    -11.233440     9A    -11.231358
      10A     -1.361825    11A     -1.241164    12A     -1.097298
      13A     -1.038103    14A     -0.975650    15A     -0.914000
      16A     -0.878163    17A     -0.792973    18A     -0.725223
      19A     -0.690326    20A     -0.668944    21A     -0.632902
      22A     -0.608044    23A     -0.602192    24A     -0.593829
      25A     -0.583114    26A     -0.558423    27A     -0.544429
      28A     -0.527108    29A     -0.509804    30A     -0.508477
      31A     -0.480496    32A     -0.466918    33A     -0.465140
      34A     -0.407429    35A     -0.365074

  @DF-RHF Final Energy:  -402.11195107788166

   => Energetics <=

    Nuclear Repulsion Energy =            486.2331340854201471
    One-Electron Energy =               -1510.4519367242571661
    Two-Electron Energy =                 622.1068515609555334
    Total Energy =                       -402.1119510778815993
  Basis Set: (AUG-CC-PVTZ AUX)
    Blend: AUG-CC-PVTZ-RI
    Molecular point group: c1

    Geometry (in Angstrom), charge = 0, multiplicity = 1:

       Center              X                  Y                   Z               Mass
    ------------   -----------------  -----------------  -----------------  -----------------
         O            1.730252221096     1.561237984286    -0.291150285840    15.994914619570
         N            0.946926221096    -0.531081015714     0.205817714160    14.003074004430
         C           -2.272407778904    -0.290098015714    -0.176545285840    12.000000000000
         C           -1.316760778904    -1.474184015714    -0.315315285840    12.000000000000
         C           -1.642652778904     1.085186984286    -0.395630285840    12.000000000000
         C           -0.127858778904    -1.415023015714     0.645612714160    12.000000000000
         C           -0.502205778904     1.421307984286     0.578206714160    12.000000000000
         C            0.827015221096     0.834007984286     0.140435714160    12.000000000000
         C            2.148158221096    -1.157833015714    -0.325998285840    12.000000000000
         H           -2.748162978904    -0.320566415714     0.813733414160     1.007825032230
         H           -3.104587778904    -0.418200015714    -0.879703285840     1.007825032230
         H           -1.875892778904    -2.399718015714    -0.125562285840     1.007825032230
         H           -0.932440778904    -1.539625015714    -1.341003285840     1.007825032230
         H           -2.427195778904     1.843714984286    -0.289378285840     1.007825032230
         H           -1.268333778904     1.169950984286    -1.423867285840     1.007825032230
         H           -0.468163778904    -1.129114015714     1.649201714160     1.007825032230
         H            0.318288221096    -2.409200015714     0.744936714160     1.007825032230
         H           -0.765600778904     1.100982984286     1.594409714160     1.007825032230
         H           -0.334770778904     2.500410984286     0.606464714160     1.007825032230
         H            1.904889221096    -1.796941015714    -1.182578285840     1.007825032230
         H            2.632563221096    -1.767882015714     0.443436714160     1.007825032230
         H            2.823716221096    -0.366004015714    -0.644172285840     1.007825032230

  Basis Set: AUG-CC-PVTZ
    Blend: AUG-CC-PVTZ
  Basis Set: (AUG-CC-PVTZ AUX)
    Blend: AUG-CC-PVTZ-JKFIT
	 Reference Energy          =    -402.1119510778816561 [Eh]
	 Singles Energy            =      -0.0000000000000000 [Eh]
	 Same-Spin Energy          =      -0.4217546716702126 [Eh]
	 Opposite-Spin Energy      =      -1.4051572576154259 [Eh]
	 Correlation Energy        =      -1.8269119292856384 [Eh]
	 Total Energy              =    -403.9388630071672992 [Eh]

	 ================> DF-SCS-MP2 Energies <==================
	-----------------------------------------------------------
	 SCS Same-Spin Scale       =       0.3333333333333333 [-]
	 SCS Opposite-Spin Scale   =       1.2000000000000000 [-]
	 SCS Same-Spin Energy      =      -0.1405848905567375 [Eh]
	 SCS Opposite-Spin Energy  =      -1.6861887091385110 [Eh]
	 SCS Correlation Energy    =      -1.8267735996952486 [Eh]
	 SCS Total Energy          =    -403.9387246775768858 [Eh]
	-----------------------------------------------------------

  Dipole Moment: [D]
     X:    -2.5910      Y:    -3.1055      Z:     0.7948     Total:     4.1218

*** Psi4 exiting successfully. Buy a developer a beer!
