                               Psi4 1.3.2 release

  ==> Input File <==

--------------------------------------------------------------------------
#psi4
#
memory 32 gb

molecule  {
0 1
  O        1.7739800     1.6003060    -0.2911220
  N        0.9906540    -0.4920130     0.2058460
  C       -2.2587782    -0.2719846    -0.2152381
  C       -1.2730330    -1.4351160    -0.3152870
  C       -1.5989250     1.1242550    -0.3956020
  C       -0.0841310    -1.3759550     0.6456410
  C       -0.4584780     1.4603760     0.5782350
  C        0.8707430     0.8730760     0.1404640
  C        2.1918860    -1.1187650    -0.3259700
  H       -2.6699130    -0.2765890     0.8297550
  H       -3.0608600    -0.3791320    -0.8796750
  H       -1.8321650    -2.3606500    -0.1255340
  H       -0.8887130    -1.5005570    -1.3409750
  H       -2.3834680     1.8827830    -0.2893500
  H       -1.2246060     1.2090190    -1.4238390
  H       -0.4244360    -1.0900460     1.6492300
  H        0.3620160    -2.3701320     0.7449650
  H       -0.7218730     1.1400510     1.5944380
  H       -0.2910430     2.5394790     0.6064930
  H        1.9486170    -1.7578730    -1.1825500
  H        2.6762910    -1.7288140     0.4434650
  H        2.8674440    -0.3269360    -0.6441440
units angstrom
no_reorient  #important for SAPT in psi4, default
symmetry c1  #important for SAPT in psi4, default
}

set PROPERTIES_ORIGIN ["COM"]
properties('MP2/aug-cc-pvtz', properties = ['dipole'])
--------------------------------------------------------------------------

    Molecular point group: c1
  Charge       = 0
  Multiplicity = 1
  Basis Set: AUG-CC-PVTZ
    Blend: AUG-CC-PVTZ
  Basis Set: (AUG-CC-PVTZ AUX)
    Blend: AUG-CC-PVTZ-JKFIT

    Orbital Energies [Eh]
    ---------------------

    Doubly Occupied:

       1A    -20.505834     2A    -15.580670     3A    -11.340036
       4A    -11.273304     5A    -11.250670     6A    -11.235363
       7A    -11.234312     8A    -11.233278     9A    -11.230967
      10A     -1.361943    11A     -1.241241    12A     -1.094580
      13A     -1.037977    14A     -0.975730    15A     -0.915259
      16A     -0.877127    17A     -0.793306    18A     -0.725733
      19A     -0.690889    20A     -0.669204    21A     -0.632532
      22A     -0.612019    23A     -0.600515    24A     -0.593225
      25A     -0.582483    26A     -0.558215    27A     -0.545329
      28A     -0.526598    29A     -0.513441    30A     -0.509166
      31A     -0.474506    32A     -0.472188    33A     -0.460235
      34A     -0.407652    35A     -0.365467

  @DF-RHF Final Energy:  -402.10921327899996

   => Energetics <=

    Nuclear Repulsion Energy =            485.6867367867677672
    One-Electron Energy =               -1509.3499162836919822
    Two-Electron Energy =                 621.5539662179241986
    Total Energy =                       -402.1092132789999596
  Basis Set: (AUG-CC-PVTZ AUX)
    Blend: AUG-CC-PVTZ-RI
    Molecular point group: c1

    Geometry (in Angstrom), charge = 0, multiplicity = 1:

       Center              X                  Y                   Z               Mass
    ------------   -----------------  -----------------  -----------------  -----------------
         O            1.732820173865     1.563177464525    -0.287621286933    15.994914619570
         N            0.949494173865    -0.529141535475     0.209346713067    14.003074004430
         C           -2.299938026135    -0.309113135475    -0.211737386933    12.000000000000
         C           -1.314192826135    -1.472244535475    -0.311786286933    12.000000000000
         C           -1.640084826135     1.087126464525    -0.392101286933    12.000000000000
         C           -0.125290826135    -1.413083535475     0.649141713067    12.000000000000
         C           -0.499637826135     1.423247464525     0.581735713067    12.000000000000
         C            0.829583173865     0.835947464525     0.143964713067    12.000000000000
         C            2.150726173865    -1.155893535475    -0.322469286933    12.000000000000
         H           -2.711072826135    -0.313717535475     0.833255713067     1.007825032230
         H           -3.102019826135    -0.416260535475    -0.876174286933     1.007825032230
         H           -1.873324826135    -2.397778535475    -0.122033286933     1.007825032230
         H           -0.929872826135    -1.537685535475    -1.337474286933     1.007825032230
         H           -2.424627826135     1.845654464525    -0.285849286933     1.007825032230
         H           -1.265765826135     1.171890464525    -1.420338286933     1.007825032230
         H           -0.465595826135    -1.127174535475     1.652730713067     1.007825032230
         H            0.320856173865    -2.407260535475     0.748465713067     1.007825032230
         H           -0.763032826135     1.102922464525     1.597938713067     1.007825032230
         H           -0.332202826135     2.502350464525     0.609993713067     1.007825032230
         H            1.907457173865    -1.795001535475    -1.179049286933     1.007825032230
         H            2.635131173865    -1.765942535475     0.446965713067     1.007825032230
         H            2.826284173865    -0.364064535475    -0.640643286933     1.007825032230

  Basis Set: AUG-CC-PVTZ
    Blend: AUG-CC-PVTZ
  Basis Set: (AUG-CC-PVTZ AUX)
    Blend: AUG-CC-PVTZ-JKFIT
	 Reference Energy          =    -402.1092132789999596 [Eh]
	 Singles Energy            =      -0.0000000000000000 [Eh]
	 Same-Spin Energy          =      -0.4216273719924787 [Eh]
	 Opposite-Spin Energy      =      -1.4051468441762422 [Eh]
	 Correlation Energy        =      -1.8267742161687210 [Eh]
	 Total Energy              =    -403.9359874951686606 [Eh]

	 ================> DF-SCS-MP2 Energies <==================
	-----------------------------------------------------------
	 SCS Same-Spin Scale       =       0.3333333333333333 [-]
	 SCS Opposite-Spin Scale   =       1.2000000000000000 [-]
	 SCS Same-Spin Energy      =      -0.1405424573308262 [Eh]
	 SCS Opposite-Spin Energy  =      -1.6861762130114906 [Eh]
	 SCS Correlation Energy    =      -1.8267186703423168 [Eh]
	 SCS Total Energy          =    -403.9359319493422618 [Eh]
	-----------------------------------------------------------

  Dipole Moment: [D]
     X:    -2.5763      Y:    -3.1071      Z:     0.7773     Total:     4.1104

*** Psi4 exiting successfully. Buy a developer a beer!
