                               Psi4 1.3.2 release

  ==> Input File <==

--------------------------------------------------------------------------
#psi4
#
memory 32 gb

molecule  {
0 1
  O        1.7739800     1.6003060    -0.2911220
  N        0.9906540    -0.4920130     0.2058460
  C       -2.2286800    -0.2510300    -0.1765170
  C       -1.2730330    -1.4351160    -0.3152870
  C       -1.5989250     1.1242550    -0.3956020
  C       -0.0554923    -1.4159280     0.6323375
  C       -0.4584780     1.4603760     0.5782350
  C        0.8707430     0.8730760     0.1404640
  C        2.1918860    -1.1187650    -0.3259700
  H       -2.6699130    -0.2765890     0.8297550
  H       -3.0608600    -0.3791320    -0.8796750
  H       -1.8321650    -2.3606500    -0.1255340
  H       -0.8887130    -1.5005570    -1.3409750
  H       -2.3834680     1.8827830    -0.2893500
  H       -1.2246060     1.2090190    -1.4238390
  H       -0.4244360    -1.0900460     1.6492300
  H        0.3620160    -2.3701320     0.7449650
  H       -0.7218730     1.1400510     1.5944380
  H       -0.2910430     2.5394790     0.6064930
  H        1.9486170    -1.7578730    -1.1825500
  H        2.6762910    -1.7288140     0.4434650
  H        2.8674440    -0.3269360    -0.6441440
units angstrom
no_reorient  #important for SAPT in psi4, default
symmetry c1  #important for SAPT in psi4, default
}

set PROPERTIES_ORIGIN ["COM"]
properties('MP2/aug-cc-pvtz', properties = ['dipole'])
--------------------------------------------------------------------------

    Molecular point group: c1
  Charge       = 0
  Multiplicity = 1
  Basis Set: AUG-CC-PVTZ
    Blend: AUG-CC-PVTZ
  Basis Set: (AUG-CC-PVTZ AUX)
    Blend: AUG-CC-PVTZ-JKFIT

    Orbital Energies [Eh]
    ---------------------

    Doubly Occupied:

       1A    -20.506231     2A    -15.580657     3A    -11.341119
       4A    -11.272332     5A    -11.249968     6A    -11.234648
       7A    -11.234078     8A    -11.233454     9A    -11.232307
      10A     -1.362205    11A     -1.241354    12A     -1.096550
      13A     -1.037821    14A     -0.974646    15A     -0.916571
      16A     -0.878690    17A     -0.792153    18A     -0.723859
      19A     -0.690051    20A     -0.672058    21A     -0.632647
      22A     -0.609166    23A     -0.601997    24A     -0.597086
      25A     -0.585982    26A     -0.555914    27A     -0.544601
      28A     -0.525694    29A     -0.510636    30A     -0.505314
      31A     -0.478671    32A     -0.469087    33A     -0.466306
      34A     -0.408225    35A     -0.363606

  @DF-RHF Final Energy:  -402.10905838805041

   => Energetics <=

    Nuclear Repulsion Energy =            485.9057019066266889
    One-Electron Energy =               -1509.7781509973058292
    Two-Electron Energy =                 621.7633907026287261
    Total Energy =                       -402.1090583880503573
  Basis Set: (AUG-CC-PVTZ AUX)
    Blend: AUG-CC-PVTZ-RI
    Molecular point group: c1

    Geometry (in Angstrom), charge = 0, multiplicity = 1:

       Center              X                  Y                   Z               Mass
    ------------   -----------------  -----------------  -----------------  -----------------
         O            1.727274584677     1.564973068879    -0.290021065739    15.994914619570
         N            0.943948584677    -0.527345931121     0.206946934261    14.003074004430
         C           -2.275385415323    -0.286362931121    -0.175416065739    12.000000000000
         C           -1.319738415323    -1.470448931121    -0.314186065739    12.000000000000
         C           -1.645630415323     1.088922068879    -0.394501065739    12.000000000000
         C           -0.102197715323    -1.451260931121     0.633438434261    12.000000000000
         C           -0.505183415323     1.425043068879     0.579335934261    12.000000000000
         C            0.824037584677     0.837743068879     0.141564934261    12.000000000000
         C            2.145180584677    -1.154097931121    -0.324869065739    12.000000000000
         H           -2.716618415323    -0.311921931121     0.830855934261     1.007825032230
         H           -3.107565415323    -0.414464931121    -0.878574065739     1.007825032230
         H           -1.878870415323    -2.395982931121    -0.124433065739     1.007825032230
         H           -0.935418415323    -1.535889931121    -1.339874065739     1.007825032230
         H           -2.430173415323     1.847450068879    -0.288249065739     1.007825032230
         H           -1.271311415323     1.173686068879    -1.422738065739     1.007825032230
         H           -0.471141415323    -1.125378931121     1.650330934261     1.007825032230
         H            0.315310584677    -2.405464931121     0.746065934261     1.007825032230
         H           -0.768578415323     1.104718068879     1.595538934261     1.007825032230
         H           -0.337748415323     2.504146068879     0.607593934261     1.007825032230
         H            1.901911584677    -1.793205931121    -1.181449065739     1.007825032230
         H            2.629585584677    -1.764146931121     0.444565934261     1.007825032230
         H            2.820738584677    -0.362268931121    -0.643043065739     1.007825032230

  Basis Set: AUG-CC-PVTZ
    Blend: AUG-CC-PVTZ
  Basis Set: (AUG-CC-PVTZ AUX)
    Blend: AUG-CC-PVTZ-JKFIT
	 Reference Energy          =    -402.1090583880504141 [Eh]
	 Singles Energy            =      -0.0000000000000000 [Eh]
	 Same-Spin Energy          =      -0.4217155004797655 [Eh]
	 Opposite-Spin Energy      =      -1.4052200461433999 [Eh]
	 Correlation Energy        =      -1.8269355466231654 [Eh]
	 Total Energy              =    -403.9359939346736041 [Eh]

	 ================> DF-SCS-MP2 Energies <==================
	-----------------------------------------------------------
	 SCS Same-Spin Scale       =       0.3333333333333333 [-]
	 SCS Opposite-Spin Scale   =       1.2000000000000000 [-]
	 SCS Same-Spin Energy      =      -0.1405718334932551 [Eh]
	 SCS Opposite-Spin Energy  =      -1.6862640553720798 [Eh]
	 SCS Correlation Energy    =      -1.8268358888653349 [Eh]
	 SCS Total Energy          =    -403.9358942769157466 [Eh]
	-----------------------------------------------------------

  Dipole Moment: [D]
     X:    -2.5705      Y:    -3.1193      Z:     0.7809     Total:     4.1167

*** Psi4 exiting successfully. Buy a developer a beer!
