                               Psi4 1.4a3.dev225

  ==> Input File <==

--------------------------------------------------------------------------
#psi4
#
memory 32 gb

molecule  {
0 1
  O        1.7739800     1.6003060    -0.2911220
  N        0.9906540    -0.4920130     0.2058460
  C       -2.2286800    -0.2510300    -0.1765170
  C       -1.2730330    -1.4351160    -0.3152870
  C       -1.5989250     1.1242550    -0.3956020
  C       -0.0841310    -1.3759550     0.6456410
  C       -0.4584780     1.4603760     0.5782350
  C        0.8707430     0.8730760     0.1404640
  C        2.1918860    -1.1187650    -0.3259700
  H       -2.6699130    -0.2765890     0.8297550
  H       -3.0608600    -0.3791320    -0.8796750
  H       -1.8321650    -2.3606500    -0.1255340
  H       -0.8887130    -1.5005570    -1.3409750
  H       -2.3834680     1.8827830    -0.2893500
  H       -1.2246060     1.2090190    -1.4238390
  H       -0.4244360    -1.0900460     1.6492300
  H        0.3620160    -2.3701320     0.7449650
  H       -0.7266726     1.1342140     1.6129554
  H       -0.2910430     2.5394790     0.6064930
  H        1.9486170    -1.7578730    -1.1825500
  H        2.6762910    -1.7288140     0.4434650
  H        2.8674440    -0.3269360    -0.6441440
units angstrom
no_reorient  #important for SAPT in psi4, default
symmetry c1  #important for SAPT in psi4, default
}

set PROPERTIES_ORIGIN ["COM"]
properties('MP2/aug-cc-pvtz', properties = ['dipole'])
--------------------------------------------------------------------------

    Molecular point group: c1
  Charge       = 0
  Multiplicity = 1
  Basis Set: AUG-CC-PVTZ
    Blend: AUG-CC-PVTZ
  Basis Set: (AUG-CC-PVTZ AUX)
    Blend: AUG-CC-PVTZ-JKFIT

    Orbital Energies [Eh]
    ---------------------

    Doubly Occupied:

       1A    -20.505882     2A    -15.580625     3A    -11.340150
       4A    -11.272141     5A    -11.250618     6A    -11.236058
       7A    -11.234731     8A    -11.233385     9A    -11.231520
      10A     -1.361988    11A     -1.241226    12A     -1.097360
      13A     -1.037652    14A     -0.975478    15A     -0.913651
      16A     -0.877885    17A     -0.792221    18A     -0.725075
      19A     -0.689635    20A     -0.668759    21A     -0.633279
      22A     -0.607947    23A     -0.601247    24A     -0.594184
      25A     -0.583300    26A     -0.557825    27A     -0.544557
      28A     -0.527163    29A     -0.509664    30A     -0.508119
      31A     -0.479382    32A     -0.467560    33A     -0.465124
      34A     -0.407494    35A     -0.365145

  @DF-RHF Final Energy:  -402.11148246497891

   => Energetics <=

    Nuclear Repulsion Energy =            486.2062669909190049
    One-Electron Energy =               -1510.3994394934759384
    Two-Electron Energy =                 622.0816900375780278
    Total Energy =                       -402.1114824649789625
  Basis Set: (AUG-CC-PVTZ AUX)
    Blend: AUG-CC-PVTZ-RI
    Molecular point group: c1

    Geometry (in Angstrom), charge = 0, multiplicity = 1:

       Center              X                  Y                   Z               Mass
    ------------   -----------------  -----------------  -----------------  -----------------
         O            1.730016538580     1.561245339601    -0.291423935136    15.994914619570
         N            0.946690538580    -0.531073660399     0.205544064864    14.003074004430
         C           -2.272643461420    -0.290090660399    -0.176818935136    12.000000000000
         C           -1.316996461420    -1.474176660399    -0.315588935136    12.000000000000
         C           -1.642888461420     1.085194339601    -0.395903935136    12.000000000000
         C           -0.128094461420    -1.415015660399     0.645339064864    12.000000000000
         C           -0.502441461420     1.421315339601     0.577933064864    12.000000000000
         C            0.826779538580     0.834015339601     0.140162064864    12.000000000000
         C            2.147922538580    -1.157825660399    -0.326271935136    12.000000000000
         H           -2.713876461420    -0.315649660399     0.829453064864     1.007825032230
         H           -3.104823461420    -0.418192660399    -0.879976935136     1.007825032230
         H           -1.876128461420    -2.399710660399    -0.125835935136     1.007825032230
         H           -0.932676461420    -1.539617660399    -1.341276935136     1.007825032230
         H           -2.427431461420     1.843722339601    -0.289651935136     1.007825032230
         H           -1.268569461420     1.169958339601    -1.424140935136     1.007825032230
         H           -0.468399461420    -1.129106660399     1.648928064864     1.007825032230
         H            0.318052538580    -2.409192660399     0.744663064864     1.007825032230
         H           -0.770636061420     1.095153339601     1.612653464864     1.007825032230
         H           -0.335006461420     2.500418339601     0.606191064864     1.007825032230
         H            1.904653538580    -1.796933660399    -1.182851935136     1.007825032230
         H            2.632327538580    -1.767874660399     0.443163064864     1.007825032230
         H            2.823480538580    -0.365996660399    -0.644445935136     1.007825032230

  Basis Set: AUG-CC-PVTZ
    Blend: AUG-CC-PVTZ
  Basis Set: (AUG-CC-PVTZ AUX)
    Blend: AUG-CC-PVTZ-JKFIT
	 Reference Energy          =    -402.1114824649789057 [Eh]
	 Singles Energy            =      -0.0000000000000000 [Eh]
	 Same-Spin Energy          =      -0.4218139742047647 [Eh]
	 Opposite-Spin Energy      =      -1.4053669255202488 [Eh]
	 Correlation Energy        =      -1.8271808997250134 [Eh]
	 Total Energy              =    -403.9386633647039275 [Eh]

	 ================> DF-SCS-MP2 Energies <==================
	-----------------------------------------------------------
	 SCS Same-Spin Scale       =       0.3333333333333333 [-]
	 SCS Opposite-Spin Scale   =       1.2000000000000000 [-]
	 SCS Same-Spin Energy      =      -0.1406046580682549 [Eh]
	 SCS Opposite-Spin Energy  =      -1.6864403106242984 [Eh]
	 SCS Correlation Energy    =      -1.8270449686925534 [Eh]
	 SCS Total Energy          =    -403.9385274336714815 [Eh]
	-----------------------------------------------------------

  Dipole Moment: [D]
     X:    -2.5770      Y:    -3.1031      Z:     0.7825     Total:     4.1089

*** Psi4 exiting successfully. Buy a developer a beer!
