                               Psi4 1.3.2 release

  ==> Input File <==

--------------------------------------------------------------------------
#psi4
#
memory 32 gb

molecule  {
0 1
  O        1.7739800     1.6003060    -0.2911220
  N        0.9906540    -0.4920130     0.2058460
  C       -2.2286800    -0.2510300    -0.1765170
  C       -1.2730330    -1.4351160    -0.3152870
  C       -1.5989250     1.1242550    -0.3956020
  C       -0.0841310    -1.3759550     0.6456410
  C       -0.4584780     1.4603760     0.5782350
  C        0.6955797     0.9504698     0.1981530
  C        2.1918860    -1.1187650    -0.3259700
  H       -2.6699130    -0.2765890     0.8297550
  H       -3.0608600    -0.3791320    -0.8796750
  H       -1.8321650    -2.3606500    -0.1255340
  H       -0.8887130    -1.5005570    -1.3409750
  H       -2.3834680     1.8827830    -0.2893500
  H       -1.2246060     1.2090190    -1.4238390
  H       -0.4244360    -1.0900460     1.6492300
  H        0.3620160    -2.3701320     0.7449650
  H       -0.7218730     1.1400510     1.5944380
  H       -0.2910430     2.5394790     0.6064930
  H        1.9486170    -1.7578730    -1.1825500
  H        2.6762910    -1.7288140     0.4434650
  H        2.8674440    -0.3269360    -0.6441440
units angstrom
no_reorient  #important for SAPT in psi4, default
symmetry c1  #important for SAPT in psi4, default
}

set PROPERTIES_ORIGIN ["COM"]
properties('MP2/aug-cc-pvtz', properties = ['dipole'])
--------------------------------------------------------------------------

    Molecular point group: c1
  Charge       = 0
  Multiplicity = 1
  Basis Set: AUG-CC-PVTZ
    Blend: AUG-CC-PVTZ
  Basis Set: (AUG-CC-PVTZ AUX)
    Blend: AUG-CC-PVTZ-JKFIT

    Orbital Energies [Eh]
    ---------------------

    Doubly Occupied:

       1A    -20.501389     2A    -15.575873     3A    -11.356870
       4A    -11.263608     5A    -11.250149     6A    -11.247069
       7A    -11.238541     8A    -11.237666     9A    -11.232250
      10A     -1.307841    11A     -1.208092    12A     -1.122611
      13A     -1.061904    14A     -0.984234    15A     -0.903315
      16A     -0.888055    17A     -0.797388    18A     -0.727647
      19A     -0.702147    20A     -0.667508    21A     -0.627989
      22A     -0.614948    23A     -0.600386    24A     -0.592160
      25A     -0.584156    26A     -0.557806    27A     -0.555071
      28A     -0.522879    29A     -0.498954    30A     -0.487956
      31A     -0.484351    32A     -0.475803    33A     -0.443682
      34A     -0.407469    35A     -0.348069

  @DF-RHF Final Energy:  -402.03980512717931

   => Energetics <=

    Nuclear Repulsion Energy =            485.9531656212042208
    One-Electron Energy =               -1509.8342723136388486
    Two-Electron Energy =                 621.8413015652553213
    Total Energy =                       -402.0398051271793065
  Basis Set: (AUG-CC-PVTZ AUX)
    Blend: AUG-CC-PVTZ-RI
    Molecular point group: c1

    Geometry (in Angstrom), charge = 0, multiplicity = 1:

       Center              X                  Y                   Z               Mass
    ------------   -----------------  -----------------  -----------------  -----------------
         O            1.746516358889     1.553891992808    -0.296723755878    15.994914619570
         N            0.963190358889    -0.538427007192     0.200244244122    14.003074004430
         C           -2.256143641111    -0.297444007192    -0.182118755878    12.000000000000
         C           -1.300496641111    -1.481530007192    -0.320888755878    12.000000000000
         C           -1.626388641111     1.077840992808    -0.401203755878    12.000000000000
         C           -0.111594641111    -1.422369007192     0.640039244122    12.000000000000
         C           -0.485941641111     1.413961992808     0.572633244122    12.000000000000
         C            0.668116058889     0.904055792808     0.192551244122    12.000000000000
         C            2.164422358889    -1.165179007192    -0.331571755878    12.000000000000
         H           -2.697376641111    -0.323003007192     0.824153244122     1.007825032230
         H           -3.088323641111    -0.425546007192    -0.885276755878     1.007825032230
         H           -1.859628641111    -2.407064007192    -0.131135755878     1.007825032230
         H           -0.916176641111    -1.546971007192    -1.346576755878     1.007825032230
         H           -2.410931641111     1.836368992808    -0.294951755878     1.007825032230
         H           -1.252069641111     1.162604992808    -1.429440755878     1.007825032230
         H           -0.451899641111    -1.136460007192     1.643628244122     1.007825032230
         H            0.334552358889    -2.416546007192     0.739363244122     1.007825032230
         H           -0.749336641111     1.093636992808     1.588836244122     1.007825032230
         H           -0.318506641111     2.493064992808     0.600891244122     1.007825032230
         H            1.921153358889    -1.804287007192    -1.188151755878     1.007825032230
         H            2.648827358889    -1.775228007192     0.437863244122     1.007825032230
         H            2.839980358889    -0.373350007192    -0.649745755878     1.007825032230

  Basis Set: AUG-CC-PVTZ
    Blend: AUG-CC-PVTZ
  Basis Set: (AUG-CC-PVTZ AUX)
    Blend: AUG-CC-PVTZ-JKFIT
	 Reference Energy          =    -402.0398051271793065 [Eh]
	 Singles Energy            =      -0.0000000000000000 [Eh]
	 Same-Spin Energy          =      -0.4277995516574765 [Eh]
	 Opposite-Spin Energy      =      -1.4159896022329059 [Eh]
	 Correlation Energy        =      -1.8437891538903823 [Eh]
	 Total Energy              =    -403.8835942810696906 [Eh]

	 ================> DF-SCS-MP2 Energies <==================
	-----------------------------------------------------------
	 SCS Same-Spin Scale       =       0.3333333333333333 [-]
	 SCS Opposite-Spin Scale   =       1.2000000000000000 [-]
	 SCS Same-Spin Energy      =      -0.1425998505524922 [Eh]
	 SCS Opposite-Spin Energy  =      -1.6991875226794870 [Eh]
	 SCS Correlation Energy    =      -1.8417873732319792 [Eh]
	 SCS Total Energy          =    -403.8815925004112728 [Eh]
	-----------------------------------------------------------

  Dipole Moment: [D]
     X:    -3.3077      Y:    -2.6699      Z:     0.9370     Total:     4.3528

*** Psi4 exiting successfully. Buy a developer a beer!
