                               Psi4 1.3.2 release

  ==> Input File <==

--------------------------------------------------------------------------
#psi4
#
memory 32 gb

molecule  {
0 1
  O        1.7739800     1.6003060    -0.2911220
  N        0.9906540    -0.4920130     0.2058460
  C       -2.1315532    -0.1969151    -0.0615557
  C       -1.2730330    -1.4351160    -0.3152870
  C       -1.5989250     1.1242550    -0.3956020
  C       -0.0841310    -1.3759550     0.6456410
  C       -0.4584780     1.4603760     0.5782350
  C        0.8707430     0.8730760     0.1404640
  C        2.1918860    -1.1187650    -0.3259700
  H       -2.6699130    -0.2765890     0.8297550
  H       -3.0608600    -0.3791320    -0.8796750
  H       -1.8321650    -2.3606500    -0.1255340
  H       -0.8887130    -1.5005570    -1.3409750
  H       -2.3834680     1.8827830    -0.2893500
  H       -1.2246060     1.2090190    -1.4238390
  H       -0.4244360    -1.0900460     1.6492300
  H        0.3620160    -2.3701320     0.7449650
  H       -0.7218730     1.1400510     1.5944380
  H       -0.2910430     2.5394790     0.6064930
  H        1.9486170    -1.7578730    -1.1825500
  H        2.6762910    -1.7288140     0.4434650
  H        2.8674440    -0.3269360    -0.6441440
units angstrom
no_reorient  #important for SAPT in psi4, default
symmetry c1  #important for SAPT in psi4, default
}

set PROPERTIES_ORIGIN ["COM"]
properties('MP2/aug-cc-pvtz', properties = ['dipole'])
--------------------------------------------------------------------------

    Molecular point group: c1
  Charge       = 0
  Multiplicity = 1
  Basis Set: AUG-CC-PVTZ
    Blend: AUG-CC-PVTZ
  Basis Set: (AUG-CC-PVTZ AUX)
    Blend: AUG-CC-PVTZ-JKFIT

    Orbital Energies [Eh]
    ---------------------

    Doubly Occupied:

       1A    -20.505987     2A    -15.581096     3A    -11.340364
       4A    -11.270153     5A    -11.250897     6A    -11.238194
       7A    -11.236062     8A    -11.234430     9A    -11.231949
      10A     -1.362238    11A     -1.241996    12A     -1.108640
      13A     -1.040320    14A     -0.976325    15A     -0.911419
      16A     -0.881288    17A     -0.796618    18A     -0.724738
      19A     -0.691169    20A     -0.670612    21A     -0.634950
      22A     -0.613717    23A     -0.610007    24A     -0.587168
      25A     -0.584973    26A     -0.559252    27A     -0.541869
      28A     -0.530044    29A     -0.513560    30A     -0.502431
      31A     -0.500143    32A     -0.474596    33A     -0.431412
      34A     -0.405996    35A     -0.363996

  @DF-RHF Final Energy:  -402.08623591924197

   => Energetics <=

    Nuclear Repulsion Energy =            488.1786627671356769
    One-Electron Energy =               -1514.2325794187167958
    Two-Electron Energy =                 623.9676807323392040
    Total Energy =                       -402.0862359192419717
  Basis Set: (AUG-CC-PVTZ AUX)
    Blend: AUG-CC-PVTZ-RI
    Molecular point group: c1

    Geometry (in Angstrom), charge = 0, multiplicity = 1:

       Center              X                  Y                   Z               Mass
    ------------   -----------------  -----------------  -----------------  -----------------
         O            1.720808345109     1.556089848264    -0.302131066234    15.994914619570
         N            0.937482345109    -0.536229151736     0.194836933766    14.003074004430
         C           -2.184724854891    -0.241131251736    -0.072564766234    12.000000000000
         C           -1.326204654891    -1.479332151736    -0.326296066234    12.000000000000
         C           -1.652096654891     1.080038848264    -0.406611066234    12.000000000000
         C           -0.137302654891    -1.420171151736     0.634631933766    12.000000000000
         C           -0.511649654891     1.416159848264     0.567225933766    12.000000000000
         C            0.817571345109     0.828859848264     0.129454933766    12.000000000000
         C            2.138714345109    -1.162981151736    -0.336979066234    12.000000000000
         H           -2.723084654891    -0.320805151736     0.818745933766     1.007825032230
         H           -3.114031654891    -0.423348151736    -0.890684066234     1.007825032230
         H           -1.885336654891    -2.404866151736    -0.136543066234     1.007825032230
         H           -0.941884654891    -1.544773151736    -1.351984066234     1.007825032230
         H           -2.436639654891     1.838566848264    -0.300359066234     1.007825032230
         H           -1.277777654891     1.164802848264    -1.434848066234     1.007825032230
         H           -0.477607654891    -1.134262151736     1.638220933766     1.007825032230
         H            0.308844345109    -2.414348151736     0.733955933766     1.007825032230
         H           -0.775044654891     1.095834848264     1.583428933766     1.007825032230
         H           -0.344214654891     2.495262848264     0.595483933766     1.007825032230
         H            1.895445345109    -1.802089151736    -1.193559066234     1.007825032230
         H            2.623119345109    -1.773030151736     0.432455933766     1.007825032230
         H            2.814272345109    -0.371152151736    -0.655153066234     1.007825032230

  Basis Set: AUG-CC-PVTZ
    Blend: AUG-CC-PVTZ
  Basis Set: (AUG-CC-PVTZ AUX)
    Blend: AUG-CC-PVTZ-JKFIT
	 Reference Energy          =    -402.0862359192419717 [Eh]
	 Singles Energy            =      -0.0000000000000000 [Eh]
	 Same-Spin Energy          =      -0.4230140218937136 [Eh]
	 Opposite-Spin Energy      =      -1.4074967466904516 [Eh]
	 Correlation Energy        =      -1.8305107685841651 [Eh]
	 Total Energy              =    -403.9167466878261621 [Eh]

	 ================> DF-SCS-MP2 Energies <==================
	-----------------------------------------------------------
	 SCS Same-Spin Scale       =       0.3333333333333333 [-]
	 SCS Opposite-Spin Scale   =       1.2000000000000000 [-]
	 SCS Same-Spin Energy      =      -0.1410046739645712 [Eh]
	 SCS Opposite-Spin Energy  =      -1.6889960960285417 [Eh]
	 SCS Correlation Energy    =      -1.8300007699931129 [Eh]
	 SCS Total Energy          =    -403.9162366892350633 [Eh]
	-----------------------------------------------------------

  Dipole Moment: [D]
     X:    -2.4988      Y:    -3.0811      Z:     0.8562     Total:     4.0584

*** Psi4 exiting successfully. Buy a developer a beer!
