                               Psi4 1.3.2 release

  ==> Input File <==

--------------------------------------------------------------------------
#psi4
#
memory 32 gb

molecule  {
0 1
  O        1.7739800     1.6003060    -0.2911220
  N        0.9906540    -0.4920130     0.2058460
  C       -2.2286800    -0.2510300    -0.1765170
  C       -1.2439783    -1.3834572    -0.4638310
  C       -1.5989250     1.1242550    -0.3956020
  C       -0.0841310    -1.3759550     0.6456410
  C       -0.4584780     1.4603760     0.5782350
  C        0.8707430     0.8730760     0.1404640
  C        2.1918860    -1.1187650    -0.3259700
  H       -2.6699130    -0.2765890     0.8297550
  H       -3.0608600    -0.3791320    -0.8796750
  H       -1.8321650    -2.3606500    -0.1255340
  H       -0.8887130    -1.5005570    -1.3409750
  H       -2.3834680     1.8827830    -0.2893500
  H       -1.2246060     1.2090190    -1.4238390
  H       -0.4244360    -1.0900460     1.6492300
  H        0.3620160    -2.3701320     0.7449650
  H       -0.7218730     1.1400510     1.5944380
  H       -0.2910430     2.5394790     0.6064930
  H        1.9486170    -1.7578730    -1.1825500
  H        2.6762910    -1.7288140     0.4434650
  H        2.8674440    -0.3269360    -0.6441440
units angstrom
no_reorient  #important for SAPT in psi4, default
symmetry c1  #important for SAPT in psi4, default
}

set PROPERTIES_ORIGIN ["COM"]
properties('MP2/aug-cc-pvtz', properties = ['dipole'])
--------------------------------------------------------------------------

    Molecular point group: c1
  Charge       = 0
  Multiplicity = 1
  Basis Set: AUG-CC-PVTZ
    Blend: AUG-CC-PVTZ
  Basis Set: (AUG-CC-PVTZ AUX)
    Blend: AUG-CC-PVTZ-JKFIT

    Orbital Energies [Eh]
    ---------------------

    Doubly Occupied:

       1A    -20.504851     2A    -15.578529     3A    -11.339035
       4A    -11.275631     5A    -11.250308     6A    -11.234198
       7A    -11.233682     8A    -11.233387     9A    -11.232854
      10A     -1.361093    11A     -1.239837    12A     -1.097197
      13A     -1.032778    14A     -0.973461    15A     -0.911863
      16A     -0.882434    17A     -0.803998    18A     -0.724590
      19A     -0.688105    20A     -0.664011    21A     -0.636473
      22A     -0.616508    23A     -0.602185    24A     -0.592808
      25A     -0.577941    26A     -0.554497    27A     -0.541528
      28A     -0.537569    29A     -0.515000    30A     -0.505019
      31A     -0.493980    32A     -0.458803    33A     -0.451287
      34A     -0.406645    35A     -0.358748

  @DF-RHF Final Energy:  -402.08029285364603

   => Energetics <=

    Nuclear Repulsion Energy =            486.2171194934675214
    One-Electron Energy =               -1510.3731587433583172
    Two-Electron Energy =                 622.0757463962448810
    Total Energy =                       -402.0802928536460286
  Basis Set: (AUG-CC-PVTZ AUX)
    Blend: AUG-CC-PVTZ-RI
    Molecular point group: c1

    Geometry (in Angstrom), charge = 0, multiplicity = 1:

       Center              X                  Y                   Z               Mass
    ------------   -----------------  -----------------  -----------------  -----------------
         O            1.727235308428     1.556321738636    -0.277252461087    15.994914619570
         N            0.943909308428    -0.535997261364     0.219715538913    14.003074004430
         C           -2.275424691572    -0.295014261364    -0.162647461087    12.000000000000
         C           -1.290722991572    -1.427441461364    -0.449961461087    12.000000000000
         C           -1.645669691572     1.080270738636    -0.381732461087    12.000000000000
         C           -0.130875691572    -1.419939261364     0.659510538913    12.000000000000
         C           -0.505222691572     1.416391738636     0.592104538913    12.000000000000
         C            0.823998308428     0.829091738636     0.154333538913    12.000000000000
         C            2.145141308428    -1.162749261364    -0.312100461087    12.000000000000
         H           -2.716657691572    -0.320573261364     0.843624538913     1.007825032230
         H           -3.107604691572    -0.423116261364    -0.865805461087     1.007825032230
         H           -1.878909691572    -2.404634261364    -0.111664461087     1.007825032230
         H           -0.935457691572    -1.544541261364    -1.327105461087     1.007825032230
         H           -2.430212691572     1.838798738636    -0.275480461087     1.007825032230
         H           -1.271350691572     1.165034738636    -1.409969461087     1.007825032230
         H           -0.471180691572    -1.134030261364     1.663099538913     1.007825032230
         H            0.315271308428    -2.414116261364     0.758834538913     1.007825032230
         H           -0.768617691572     1.096066738636     1.608307538913     1.007825032230
         H           -0.337787691572     2.495494738636     0.620362538913     1.007825032230
         H            1.901872308428    -1.801857261364    -1.168680461087     1.007825032230
         H            2.629546308428    -1.772798261364     0.457334538913     1.007825032230
         H            2.820699308428    -0.370920261364    -0.630274461087     1.007825032230

  Basis Set: AUG-CC-PVTZ
    Blend: AUG-CC-PVTZ
  Basis Set: (AUG-CC-PVTZ AUX)
    Blend: AUG-CC-PVTZ-JKFIT
	 Reference Energy          =    -402.0802928536460286 [Eh]
	 Singles Energy            =      -0.0000000000000000 [Eh]
	 Same-Spin Energy          =      -0.4220200912656127 [Eh]
	 Opposite-Spin Energy      =      -1.4066727225833517 [Eh]
	 Correlation Energy        =      -1.8286928138489644 [Eh]
	 Total Energy              =    -403.9089856674950170 [Eh]

	 ================> DF-SCS-MP2 Energies <==================
	-----------------------------------------------------------
	 SCS Same-Spin Scale       =       0.3333333333333333 [-]
	 SCS Opposite-Spin Scale   =       1.2000000000000000 [-]
	 SCS Same-Spin Energy      =      -0.1406733637552042 [Eh]
	 SCS Opposite-Spin Energy  =      -1.6880072671000221 [Eh]
	 SCS Correlation Energy    =      -1.8286806308552264 [Eh]
	 SCS Total Energy          =    -403.9089734845012458 [Eh]
	-----------------------------------------------------------

  Dipole Moment: [D]
     X:    -2.5467      Y:    -3.0692      Z:     0.8012     Total:     4.0679

*** Psi4 exiting successfully. Buy a developer a beer!
