                               Psi4 1.3.2 release

  ==> Input File <==

--------------------------------------------------------------------------
#psi4
#
memory 32 gb

molecule  {
0 1
  O        1.7739800     1.6003060    -0.2911220
  N        0.9906540    -0.4920130     0.2058460
  C       -2.3220099    -0.2017028    -0.1611187
  C       -1.2730330    -1.4351160    -0.3152870
  C       -1.5989250     1.1242550    -0.3956020
  C       -0.0841310    -1.3759550     0.6456410
  C       -0.4584780     1.4603760     0.5782350
  C        0.8707430     0.8730760     0.1404640
  C        2.1918860    -1.1187650    -0.3259700
  H       -2.6699130    -0.2765890     0.8297550
  H       -3.0608600    -0.3791320    -0.8796750
  H       -1.8321650    -2.3606500    -0.1255340
  H       -0.8887130    -1.5005570    -1.3409750
  H       -2.3834680     1.8827830    -0.2893500
  H       -1.2246060     1.2090190    -1.4238390
  H       -0.4244360    -1.0900460     1.6492300
  H        0.3620160    -2.3701320     0.7449650
  H       -0.7218730     1.1400510     1.5944380
  H       -0.2910430     2.5394790     0.6064930
  H        1.9486170    -1.7578730    -1.1825500
  H        2.6762910    -1.7288140     0.4434650
  H        2.8674440    -0.3269360    -0.6441440
units angstrom
no_reorient  #important for SAPT in psi4, default
symmetry c1  #important for SAPT in psi4, default
}

set PROPERTIES_ORIGIN ["COM"]
properties('MP2/aug-cc-pvtz', properties = ['dipole'])
--------------------------------------------------------------------------

    Molecular point group: c1
  Charge       = 0
  Multiplicity = 1
  Basis Set: AUG-CC-PVTZ
    Blend: AUG-CC-PVTZ
  Basis Set: (AUG-CC-PVTZ AUX)
    Blend: AUG-CC-PVTZ-JKFIT

    Orbital Energies [Eh]
    ---------------------

    Doubly Occupied:

       1A    -20.505677     2A    -15.580016     3A    -11.339817
       4A    -11.272051     5A    -11.250234     6A    -11.235053
       7A    -11.234865     8A    -11.234114     9A    -11.228807
      10A     -1.361732    11A     -1.240346    12A     -1.091455
      13A     -1.032519    14A     -0.977352    15A     -0.914511
      16A     -0.873332    17A     -0.799856    18A     -0.724099
      19A     -0.691207    20A     -0.666157    21A     -0.635017
      22A     -0.609077    23A     -0.602064    24A     -0.592898
      25A     -0.581013    26A     -0.558458    27A     -0.545089
      28A     -0.525466    29A     -0.515275    30A     -0.509413
      31A     -0.488045    32A     -0.475623    33A     -0.439504
      34A     -0.407875    35A     -0.364821

  @DF-RHF Final Energy:  -402.10282459346877

   => Energetics <=

    Nuclear Repulsion Energy =            484.7887354259160588
    One-Electron Energy =               -1507.5774410941792212
    Two-Electron Energy =                 620.6858810747944517
    Total Energy =                       -402.1028245934687675
  Basis Set: (AUG-CC-PVTZ AUX)
    Blend: AUG-CC-PVTZ-RI
    Molecular point group: c1

    Geometry (in Angstrom), charge = 0, multiplicity = 1:

       Center              X                  Y                   Z               Mass
    ------------   -----------------  -----------------  -----------------  -----------------
         O            1.738790135369     1.556541874458    -0.292730919200    15.994914619570
         N            0.955464135369    -0.535777125542     0.204237080800    14.003074004430
         C           -2.357199764631    -0.245466925542    -0.162727619200    12.000000000000
         C           -1.308222864631    -1.478880125542    -0.316895919200    12.000000000000
         C           -1.634114864631     1.080490874458    -0.397210919200    12.000000000000
         C           -0.119320864631    -1.419719125542     0.644032080800    12.000000000000
         C           -0.493667864631     1.416611874458     0.576626080800    12.000000000000
         C            0.835553135369     0.829311874458     0.138855080800    12.000000000000
         C            2.156696135369    -1.162529125542    -0.327578919200    12.000000000000
         H           -2.705102864631    -0.320353125542     0.828146080800     1.007825032230
         H           -3.096049864631    -0.422896125542    -0.881283919200     1.007825032230
         H           -1.867354864631    -2.404414125542    -0.127142919200     1.007825032230
         H           -0.923902864631    -1.544321125542    -1.342583919200     1.007825032230
         H           -2.418657864631     1.839018874458    -0.290958919200     1.007825032230
         H           -1.259795864631     1.165254874458    -1.425447919200     1.007825032230
         H           -0.459625864631    -1.133810125542     1.647621080800     1.007825032230
         H            0.326826135369    -2.413896125542     0.743356080800     1.007825032230
         H           -0.757062864631     1.096286874458     1.592829080800     1.007825032230
         H           -0.326232864631     2.495714874458     0.604884080800     1.007825032230
         H            1.913427135369    -1.801637125542    -1.184158919200     1.007825032230
         H            2.641101135369    -1.772578125542     0.441856080800     1.007825032230
         H            2.832254135369    -0.370700125542    -0.645752919200     1.007825032230

  Basis Set: AUG-CC-PVTZ
    Blend: AUG-CC-PVTZ
  Basis Set: (AUG-CC-PVTZ AUX)
    Blend: AUG-CC-PVTZ-JKFIT
	 Reference Energy          =    -402.1028245934687675 [Eh]
	 Singles Energy            =      -0.0000000000000000 [Eh]
	 Same-Spin Energy          =      -0.4214759274905585 [Eh]
	 Opposite-Spin Energy      =      -1.4052791832955185 [Eh]
	 Correlation Energy        =      -1.8267551107860769 [Eh]
	 Total Energy              =    -403.9295797042548202 [Eh]

	 ================> DF-SCS-MP2 Energies <==================
	-----------------------------------------------------------
	 SCS Same-Spin Scale       =       0.3333333333333333 [-]
	 SCS Opposite-Spin Scale   =       1.2000000000000000 [-]
	 SCS Same-Spin Energy      =      -0.1404919758301861 [Eh]
	 SCS Opposite-Spin Energy  =      -1.6863350199546221 [Eh]
	 SCS Correlation Energy    =      -1.8268269957848082 [Eh]
	 SCS Total Energy          =    -403.9296515892535808 [Eh]
	-----------------------------------------------------------

  Dipole Moment: [D]
     X:    -2.6110      Y:    -3.0821      Z:     0.8136     Total:     4.1205

*** Psi4 exiting successfully. Buy a developer a beer!
