                               Psi4 1.3.2 release

  ==> Input File <==

--------------------------------------------------------------------------
#psi4
#
memory 32 gb

molecule  {
0 1
  O        1.7739800     1.6003060    -0.2911220
  N        1.0645449    -0.5315030     0.3335828
  C       -2.2286800    -0.2510300    -0.1765170
  C       -1.2730330    -1.4351160    -0.3152870
  C       -1.5989250     1.1242550    -0.3956020
  C       -0.0841310    -1.3759550     0.6456410
  C       -0.4584780     1.4603760     0.5782350
  C        0.8707430     0.8730760     0.1404640
  C        2.1918860    -1.1187650    -0.3259700
  H       -2.6699130    -0.2765890     0.8297550
  H       -3.0608600    -0.3791320    -0.8796750
  H       -1.8321650    -2.3606500    -0.1255340
  H       -0.8887130    -1.5005570    -1.3409750
  H       -2.3834680     1.8827830    -0.2893500
  H       -1.2246060     1.2090190    -1.4238390
  H       -0.4244360    -1.0900460     1.6492300
  H        0.3620160    -2.3701320     0.7449650
  H       -0.7218730     1.1400510     1.5944380
  H       -0.2910430     2.5394790     0.6064930
  H        1.9486170    -1.7578730    -1.1825500
  H        2.6762910    -1.7288140     0.4434650
  H        2.8674440    -0.3269360    -0.6441440
units angstrom
no_reorient  #important for SAPT in psi4, default
symmetry c1  #important for SAPT in psi4, default
}

set PROPERTIES_ORIGIN ["COM"]
properties('MP2/aug-cc-pvtz', properties = ['dipole'])
--------------------------------------------------------------------------

    Molecular point group: c1
  Charge       = 0
  Multiplicity = 1
  Basis Set: AUG-CC-PVTZ
    Blend: AUG-CC-PVTZ
  Basis Set: (AUG-CC-PVTZ AUX)
    Blend: AUG-CC-PVTZ-JKFIT

    Orbital Energies [Eh]
    ---------------------

    Doubly Occupied:

       1A    -20.517991     2A    -15.578106     3A    -11.348096
       4A    -11.268086     5A    -11.244923     6A    -11.237807
       7A    -11.236785     8A    -11.235027     9A    -11.232567
      10A     -1.365108    11A     -1.236690    12A     -1.099872
      13A     -1.036840    14A     -0.975904    15A     -0.901156
      16A     -0.880983    17A     -0.792264    18A     -0.721724
      19A     -0.691948    20A     -0.667231    21A     -0.631414
      22A     -0.614690    23A     -0.603608    24A     -0.591378
      25A     -0.584008    26A     -0.558508    27A     -0.544855
      28A     -0.524749    29A     -0.511749    30A     -0.504719
      31A     -0.480531    32A     -0.469742    33A     -0.466035
      34A     -0.412953    35A     -0.364816

  @DF-RHF Final Energy:  -402.10295005982982

   => Energetics <=

    Nuclear Repulsion Energy =            484.6513547858370430
    One-Electron Energy =               -1507.2428839326069010
    Two-Electron Energy =                 620.4885790869400353
    Total Energy =                       -402.1029500598298227
  Basis Set: (AUG-CC-PVTZ AUX)
    Blend: AUG-CC-PVTZ-RI
    Molecular point group: c1

    Geometry (in Angstrom), charge = 0, multiplicity = 1:

       Center              X                  Y                   Z               Mass
    ------------   -----------------  -----------------  -----------------  -----------------
         O            1.721837630344     1.565549823855    -0.305350367446    15.994914619570
         N            1.012402530344    -0.566259176145     0.319354432554    14.003074004430
         C           -2.280822369656    -0.285786176145    -0.190745367446    12.000000000000
         C           -1.325175369656    -1.469872176145    -0.329515367446    12.000000000000
         C           -1.651067369656     1.089498823855    -0.409830367446    12.000000000000
         C           -0.136273369656    -1.410711176145     0.631412632554    12.000000000000
         C           -0.510620369656     1.425619823855     0.564006632554    12.000000000000
         C            0.818600630344     0.838319823855     0.126235632554    12.000000000000
         C            2.139743630344    -1.153521176145    -0.340198367446    12.000000000000
         H           -2.722055369656    -0.311345176145     0.815526632554     1.007825032230
         H           -3.113002369656    -0.413888176145    -0.893903367446     1.007825032230
         H           -1.884307369656    -2.395406176145    -0.139762367446     1.007825032230
         H           -0.940855369656    -1.535313176145    -1.355203367446     1.007825032230
         H           -2.435610369656     1.848026823855    -0.303578367446     1.007825032230
         H           -1.276748369656     1.174262823855    -1.438067367446     1.007825032230
         H           -0.476578369656    -1.124802176145     1.635001632554     1.007825032230
         H            0.309873630344    -2.404888176145     0.730736632554     1.007825032230
         H           -0.774015369656     1.105294823855     1.580209632554     1.007825032230
         H           -0.343185369656     2.504722823855     0.592264632554     1.007825032230
         H            1.896474630344    -1.792629176145    -1.196778367446     1.007825032230
         H            2.624148630344    -1.763570176145     0.429236632554     1.007825032230
         H            2.815301630344    -0.361692176145    -0.658372367446     1.007825032230

  Basis Set: AUG-CC-PVTZ
    Blend: AUG-CC-PVTZ
  Basis Set: (AUG-CC-PVTZ AUX)
    Blend: AUG-CC-PVTZ-JKFIT
	 Reference Energy          =    -402.1029500598298227 [Eh]
	 Singles Energy            =      -0.0000000000000000 [Eh]
	 Same-Spin Energy          =      -0.4221159160055083 [Eh]
	 Opposite-Spin Energy      =      -1.4062693315878443 [Eh]
	 Correlation Energy        =      -1.8283852475933526 [Eh]
	 Total Energy              =    -403.9313353074231827 [Eh]

	 ================> DF-SCS-MP2 Energies <==================
	-----------------------------------------------------------
	 SCS Same-Spin Scale       =       0.3333333333333333 [-]
	 SCS Opposite-Spin Scale   =       1.2000000000000000 [-]
	 SCS Same-Spin Energy      =      -0.1407053053351694 [Eh]
	 SCS Opposite-Spin Energy  =      -1.6875231979054131 [Eh]
	 SCS Correlation Energy    =      -1.8282285032405825 [Eh]
	 SCS Total Energy          =    -403.9311785630704321 [Eh]
	-----------------------------------------------------------

  Dipole Moment: [D]
     X:    -2.7061      Y:    -2.6784      Z:     0.5614     Total:     3.8486

*** Psi4 exiting successfully. Buy a developer a beer!
