                               Psi4 1.3.2 release

  ==> Input File <==

--------------------------------------------------------------------------
#psi4
#
memory 32 gb

molecule  {
0 1
  O        1.7739800     1.6003060    -0.2911220
  N        0.9906540    -0.4920130     0.2058460
  C       -2.2286800    -0.2510300    -0.1765170
  C       -1.2730330    -1.4351160    -0.3152870
  C       -1.5989250     1.1242550    -0.3956020
  C       -0.0841310    -1.3759550     0.6456410
  C       -0.4584780     1.4603760     0.5782350
  C        0.8882240     0.6740696     0.1499956
  C        2.1918860    -1.1187650    -0.3259700
  H       -2.6699130    -0.2765890     0.8297550
  H       -3.0608600    -0.3791320    -0.8796750
  H       -1.8321650    -2.3606500    -0.1255340
  H       -0.8887130    -1.5005570    -1.3409750
  H       -2.3834680     1.8827830    -0.2893500
  H       -1.2246060     1.2090190    -1.4238390
  H       -0.4244360    -1.0900460     1.6492300
  H        0.3620160    -2.3701320     0.7449650
  H       -0.7218730     1.1400510     1.5944380
  H       -0.2910430     2.5394790     0.6064930
  H        1.9486170    -1.7578730    -1.1825500
  H        2.6762910    -1.7288140     0.4434650
  H        2.8674440    -0.3269360    -0.6441440
units angstrom
no_reorient  #important for SAPT in psi4, default
symmetry c1  #important for SAPT in psi4, default
}

set PROPERTIES_ORIGIN ["COM"]
properties('MP2/aug-cc-pvtz', properties = ['dipole'])
--------------------------------------------------------------------------

    Molecular point group: c1
  Charge       = 0
  Multiplicity = 1
  Basis Set: AUG-CC-PVTZ
    Blend: AUG-CC-PVTZ
  Basis Set: (AUG-CC-PVTZ AUX)
    Blend: AUG-CC-PVTZ-JKFIT

    Orbital Energies [Eh]
    ---------------------

    Doubly Occupied:

       1A    -20.464606     2A    -15.611713     3A    -11.320600
       4A    -11.291447     5A    -11.268060     6A    -11.245854
       7A    -11.234261     8A    -11.232182     9A    -11.228619
      10A     -1.372499    11A     -1.224634    12A     -1.104552
      13A     -1.041386    14A     -0.996971    15A     -0.954515
      16A     -0.874421    17A     -0.796666    18A     -0.747376
      19A     -0.704203    20A     -0.665268    21A     -0.652559
      22A     -0.621416    23A     -0.603038    24A     -0.599277
      25A     -0.570309    26A     -0.562277    27A     -0.550082
      28A     -0.524647    29A     -0.515441    30A     -0.489174
      31A     -0.477845    32A     -0.464615    33A     -0.460094
      34A     -0.366605    35A     -0.365018

  @DF-RHF Final Energy:  -402.04812718165482

   => Energetics <=

    Nuclear Repulsion Energy =            488.0253819208390382
    One-Electron Energy =               -1513.7425658049407957
    Two-Electron Energy =                 623.6690567024469374
    Total Energy =                       -402.0481271816548769
  Basis Set: (AUG-CC-PVTZ AUX)
    Blend: AUG-CC-PVTZ-RI
    Molecular point group: c1

    Geometry (in Angstrom), charge = 0, multiplicity = 1:

       Center              X                  Y                   Z               Mass
    ------------   -----------------  -----------------  -----------------  -----------------
         O            1.728328028432     1.579988057814    -0.292177020235    15.994914619570
         N            0.945002028432    -0.512330942186     0.204790979765    14.003074004430
         C           -2.274331971568    -0.271347942186    -0.177572020235    12.000000000000
         C           -1.318684971568    -1.455433942186    -0.316342020235    12.000000000000
         C           -1.644576971568     1.103937057814    -0.396657020235    12.000000000000
         C           -0.129782971568    -1.396272942186     0.644585979765    12.000000000000
         C           -0.504129971568     1.440058057814     0.577179979765    12.000000000000
         C            0.842572028432     0.653751657814     0.148940579765    12.000000000000
         C            2.146234028432    -1.139082942186    -0.327025020235    12.000000000000
         H           -2.715564971568    -0.296906942186     0.828699979765     1.007825032230
         H           -3.106511971568    -0.399449942186    -0.880730020235     1.007825032230
         H           -1.877816971568    -2.380967942186    -0.126589020235     1.007825032230
         H           -0.934364971568    -1.520874942186    -1.342030020235     1.007825032230
         H           -2.429119971568     1.862465057814    -0.290405020235     1.007825032230
         H           -1.270257971568     1.188701057814    -1.424894020235     1.007825032230
         H           -0.470087971568    -1.110363942186     1.648174979765     1.007825032230
         H            0.316364028432    -2.390449942186     0.743909979765     1.007825032230
         H           -0.767524971568     1.119733057814     1.593382979765     1.007825032230
         H           -0.336694971568     2.519161057814     0.605437979765     1.007825032230
         H            1.902965028432    -1.778190942186    -1.183605020235     1.007825032230
         H            2.630639028432    -1.749131942186     0.442409979765     1.007825032230
         H            2.821792028432    -0.347253942186    -0.645199020235     1.007825032230

  Basis Set: AUG-CC-PVTZ
    Blend: AUG-CC-PVTZ
  Basis Set: (AUG-CC-PVTZ AUX)
    Blend: AUG-CC-PVTZ-JKFIT
	 Reference Energy          =    -402.0481271816548201 [Eh]
	 Singles Energy            =      -0.0000000000000000 [Eh]
	 Same-Spin Energy          =      -0.4227738399704496 [Eh]
	 Opposite-Spin Energy      =      -1.4077001890979752 [Eh]
	 Correlation Energy        =      -1.8304740290684249 [Eh]
	 Total Energy              =    -403.8786012107232182 [Eh]

	 ================> DF-SCS-MP2 Energies <==================
	-----------------------------------------------------------
	 SCS Same-Spin Scale       =       0.3333333333333333 [-]
	 SCS Opposite-Spin Scale   =       1.2000000000000000 [-]
	 SCS Same-Spin Energy      =      -0.1409246133234832 [Eh]
	 SCS Opposite-Spin Energy  =      -1.6892402269175701 [Eh]
	 SCS Correlation Energy    =      -1.8301648402410533 [Eh]
	 SCS Total Energy          =    -403.8782920218958452 [Eh]
	-----------------------------------------------------------

  Dipole Moment: [D]
     X:    -2.8367      Y:    -4.7986      Z:     0.9827     Total:     5.6603

*** Psi4 exiting successfully. Buy a developer a beer!
