                               Psi4 1.3.2 release

  ==> Input File <==

--------------------------------------------------------------------------
#psi4
#
memory 32 gb

molecule  {
0 1
  O        1.7739800     1.6003060    -0.2911220
  N        0.9906540    -0.4920130     0.2058460
  C       -2.2286800    -0.2510300    -0.1765170
  C       -1.2730330    -1.4351160    -0.3152870
  C       -1.5989250     1.1242550    -0.3956020
  C       -0.0841310    -1.3759550     0.6456410
  C       -0.4584780     1.4603760     0.5782350
  C        0.8794835     0.7735728     0.1452298
  C        2.1918860    -1.1187650    -0.3259700
  H       -2.6699130    -0.2765890     0.8297550
  H       -3.0608600    -0.3791320    -0.8796750
  H       -1.8321650    -2.3606500    -0.1255340
  H       -0.8887130    -1.5005570    -1.3409750
  H       -2.3834680     1.8827830    -0.2893500
  H       -1.2246060     1.2090190    -1.4238390
  H       -0.4244360    -1.0900460     1.6492300
  H        0.3620160    -2.3701320     0.7449650
  H       -0.7218730     1.1400510     1.5944380
  H       -0.2910430     2.5394790     0.6064930
  H        1.9486170    -1.7578730    -1.1825500
  H        2.6762910    -1.7288140     0.4434650
  H        2.8674440    -0.3269360    -0.6441440
units angstrom
no_reorient  #important for SAPT in psi4, default
symmetry c1  #important for SAPT in psi4, default
}

set PROPERTIES_ORIGIN ["COM"]
properties('MP2/aug-cc-pvtz', properties = ['dipole'])
--------------------------------------------------------------------------

    Molecular point group: c1
  Charge       = 0
  Multiplicity = 1
  Basis Set: AUG-CC-PVTZ
    Blend: AUG-CC-PVTZ
  Basis Set: (AUG-CC-PVTZ AUX)
    Blend: AUG-CC-PVTZ-JKFIT

    Orbital Energies [Eh]
    ---------------------

    Doubly Occupied:

       1A    -20.485042     2A    -15.597574     3A    -11.332088
       4A    -11.282000     5A    -11.259380     6A    -11.239555
       7A    -11.232898     8A    -11.232383     9A    -11.231249
      10A     -1.345832    11A     -1.249613    12A     -1.100042
      13A     -1.038444    14A     -0.984025    15A     -0.937012
      16A     -0.876379    17A     -0.794945    18A     -0.735849
      19A     -0.692268    20A     -0.666132    21A     -0.644012
      22A     -0.614532    23A     -0.600912    24A     -0.596975
      25A     -0.574782    26A     -0.561593    27A     -0.540067
      28A     -0.528477    29A     -0.510514    30A     -0.503640
      31A     -0.480341    32A     -0.465939    33A     -0.462994
      34A     -0.388029    35A     -0.370806

  @DF-RHF Final Energy:  -402.09730400244615

   => Energetics <=

    Nuclear Repulsion Energy =            487.0468141830266973
    One-Electron Energy =               -1511.9755869220009572
    Two-Electron Energy =                 622.8314687365279951
    Total Energy =                       -402.0973040024462080
  Basis Set: (AUG-CC-PVTZ AUX)
    Blend: AUG-CC-PVTZ-RI
    Molecular point group: c1

    Geometry (in Angstrom), charge = 0, multiplicity = 1:

       Center              X                  Y                   Z               Mass
    ------------   -----------------  -----------------  -----------------  -----------------
         O            1.729153254521     1.570593556741    -0.291727061709    15.994914619570
         N            0.945827254521    -0.521725443259     0.205240938291    14.003074004430
         C           -2.273506745479    -0.280742443259    -0.177122061709    12.000000000000
         C           -1.317859745479    -1.464828443259    -0.315892061709    12.000000000000
         C           -1.643751745479     1.094542556741    -0.396207061709    12.000000000000
         C           -0.128957745479    -1.405667443259     0.645035938291    12.000000000000
         C           -0.503304745479     1.430663556741     0.577629938291    12.000000000000
         C            0.834656754521     0.743860356741     0.144624738291    12.000000000000
         C            2.147059254521    -1.148477443259    -0.326575061709    12.000000000000
         H           -2.714739745479    -0.306301443259     0.829149938291     1.007825032230
         H           -3.105686745479    -0.408844443259    -0.880280061709     1.007825032230
         H           -1.876991745479    -2.390362443259    -0.126139061709     1.007825032230
         H           -0.933539745479    -1.530269443259    -1.341580061709     1.007825032230
         H           -2.428294745479     1.853070556741    -0.289955061709     1.007825032230
         H           -1.269432745479     1.179306556741    -1.424444061709     1.007825032230
         H           -0.469262745479    -1.119758443259     1.648624938291     1.007825032230
         H            0.317189254521    -2.399844443259     0.744359938291     1.007825032230
         H           -0.766699745479     1.110338556741     1.593832938291     1.007825032230
         H           -0.335869745479     2.509766556741     0.605887938291     1.007825032230
         H            1.903790254521    -1.787585443259    -1.183155061709     1.007825032230
         H            2.631464254521    -1.758526443259     0.442859938291     1.007825032230
         H            2.822617254521    -0.356648443259    -0.644749061709     1.007825032230

  Basis Set: AUG-CC-PVTZ
    Blend: AUG-CC-PVTZ
  Basis Set: (AUG-CC-PVTZ AUX)
    Blend: AUG-CC-PVTZ-JKFIT
	 Reference Energy          =    -402.0973040024461511 [Eh]
	 Singles Energy            =      -0.0000000000000000 [Eh]
	 Same-Spin Energy          =      -0.4222715222265271 [Eh]
	 Opposite-Spin Energy      =      -1.4064237968563056 [Eh]
	 Correlation Energy        =      -1.8286953190828328 [Eh]
	 Total Energy              =    -403.9259993215289910 [Eh]

	 ================> DF-SCS-MP2 Energies <==================
	-----------------------------------------------------------
	 SCS Same-Spin Scale       =       0.3333333333333333 [-]
	 SCS Opposite-Spin Scale   =       1.2000000000000000 [-]
	 SCS Same-Spin Energy      =      -0.1407571740755090 [Eh]
	 SCS Opposite-Spin Energy  =      -1.6877085562275667 [Eh]
	 SCS Correlation Energy    =      -1.8284657303030758 [Eh]
	 SCS Total Energy          =    -403.9257697327492451 [Eh]
	-----------------------------------------------------------

  Dipole Moment: [D]
     X:    -2.6730      Y:    -3.9674      Z:     0.8818     Total:     4.8644

*** Psi4 exiting successfully. Buy a developer a beer!
