                               Psi4 1.3.2 release

  ==> Input File <==

--------------------------------------------------------------------------
#psi4
#
memory 32 gb

molecule  {
0 1
  O        1.7739800     1.6003060    -0.2911220
  N        0.9906540    -0.4920130     0.2058460
  C       -2.2286800    -0.2510300    -0.1765170
  C       -1.2730330    -1.4351160    -0.3152870
  C       -1.5989250     1.1242550    -0.3956020
  C       -0.0841310    -1.3759550     0.6456410
  C       -0.4584780     1.4603760     0.5782350
  C        0.8707430     0.8730760     0.1404640
  C        2.1918860    -1.1187650    -0.3259700
  H       -2.7100596    -0.2789145     0.9213129
  H       -3.0608600    -0.3791320    -0.8796750
  H       -1.8321650    -2.3606500    -0.1255340
  H       -0.8887130    -1.5005570    -1.3409750
  H       -2.3834680     1.8827830    -0.2893500
  H       -1.2246060     1.2090190    -1.4238390
  H       -0.4244360    -1.0900460     1.6492300
  H        0.3620160    -2.3701320     0.7449650
  H       -0.7218730     1.1400510     1.5944380
  H       -0.2910430     2.5394790     0.6064930
  H        1.9486170    -1.7578730    -1.1825500
  H        2.6762910    -1.7288140     0.4434650
  H        2.8674440    -0.3269360    -0.6441440
units angstrom
no_reorient  #important for SAPT in psi4, default
symmetry c1  #important for SAPT in psi4, default
}

set PROPERTIES_ORIGIN ["COM"]
properties('MP2/aug-cc-pvtz', properties = ['dipole'])
--------------------------------------------------------------------------

    Molecular point group: c1
  Charge       = 0
  Multiplicity = 1
  Basis Set: AUG-CC-PVTZ
    Blend: AUG-CC-PVTZ
  Basis Set: (AUG-CC-PVTZ AUX)
    Blend: AUG-CC-PVTZ-JKFIT

    Orbital Energies [Eh]
    ---------------------

    Doubly Occupied:

       1A    -20.505946     2A    -15.580813     3A    -11.340148
       4A    -11.272364     5A    -11.250816     6A    -11.244010
       7A    -11.235926     8A    -11.234655     9A    -11.233698
      10A     -1.362090    11A     -1.241439    12A     -1.096177
      13A     -1.038457    14A     -0.974528    15A     -0.912858
      16A     -0.878909    17A     -0.785889    18A     -0.725569
      19A     -0.690492    20A     -0.669289    21A     -0.631071
      22A     -0.608979    23A     -0.602087    24A     -0.591627
      25A     -0.582874    26A     -0.557004    27A     -0.544975
      28A     -0.527453    29A     -0.510199    30A     -0.508430
      31A     -0.471373    32A     -0.467481    33A     -0.466122
      34A     -0.407713    35A     -0.365396

  @DF-RHF Final Energy:  -402.10577773341112

   => Energetics <=

    Nuclear Repulsion Energy =            485.8445897122114161
    One-Electron Energy =               -1509.6670194459711638
    Two-Electron Energy =                 621.7166520003486312
    Total Energy =                       -402.1057777334110597
  Basis Set: (AUG-CC-PVTZ AUX)
    Blend: AUG-CC-PVTZ-RI
    Molecular point group: c1

    Geometry (in Angstrom), charge = 0, multiplicity = 1:

       Center              X                  Y                   Z               Mass
    ------------   -----------------  -----------------  -----------------  -----------------
         O            1.730296819238     1.561217495498    -0.292003102799    15.994914619570
         N            0.946970819238    -0.531101504502     0.204964897201    14.003074004430
         C           -2.272363180762    -0.290118504502    -0.177398102799    12.000000000000
         C           -1.316716180762    -1.474204504502    -0.316168102799    12.000000000000
         C           -1.642608180762     1.085166495498    -0.396483102799    12.000000000000
         C           -0.127814180762    -1.415043504502     0.644759897201    12.000000000000
         C           -0.502161180762     1.421287495498     0.577353897201    12.000000000000
         C            0.827059819238     0.833987495498     0.139582897201    12.000000000000
         C            2.148202819238    -1.157853504502    -0.326851102799    12.000000000000
         H           -2.753742780762    -0.318003004502     0.920431797201     1.007825032230
         H           -3.104543180762    -0.418220504502    -0.880556102799     1.007825032230
         H           -1.875848180762    -2.399738504502    -0.126415102799     1.007825032230
         H           -0.932396180762    -1.539645504502    -1.341856102799     1.007825032230
         H           -2.427151180762     1.843694495498    -0.290231102799     1.007825032230
         H           -1.268289180762     1.169930495498    -1.424720102799     1.007825032230
         H           -0.468119180762    -1.129134504502     1.648348897201     1.007825032230
         H            0.318332819238    -2.409220504502     0.744083897201     1.007825032230
         H           -0.765556180762     1.100962495498     1.593556897201     1.007825032230
         H           -0.334726180762     2.500390495498     0.605611897201     1.007825032230
         H            1.904933819238    -1.796961504502    -1.183431102799     1.007825032230
         H            2.632607819238    -1.767902504502     0.442583897201     1.007825032230
         H            2.823760819238    -0.366024504502    -0.645025102799     1.007825032230

  Basis Set: AUG-CC-PVTZ
    Blend: AUG-CC-PVTZ
  Basis Set: (AUG-CC-PVTZ AUX)
    Blend: AUG-CC-PVTZ-JKFIT
	 Reference Energy          =    -402.1057777334111165 [Eh]
	 Singles Energy            =      -0.0000000000000000 [Eh]
	 Same-Spin Energy          =      -0.4218102692376200 [Eh]
	 Opposite-Spin Energy      =      -1.4059232660072158 [Eh]
	 Correlation Energy        =      -1.8277335352448358 [Eh]
	 Total Energy              =    -403.9335112686559341 [Eh]

	 ================> DF-SCS-MP2 Energies <==================
	-----------------------------------------------------------
	 SCS Same-Spin Scale       =       0.3333333333333333 [-]
	 SCS Opposite-Spin Scale   =       1.2000000000000000 [-]
	 SCS Same-Spin Energy      =      -0.1406034230792066 [Eh]
	 SCS Opposite-Spin Energy  =      -1.6871079192086589 [Eh]
	 SCS Correlation Energy    =      -1.8277113422878655 [Eh]
	 SCS Total Energy          =    -403.9334890756989580 [Eh]
	-----------------------------------------------------------

  Dipole Moment: [D]
     X:    -2.5316      Y:    -3.0989      Z:     0.7235     Total:     4.0664

*** Psi4 exiting successfully. Buy a developer a beer!
