                               Psi4 1.3.2 release

  ==> Input File <==

--------------------------------------------------------------------------
#psi4
#
memory 32 gb

molecule  {
0 1
  O        1.7739800     1.6003060    -0.2911220
  N        1.0799135    -0.4824095     0.1725291
  C       -2.2286800    -0.2510300    -0.1765170
  C       -1.2730330    -1.4351160    -0.3152870
  C       -1.5989250     1.1242550    -0.3956020
  C       -0.0841310    -1.3759550     0.6456410
  C       -0.4584780     1.4603760     0.5782350
  C        0.8707430     0.8730760     0.1404640
  C        2.1918860    -1.1187650    -0.3259700
  H       -2.6699130    -0.2765890     0.8297550
  H       -3.0608600    -0.3791320    -0.8796750
  H       -1.8321650    -2.3606500    -0.1255340
  H       -0.8887130    -1.5005570    -1.3409750
  H       -2.3834680     1.8827830    -0.2893500
  H       -1.2246060     1.2090190    -1.4238390
  H       -0.4244360    -1.0900460     1.6492300
  H        0.3620160    -2.3701320     0.7449650
  H       -0.7218730     1.1400510     1.5944380
  H       -0.2910430     2.5394790     0.6064930
  H        1.9486170    -1.7578730    -1.1825500
  H        2.6762910    -1.7288140     0.4434650
  H        2.8674440    -0.3269360    -0.6441440
units angstrom
no_reorient  #important for SAPT in psi4, default
symmetry c1  #important for SAPT in psi4, default
}

set PROPERTIES_ORIGIN ["COM"]
properties('MP2/aug-cc-pvtz', properties = ['dipole'])
--------------------------------------------------------------------------

    Molecular point group: c1
  Charge       = 0
  Multiplicity = 1
  Basis Set: AUG-CC-PVTZ
    Blend: AUG-CC-PVTZ
  Basis Set: (AUG-CC-PVTZ AUX)
    Blend: AUG-CC-PVTZ-JKFIT

    Orbital Energies [Eh]
    ---------------------

    Doubly Occupied:

       1A    -20.501715     2A    -15.578596     3A    -11.339116
       4A    -11.276951     5A    -11.242707     6A    -11.238326
       7A    -11.236706     8A    -11.236565     9A    -11.233347
      10A     -1.362712    11A     -1.238090    12A     -1.103012
      13A     -1.037655    14A     -0.980847    15A     -0.915164
      16A     -0.872009    17A     -0.793213    18A     -0.725345
      19A     -0.693189    20A     -0.665813    21A     -0.634810
      22A     -0.618807    23A     -0.602991    24A     -0.597688
      25A     -0.580057    26A     -0.559422    27A     -0.552655
      28A     -0.523430    29A     -0.507405    30A     -0.497196
      31A     -0.480892    32A     -0.469587    33A     -0.466471
      34A     -0.407542    35A     -0.361367

  @DF-RHF Final Energy:  -402.10157901431967

   => Energetics <=

    Nuclear Repulsion Energy =            485.7941873066093308
    One-Electron Energy =               -1509.5287412413722450
    Two-Electron Energy =                 621.6329749204433028
    Total Energy =                       -402.1015790143196682
  Basis Set: (AUG-CC-PVTZ AUX)
    Blend: AUG-CC-PVTZ-RI
    Molecular point group: c1

    Geometry (in Angstrom), charge = 0, multiplicity = 1:

       Center              X                  Y                   Z               Mass
    ------------   -----------------  -----------------  -----------------  -----------------
         O            1.720144411404     1.560141000406    -0.287606449635    15.994914619570
         N            1.026077911404    -0.522574499594     0.176044650365    14.003074004430
         C           -2.282515588596    -0.291194999594    -0.173001449635    12.000000000000
         C           -1.326868588596    -1.475280999594    -0.311771449635    12.000000000000
         C           -1.652760588596     1.084090000406    -0.392086449635    12.000000000000
         C           -0.137966588596    -1.416119999594     0.649156550365    12.000000000000
         C           -0.512313588596     1.420211000406     0.581750550365    12.000000000000
         C            0.816907411404     0.832911000406     0.143979550365    12.000000000000
         C            2.138050411404    -1.158929999594    -0.322454449635    12.000000000000
         H           -2.723748588596    -0.316753999594     0.833270550365     1.007825032230
         H           -3.114695588596    -0.419296999594    -0.876159449635     1.007825032230
         H           -1.886000588596    -2.400814999594    -0.122018449635     1.007825032230
         H           -0.942548588596    -1.540721999594    -1.337459449635     1.007825032230
         H           -2.437303588596     1.842618000406    -0.285834449635     1.007825032230
         H           -1.278441588596     1.168854000406    -1.420323449635     1.007825032230
         H           -0.478271588596    -1.130210999594     1.652745550365     1.007825032230
         H            0.308180411404    -2.410296999594     0.748480550365     1.007825032230
         H           -0.775708588596     1.099886000406     1.597953550365     1.007825032230
         H           -0.344878588596     2.499314000406     0.610008550365     1.007825032230
         H            1.894781411404    -1.798037999594    -1.179034449635     1.007825032230
         H            2.622455411404    -1.768978999594     0.446980550365     1.007825032230
         H            2.813608411404    -0.367100999594    -0.640628449635     1.007825032230

  Basis Set: AUG-CC-PVTZ
    Blend: AUG-CC-PVTZ
  Basis Set: (AUG-CC-PVTZ AUX)
    Blend: AUG-CC-PVTZ-JKFIT
	 Reference Energy          =    -402.1015790143196682 [Eh]
	 Singles Energy            =      -0.0000000000000000 [Eh]
	 Same-Spin Energy          =      -0.4219624705965079 [Eh]
	 Opposite-Spin Energy      =      -1.4055566690533676 [Eh]
	 Correlation Energy        =      -1.8275191396498756 [Eh]
	 Total Energy              =    -403.9290981539695622 [Eh]

	 ================> DF-SCS-MP2 Energies <==================
	-----------------------------------------------------------
	 SCS Same-Spin Scale       =       0.3333333333333333 [-]
	 SCS Opposite-Spin Scale   =       1.2000000000000000 [-]
	 SCS Same-Spin Energy      =      -0.1406541568655026 [Eh]
	 SCS Opposite-Spin Energy  =      -1.6866680028640411 [Eh]
	 SCS Correlation Energy    =      -1.8273221597295437 [Eh]
	 SCS Total Energy          =    -403.9289011740492015 [Eh]
	-----------------------------------------------------------

  Dipole Moment: [D]
     X:    -2.8657      Y:    -3.0532      Z:     0.8650     Total:     4.2758

*** Psi4 exiting successfully. Buy a developer a beer!
