                               Psi4 1.3.2 release

  ==> Input File <==

--------------------------------------------------------------------------
#psi4
#
memory 32 gb

molecule  {
0 1
  O        1.7739800     1.6003060    -0.2911220
  N        0.9906540    -0.4920130     0.2058460
  C       -2.2286800    -0.2510300    -0.1765170
  C       -1.2730330    -1.4351160    -0.3152870
  C       -1.6775317     1.0632450    -0.2692025
  C       -0.0841310    -1.3759550     0.6456410
  C       -0.4584780     1.4603760     0.5782350
  C        0.8707430     0.8730760     0.1404640
  C        2.1918860    -1.1187650    -0.3259700
  H       -2.6699130    -0.2765890     0.8297550
  H       -3.0608600    -0.3791320    -0.8796750
  H       -1.8321650    -2.3606500    -0.1255340
  H       -0.8887130    -1.5005570    -1.3409750
  H       -2.3834680     1.8827830    -0.2893500
  H       -1.2246060     1.2090190    -1.4238390
  H       -0.4244360    -1.0900460     1.6492300
  H        0.3620160    -2.3701320     0.7449650
  H       -0.7218730     1.1400510     1.5944380
  H       -0.2910430     2.5394790     0.6064930
  H        1.9486170    -1.7578730    -1.1825500
  H        2.6762910    -1.7288140     0.4434650
  H        2.8674440    -0.3269360    -0.6441440
units angstrom
no_reorient  #important for SAPT in psi4, default
symmetry c1  #important for SAPT in psi4, default
}

set PROPERTIES_ORIGIN ["COM"]
properties('MP2/aug-cc-pvtz', properties = ['dipole'])
--------------------------------------------------------------------------

    Molecular point group: c1
  Charge       = 0
  Multiplicity = 1
  Basis Set: AUG-CC-PVTZ
    Blend: AUG-CC-PVTZ
  Basis Set: (AUG-CC-PVTZ AUX)
    Blend: AUG-CC-PVTZ-JKFIT

    Orbital Energies [Eh]
    ---------------------

    Doubly Occupied:

       1A    -20.507116     2A    -15.581160     3A    -11.341764
       4A    -11.273520     5A    -11.250958     6A    -11.243263
       7A    -11.236483     8A    -11.235851     9A    -11.229330
      10A     -1.362812    11A     -1.242106    12A     -1.111121
      13A     -1.038449    14A     -0.983198    15A     -0.916673
      16A     -0.882038    17A     -0.785482    18A     -0.726138
      19A     -0.692254    20A     -0.674749    21A     -0.634271
      22A     -0.614035    23A     -0.605209    24A     -0.597357
      25A     -0.585218    26A     -0.561630    27A     -0.548321
      28A     -0.528041    29A     -0.511558    30A     -0.503751
      31A     -0.491301    32A     -0.465296    33A     -0.437160
      34A     -0.407615    35A     -0.365780

  @DF-RHF Final Energy:  -402.08604629230530

   => Energetics <=

    Nuclear Repulsion Energy =            486.9431539846491432
    One-Electron Energy =               -1511.7163783156911450
    Two-Electron Energy =                 622.6871780387367608
    Total Energy =                       -402.0860462923052410
  Basis Set: (AUG-CC-PVTZ AUX)
    Blend: AUG-CC-PVTZ-RI
    Molecular point group: c1

    Geometry (in Angstrom), charge = 0, multiplicity = 1:

       Center              X                  Y                   Z               Mass
    ------------   -----------------  -----------------  -----------------  -----------------
         O            1.737400058284     1.566959257455    -0.303210993133    15.994914619570
         N            0.954074058284    -0.525359742545     0.193757006867    14.003074004430
         C           -2.265259941716    -0.284376742545    -0.188605993133    12.000000000000
         C           -1.309612941716    -1.468462742545    -0.327375993133    12.000000000000
         C           -1.714111641716     1.029898257455    -0.281291493133    12.000000000000
         C           -0.120710941716    -1.409301742545     0.633552006867    12.000000000000
         C           -0.495057941716     1.427029257455     0.566146006867    12.000000000000
         C            0.834163058284     0.839729257455     0.128375006867    12.000000000000
         C            2.155306058284    -1.152111742545    -0.338058993133    12.000000000000
         H           -2.706492941716    -0.309935742545     0.817666006867     1.007825032230
         H           -3.097439941716    -0.412478742545    -0.891763993133     1.007825032230
         H           -1.868744941716    -2.393996742545    -0.137622993133     1.007825032230
         H           -0.925292941716    -1.533903742545    -1.353063993133     1.007825032230
         H           -2.420047941716     1.849436257455    -0.301438993133     1.007825032230
         H           -1.261185941716     1.175672257455    -1.435927993133     1.007825032230
         H           -0.461015941716    -1.123392742545     1.637141006867     1.007825032230
         H            0.325436058284    -2.403478742545     0.732876006867     1.007825032230
         H           -0.758452941716     1.106704257455     1.582349006867     1.007825032230
         H           -0.327622941716     2.506132257455     0.594404006867     1.007825032230
         H            1.912037058284    -1.791219742545    -1.194638993133     1.007825032230
         H            2.639711058284    -1.762160742545     0.431376006867     1.007825032230
         H            2.830864058284    -0.360282742545    -0.656232993133     1.007825032230

  Basis Set: AUG-CC-PVTZ
    Blend: AUG-CC-PVTZ
  Basis Set: (AUG-CC-PVTZ AUX)
    Blend: AUG-CC-PVTZ-JKFIT
	 Reference Energy          =    -402.0860462923052978 [Eh]
	 Singles Energy            =      -0.0000000000000000 [Eh]
	 Same-Spin Energy          =      -0.4231701884360574 [Eh]
	 Opposite-Spin Energy      =      -1.4074156027345932 [Eh]
	 Correlation Energy        =      -1.8305857911706507 [Eh]
	 Total Energy              =    -403.9166320834759745 [Eh]

	 ================> DF-SCS-MP2 Energies <==================
	-----------------------------------------------------------
	 SCS Same-Spin Scale       =       0.3333333333333333 [-]
	 SCS Opposite-Spin Scale   =       1.2000000000000000 [-]
	 SCS Same-Spin Energy      =      -0.1410567294786858 [Eh]
	 SCS Opposite-Spin Energy  =      -1.6888987232815118 [Eh]
	 SCS Correlation Energy    =      -1.8299554527601976 [Eh]
	 SCS Total Energy          =    -403.9160017450655005 [Eh]
	-----------------------------------------------------------

  Dipole Moment: [D]
     X:    -2.6051      Y:    -3.1606      Z:     0.8856     Total:     4.1905

*** Psi4 exiting successfully. Buy a developer a beer!
