                               Psi4 1.4a3.dev225

  ==> Input File <==

--------------------------------------------------------------------------
#psi4
#
memory 32 gb

molecule  {
0 1
  O        1.7739800     1.6003060    -0.2911220
  N        0.9906540    -0.4920130     0.2058460
  C       -2.2286800    -0.2510300    -0.1765170
  C       -1.2730330    -1.4351160    -0.3152870
  C       -1.5989250     1.1242550    -0.3956020
  C       -0.0841310    -1.3759550     0.6456410
  C       -0.4584780     1.4603760     0.5782350
  C        0.8707430     0.8730760     0.1404640
  C        2.1918860    -1.1187650    -0.3259700
  H       -2.6498397    -0.2754262     0.7839761
  H       -3.0608600    -0.3791320    -0.8796750
  H       -1.8321650    -2.3606500    -0.1255340
  H       -0.8887130    -1.5005570    -1.3409750
  H       -2.3834680     1.8827830    -0.2893500
  H       -1.2246060     1.2090190    -1.4238390
  H       -0.4244360    -1.0900460     1.6492300
  H        0.3620160    -2.3701320     0.7449650
  H       -0.7218730     1.1400510     1.5944380
  H       -0.2910430     2.5394790     0.6064930
  H        1.9486170    -1.7578730    -1.1825500
  H        2.6762910    -1.7288140     0.4434650
  H        2.8674440    -0.3269360    -0.6441440
units angstrom
no_reorient  #important for SAPT in psi4, default
symmetry c1  #important for SAPT in psi4, default
}

set PROPERTIES_ORIGIN ["COM"]
properties('MP2/aug-cc-pvtz', properties = ['dipole'])
--------------------------------------------------------------------------

    Molecular point group: c1
  Charge       = 0
  Multiplicity = 1
  Basis Set: AUG-CC-PVTZ
    Blend: AUG-CC-PVTZ
  Basis Set: (AUG-CC-PVTZ AUX)
    Blend: AUG-CC-PVTZ-JKFIT

    Orbital Energies [Eh]
    ---------------------

    Doubly Occupied:

       1A    -20.505621     2A    -15.580493     3A    -11.339858
       4A    -11.272180     5A    -11.250505     6A    -11.234143
       7A    -11.233403     8A    -11.232796     9A    -11.225119
      10A     -1.361759    11A     -1.241115    12A     -1.098703
      13A     -1.038080    14A     -0.976484    15A     -0.914711
      16A     -0.877873    17A     -0.796702    18A     -0.725189
      19A     -0.690726    20A     -0.668667    21A     -0.634795
      22A     -0.608091    23A     -0.601961    24A     -0.595754
      25A     -0.583303    26A     -0.558996    27A     -0.544227
      28A     -0.526964    29A     -0.509993    30A     -0.509311
      31A     -0.483076    32A     -0.467081    33A     -0.464880
      34A     -0.407355    35A     -0.364996

  @DF-RHF Final Energy:  -402.11115877042539

   => Energetics <=

    Nuclear Repulsion Energy =            486.5482232450930269
    One-Electron Energy =               -1511.0689381796767066
    Two-Electron Energy =                 622.4095561641584027
    Total Energy =                       -402.1111587704253907
  Basis Set: (AUG-CC-PVTZ AUX)
    Blend: AUG-CC-PVTZ-RI
    Molecular point group: c1

    Geometry (in Angstrom), charge = 0, multiplicity = 1:

       Center              X                  Y                   Z               Mass
    ------------   -----------------  -----------------  -----------------  -----------------
         O            1.729819311297     1.561189835356    -0.290914103772    15.994914619570
         N            0.946493311297    -0.531129164644     0.206053896228    14.003074004430
         C           -2.272840688703    -0.290146164644    -0.176309103772    12.000000000000
         C           -1.317193688703    -1.474232164644    -0.315079103772    12.000000000000
         C           -1.643085688703     1.085138835356    -0.395394103772    12.000000000000
         C           -0.128291688703    -1.415071164644     0.645848896228    12.000000000000
         C           -0.502638688703     1.421259835356     0.578442896228    12.000000000000
         C            0.826582311297     0.833959835356     0.140671896228    12.000000000000
         C            2.147725311297    -1.157881164644    -0.325762103772    12.000000000000
         H           -2.694000388703    -0.314542364644     0.784183996228     1.007825032230
         H           -3.105020688703    -0.418248164644    -0.879467103772     1.007825032230
         H           -1.876325688703    -2.399766164644    -0.125326103772     1.007825032230
         H           -0.932873688703    -1.539673164644    -1.340767103772     1.007825032230
         H           -2.427628688703     1.843666835356    -0.289142103772     1.007825032230
         H           -1.268766688703     1.169902835356    -1.423631103772     1.007825032230
         H           -0.468596688703    -1.129162164644     1.649437896228     1.007825032230
         H            0.317855311297    -2.409248164644     0.745172896228     1.007825032230
         H           -0.766033688703     1.100934835356     1.594645896228     1.007825032230
         H           -0.335203688703     2.500362835356     0.606700896228     1.007825032230
         H            1.904456311297    -1.796989164644    -1.182342103772     1.007825032230
         H            2.632130311297    -1.767930164644     0.443672896228     1.007825032230
         H            2.823283311297    -0.366052164644    -0.643936103772     1.007825032230

  Basis Set: AUG-CC-PVTZ
    Blend: AUG-CC-PVTZ
  Basis Set: (AUG-CC-PVTZ AUX)
    Blend: AUG-CC-PVTZ-JKFIT
	 Reference Energy          =    -402.1111587704253907 [Eh]
	 Singles Energy            =      -0.0000000000000000 [Eh]
	 Same-Spin Energy          =      -0.4217687694140450 [Eh]
	 Opposite-Spin Energy      =      -1.4049236378864487 [Eh]
	 Correlation Energy        =      -1.8266924073004938 [Eh]
	 Total Energy              =    -403.9378511777258609 [Eh]

	 ================> DF-SCS-MP2 Energies <==================
	-----------------------------------------------------------
	 SCS Same-Spin Scale       =       0.3333333333333333 [-]
	 SCS Opposite-Spin Scale   =       1.2000000000000000 [-]
	 SCS Same-Spin Energy      =      -0.1405895898046817 [Eh]
	 SCS Opposite-Spin Energy  =      -1.6859083654637383 [Eh]
	 SCS Correlation Energy    =      -1.8264979552684200 [Eh]
	 SCS Total Energy          =    -403.9376567256937847 [Eh]
	-----------------------------------------------------------

  Dipole Moment: [D]
     X:    -2.5996      Y:    -3.1059      Z:     0.8224     Total:     4.1329

*** Psi4 exiting successfully. Buy a developer a beer!
