                               Psi4 1.3.2 release

  ==> Input File <==

--------------------------------------------------------------------------
#psi4
#
memory 32 gb

molecule  {
0 1
  O        1.7739800     1.6003060    -0.2911220
  N        0.9906540    -0.4920130     0.2058460
  C       -2.2286800    -0.2510300    -0.1765170
  C       -1.2730330    -1.4351160    -0.3152870
  C       -1.5989250     1.1242550    -0.3956020
  C       -0.0841310    -1.3759550     0.6456410
  C       -0.4584780     1.4603760     0.5782350
  C        0.8707430     0.8730760     0.1404640
  C        2.1918860    -1.1187650    -0.3259700
  H       -2.6699130    -0.2765890     0.8297550
  H       -3.0608600    -0.3791320    -0.8796750
  H       -1.8321650    -2.3606500    -0.1255340
  H       -0.8887130    -1.5005570    -1.3409750
  H       -2.3834680     1.8827830    -0.2893500
  H       -1.2246060     1.2090190    -1.4238390
  H       -0.3624275    -1.1421428     1.4663615
  H        0.3620160    -2.3701320     0.7449650
  H       -0.7218730     1.1400510     1.5944380
  H       -0.2910430     2.5394790     0.6064930
  H        1.9486170    -1.7578730    -1.1825500
  H        2.6762910    -1.7288140     0.4434650
  H        2.8674440    -0.3269360    -0.6441440
units angstrom
no_reorient  #important for SAPT in psi4, default
symmetry c1  #important for SAPT in psi4, default
}

set PROPERTIES_ORIGIN ["COM"]
properties('MP2/aug-cc-pvtz', properties = ['dipole'])
--------------------------------------------------------------------------

    Molecular point group: c1
  Charge       = 0
  Multiplicity = 1
  Basis Set: AUG-CC-PVTZ
    Blend: AUG-CC-PVTZ
  Basis Set: (AUG-CC-PVTZ AUX)
    Blend: AUG-CC-PVTZ-JKFIT

    Orbital Energies [Eh]
    ---------------------

    Doubly Occupied:

       1A    -20.504968     2A    -15.578705     3A    -11.339413
       4A    -11.249327     5A    -11.247472     6A    -11.234782
       7A    -11.233963     8A    -11.231928     9A    -11.231316
      10A     -1.361212    11A     -1.242166    12A     -1.098553
      13A     -1.043754    14A     -0.982264    15A     -0.918201
      16A     -0.882132    17A     -0.797462    18A     -0.742460
      19A     -0.691571    20A     -0.668093    21A     -0.635451
      22A     -0.611473    23A     -0.603125    24A     -0.596152
      25A     -0.586297    26A     -0.560868    27A     -0.543935
      28A     -0.527724    29A     -0.517300    30A     -0.508586
      31A     -0.479623    32A     -0.467254    33A     -0.465878
      34A     -0.407019    35A     -0.365372

  @DF-RHF Final Energy:  -402.07975884832297

   => Energetics <=

    Nuclear Repulsion Energy =            487.4051998290518668
    One-Electron Energy =               -1512.6583147366927733
    Two-Electron Energy =                 623.1733560593178254
    Total Energy =                       -402.0797588483229674
  Basis Set: (AUG-CC-PVTZ AUX)
    Blend: AUG-CC-PVTZ-RI
    Molecular point group: c1

    Geometry (in Angstrom), charge = 0, multiplicity = 1:

       Center              X                  Y                   Z               Mass
    ------------   -----------------  -----------------  -----------------  -----------------
         O            1.729486790138     1.561612152263    -0.289827064894    15.994914619570
         N            0.946160790138    -0.530706847737     0.207140935106    14.003074004430
         C           -2.273173209862    -0.289723847737    -0.175222064894    12.000000000000
         C           -1.317526209862    -1.473809847737    -0.313992064894    12.000000000000
         C           -1.643418209862     1.085561152263    -0.394307064894    12.000000000000
         C           -0.128624209862    -1.414648847737     0.646935935106    12.000000000000
         C           -0.502971209862     1.421682152263     0.579529935106    12.000000000000
         C            0.826249790138     0.834382152263     0.141758935106    12.000000000000
         C            2.147392790138    -1.157458847737    -0.324675064894    12.000000000000
         H           -2.714406209862    -0.315282847737     0.831049935106     1.007825032230
         H           -3.105353209862    -0.417825847737    -0.878380064894     1.007825032230
         H           -1.876658209862    -2.399343847737    -0.124239064894     1.007825032230
         H           -0.933206209862    -1.539250847737    -1.339680064894     1.007825032230
         H           -2.427961209862     1.844089152263    -0.288055064894     1.007825032230
         H           -1.269099209862     1.170325152263    -1.422544064894     1.007825032230
         H           -0.406920709862    -1.180836647737     1.467656435106     1.007825032230
         H            0.317522790138    -2.408825847737     0.746259935106     1.007825032230
         H           -0.766366209862     1.101357152263     1.595732935106     1.007825032230
         H           -0.335536209862     2.500785152263     0.607787935106     1.007825032230
         H            1.904123790138    -1.796566847737    -1.181255064894     1.007825032230
         H            2.631797790138    -1.767507847737     0.444759935106     1.007825032230
         H            2.822950790138    -0.365629847737    -0.642849064894     1.007825032230

  Basis Set: AUG-CC-PVTZ
    Blend: AUG-CC-PVTZ
  Basis Set: (AUG-CC-PVTZ AUX)
    Blend: AUG-CC-PVTZ-JKFIT
	 Reference Energy          =    -402.0797588483229674 [Eh]
	 Singles Energy            =      -0.0000000000000000 [Eh]
	 Same-Spin Energy          =      -0.4215107601131629 [Eh]
	 Opposite-Spin Energy      =      -1.4042712025520236 [Eh]
	 Correlation Energy        =      -1.8257819626651866 [Eh]
	 Total Energy              =    -403.9055408109881569 [Eh]

	 ================> DF-SCS-MP2 Energies <==================
	-----------------------------------------------------------
	 SCS Same-Spin Scale       =       0.3333333333333333 [-]
	 SCS Opposite-Spin Scale   =       1.2000000000000000 [-]
	 SCS Same-Spin Energy      =      -0.1405035867043876 [Eh]
	 SCS Opposite-Spin Energy  =      -1.6851254430624283 [Eh]
	 SCS Correlation Energy    =      -1.8256290297668158 [Eh]
	 SCS Total Energy          =    -403.9053878780897548 [Eh]
	-----------------------------------------------------------

  Dipole Moment: [D]
     X:    -2.6274      Y:    -3.1225      Z:     0.8821     Total:     4.1751

*** Psi4 exiting successfully. Buy a developer a beer!
