                               Psi4 1.3.2 release

  ==> Input File <==

--------------------------------------------------------------------------
#psi4
#
memory 32 gb

molecule  {
0 1
  O        1.7980062     1.5650871    -0.2980226
  N        0.9906540    -0.4920130     0.2058460
  C       -2.2286800    -0.2510300    -0.1765170
  C       -1.2730330    -1.4351160    -0.3152870
  C       -1.5989250     1.1242550    -0.3956020
  C       -0.0841310    -1.3759550     0.6456410
  C       -0.4584780     1.4603760     0.5782350
  C        0.8707430     0.8730760     0.1404640
  C        2.1918860    -1.1187650    -0.3259700
  H       -2.6699130    -0.2765890     0.8297550
  H       -3.0608600    -0.3791320    -0.8796750
  H       -1.8321650    -2.3606500    -0.1255340
  H       -0.8887130    -1.5005570    -1.3409750
  H       -2.3834680     1.8827830    -0.2893500
  H       -1.2246060     1.2090190    -1.4238390
  H       -0.4244360    -1.0900460     1.6492300
  H        0.3620160    -2.3701320     0.7449650
  H       -0.7218730     1.1400510     1.5944380
  H       -0.2910430     2.5394790     0.6064930
  H        1.9486170    -1.7578730    -1.1825500
  H        2.6762910    -1.7288140     0.4434650
  H        2.8674440    -0.3269360    -0.6441440
units angstrom
no_reorient  #important for SAPT in psi4, default
symmetry c1  #important for SAPT in psi4, default
}

set PROPERTIES_ORIGIN ["COM"]
properties('MP2/aug-cc-pvtz', properties = ['dipole'])
--------------------------------------------------------------------------

    Molecular point group: c1
  Charge       = 0
  Multiplicity = 1
  Basis Set: AUG-CC-PVTZ
    Blend: AUG-CC-PVTZ
  Basis Set: (AUG-CC-PVTZ AUX)
    Blend: AUG-CC-PVTZ-JKFIT

    Orbital Energies [Eh]
    ---------------------

    Doubly Occupied:

       1A    -20.505076     2A    -15.578559     3A    -11.340006
       4A    -11.271180     5A    -11.248770     6A    -11.236041
       7A    -11.235416     8A    -11.233114     9A    -11.231820
      10A     -1.362560    11A     -1.238806    12A     -1.098018
      13A     -1.038691    14A     -0.975235    15A     -0.913121
      16A     -0.878284    17A     -0.792769    18A     -0.724334
      19A     -0.691273    20A     -0.668805    21A     -0.632720
      22A     -0.608077    23A     -0.602024    24A     -0.594487
      25A     -0.583423    26A     -0.557944    27A     -0.544303
      28A     -0.525760    29A     -0.509193    30A     -0.508996
      31A     -0.479642    32A     -0.468108    33A     -0.465774
      34A     -0.408274    35A     -0.363473

  @DF-RHF Final Energy:  -402.11157474207710

   => Energetics <=

    Nuclear Repulsion Energy =            486.4714639786024577
    One-Electron Energy =               -1510.9379333324363870
    Two-Electron Energy =                 622.3548946117567766
    Total Energy =                       -402.1115747420770958
  Basis Set: (AUG-CC-PVTZ AUX)
    Blend: AUG-CC-PVTZ-RI
    Molecular point group: c1

    Geometry (in Angstrom), charge = 0, multiplicity = 1:

       Center              X                  Y                   Z               Mass
    ------------   -----------------  -----------------  -----------------  -----------------
         O            1.750981093811     1.530412292299    -0.297309294402    15.994914619570
         N            0.943628893811    -0.526687807701     0.206559305598    14.003074004430
         C           -2.275705106189    -0.285704807701    -0.175803694402    12.000000000000
         C           -1.320058106189    -1.469790807701    -0.314573694402    12.000000000000
         C           -1.645950106189     1.089580192299    -0.394888694402    12.000000000000
         C           -0.131156106189    -1.410629807701     0.646354305598    12.000000000000
         C           -0.505503106189     1.425701192299     0.578948305598    12.000000000000
         C            0.823717893811     0.838401192299     0.141177305598    12.000000000000
         C            2.144860893811    -1.153439807701    -0.325256694402    12.000000000000
         H           -2.716938106189    -0.311263807701     0.830468305598     1.007825032230
         H           -3.107885106189    -0.413806807701    -0.878961694402     1.007825032230
         H           -1.879190106189    -2.395324807701    -0.124820694402     1.007825032230
         H           -0.935738106189    -1.535231807701    -1.340261694402     1.007825032230
         H           -2.430493106189     1.848108192299    -0.288636694402     1.007825032230
         H           -1.271631106189     1.174344192299    -1.423125694402     1.007825032230
         H           -0.471461106189    -1.124720807701     1.649943305598     1.007825032230
         H            0.314990893811    -2.404806807701     0.745678305598     1.007825032230
         H           -0.768898106189     1.105376192299     1.595151305598     1.007825032230
         H           -0.338068106189     2.504804192299     0.607206305598     1.007825032230
         H            1.901591893811    -1.792547807701    -1.181836694402     1.007825032230
         H            2.629265893811    -1.763488807701     0.444178305598     1.007825032230
         H            2.820418893811    -0.361610807701    -0.643430694402     1.007825032230

  Basis Set: AUG-CC-PVTZ
    Blend: AUG-CC-PVTZ
  Basis Set: (AUG-CC-PVTZ AUX)
    Blend: AUG-CC-PVTZ-JKFIT
	 Reference Energy          =    -402.1115747420770958 [Eh]
	 Singles Energy            =      -0.0000000000000000 [Eh]
	 Same-Spin Energy          =      -0.4218870594228116 [Eh]
	 Opposite-Spin Energy      =      -1.4052716803278906 [Eh]
	 Correlation Energy        =      -1.8271587397507023 [Eh]
	 Total Energy              =    -403.9387334818277964 [Eh]

	 ================> DF-SCS-MP2 Energies <==================
	-----------------------------------------------------------
	 SCS Same-Spin Scale       =       0.3333333333333333 [-]
	 SCS Opposite-Spin Scale   =       1.2000000000000000 [-]
	 SCS Same-Spin Energy      =      -0.1406290198076039 [Eh]
	 SCS Opposite-Spin Energy  =      -1.6863260163934688 [Eh]
	 SCS Correlation Energy    =      -1.8269550362010727 [Eh]
	 SCS Total Energy          =    -403.9385297782781663 [Eh]
	-----------------------------------------------------------

  Dipole Moment: [D]
     X:    -2.6541      Y:    -2.9994      Z:     0.8102     Total:     4.0862

*** Psi4 exiting successfully. Buy a developer a beer!
