                               Psi4 1.3.2 release

  ==> Input File <==

--------------------------------------------------------------------------
#psi4
#
memory 32 gb

molecule  {
0 1
  O        1.7739800     1.6003060    -0.2911220
  N        0.9906540    -0.4920130     0.2058460
  C       -2.2286800    -0.2510300    -0.1765170
  C       -1.2730330    -1.4351160    -0.3152870
  C       -1.5989250     1.1242550    -0.3956020
  C       -0.0841310    -1.3759550     0.6456410
  C       -0.4584780     1.4603760     0.5782350
  C        0.8764953     0.8253027     0.2348384
  C        2.1918860    -1.1187650    -0.3259700
  H       -2.6699130    -0.2765890     0.8297550
  H       -3.0608600    -0.3791320    -0.8796750
  H       -1.8321650    -2.3606500    -0.1255340
  H       -0.8887130    -1.5005570    -1.3409750
  H       -2.3834680     1.8827830    -0.2893500
  H       -1.2246060     1.2090190    -1.4238390
  H       -0.4244360    -1.0900460     1.6492300
  H        0.3620160    -2.3701320     0.7449650
  H       -0.7218730     1.1400510     1.5944380
  H       -0.2910430     2.5394790     0.6064930
  H        1.9486170    -1.7578730    -1.1825500
  H        2.6762910    -1.7288140     0.4434650
  H        2.8674440    -0.3269360    -0.6441440
units angstrom
no_reorient  #important for SAPT in psi4, default
symmetry c1  #important for SAPT in psi4, default
}

set PROPERTIES_ORIGIN ["COM"]
properties('MP2/aug-cc-pvtz', properties = ['dipole'])
--------------------------------------------------------------------------

    Molecular point group: c1
  Charge       = 0
  Multiplicity = 1
  Basis Set: AUG-CC-PVTZ
    Blend: AUG-CC-PVTZ
  Basis Set: (AUG-CC-PVTZ AUX)
    Blend: AUG-CC-PVTZ-JKFIT

    Orbital Energies [Eh]
    ---------------------

    Doubly Occupied:

       1A    -20.491409     2A    -15.592361     3A    -11.338753
       4A    -11.277286     5A    -11.256079     6A    -11.236882
       7A    -11.235666     8A    -11.234820     9A    -11.233004
      10A     -1.336816    11A     -1.241445    12A     -1.099787
      13A     -1.040052    14A     -0.982145    15A     -0.926889
      16A     -0.880733    17A     -0.795700    18A     -0.731571
      19A     -0.689027    20A     -0.668492    21A     -0.637437
      22A     -0.611411    23A     -0.600520    24A     -0.595553
      25A     -0.577079    26A     -0.559869    27A     -0.542109
      28A     -0.527520    29A     -0.506675    30A     -0.504808
      31A     -0.480586    32A     -0.468450    33A     -0.460769
      34A     -0.397410    35A     -0.365812

  @DF-RHF Final Energy:  -402.09954165260120

   => Energetics <=

    Nuclear Repulsion Energy =            486.1966149991233124
    One-Electron Energy =               -1510.3424683236175952
    Two-Electron Energy =                 622.0463116718931360
    Total Energy =                       -402.0995416526011468
  Basis Set: (AUG-CC-PVTZ AUX)
    Blend: AUG-CC-PVTZ-RI
    Molecular point group: c1

    Geometry (in Angstrom), charge = 0, multiplicity = 1:

       Center              X                  Y                   Z               Mass
    ------------   -----------------  -----------------  -----------------  -----------------
         O            1.729435382615     1.565709526870    -0.300187373427    15.994914619570
         N            0.946109382615    -0.526609473130     0.196780626573    14.003074004430
         C           -2.273224617385    -0.285626473130    -0.185582373427    12.000000000000
         C           -1.317577617385    -1.469712473130    -0.324352373427    12.000000000000
         C           -1.643469617385     1.089658526870    -0.404667373427    12.000000000000
         C           -0.128675617385    -1.410551473130     0.636575626573    12.000000000000
         C           -0.503022617385     1.425779526870     0.569169626573    12.000000000000
         C            0.831950682615     0.790706226870     0.225773026573    12.000000000000
         C            2.147341382615    -1.153361473130    -0.335035373427    12.000000000000
         H           -2.714457617385    -0.311185473130     0.820689626573     1.007825032230
         H           -3.105404617385    -0.413728473130    -0.888740373427     1.007825032230
         H           -1.876709617385    -2.395246473130    -0.134599373427     1.007825032230
         H           -0.933257617385    -1.535153473130    -1.350040373427     1.007825032230
         H           -2.428012617385     1.848186526870    -0.298415373427     1.007825032230
         H           -1.269150617385     1.174422526870    -1.432904373427     1.007825032230
         H           -0.468980617385    -1.124642473130     1.640164626573     1.007825032230
         H            0.317471382615    -2.404728473130     0.735899626573     1.007825032230
         H           -0.766417617385     1.105454526870     1.585372626573     1.007825032230
         H           -0.335587617385     2.504882526870     0.597427626573     1.007825032230
         H            1.904072382615    -1.792469473130    -1.191615373427     1.007825032230
         H            2.631746382615    -1.763410473130     0.434399626573     1.007825032230
         H            2.822899382615    -0.361532473130    -0.653209373427     1.007825032230

  Basis Set: AUG-CC-PVTZ
    Blend: AUG-CC-PVTZ
  Basis Set: (AUG-CC-PVTZ AUX)
    Blend: AUG-CC-PVTZ-JKFIT
	 Reference Energy          =    -402.0995416526012036 [Eh]
	 Singles Energy            =      -0.0000000000000000 [Eh]
	 Same-Spin Energy          =      -0.4229227523018593 [Eh]
	 Opposite-Spin Energy      =      -1.4077089600126258 [Eh]
	 Correlation Energy        =      -1.8306317123144851 [Eh]
	 Total Energy              =    -403.9301733649156745 [Eh]

	 ================> DF-SCS-MP2 Energies <==================
	-----------------------------------------------------------
	 SCS Same-Spin Scale       =       0.3333333333333333 [-]
	 SCS Opposite-Spin Scale   =       1.2000000000000000 [-]
	 SCS Same-Spin Energy      =      -0.1409742507672864 [Eh]
	 SCS Opposite-Spin Energy  =      -1.6892507520151510 [Eh]
	 SCS Correlation Energy    =      -1.8302250027824374 [Eh]
	 SCS Total Energy          =    -403.9297666553836166 [Eh]
	-----------------------------------------------------------

  Dipole Moment: [D]
     X:    -2.7391      Y:    -3.6261      Z:     0.8874     Total:     4.6302

*** Psi4 exiting successfully. Buy a developer a beer!
