                               Psi4 1.3.2 release

  ==> Input File <==

--------------------------------------------------------------------------
#psi4
#
memory 32 gb

molecule  {
0 1
  O        1.7739800     1.6003060    -0.2911220
  N        0.9008103    -0.4949659     0.2388444
  C       -2.2286800    -0.2510300    -0.1765170
  C       -1.2730330    -1.4351160    -0.3152870
  C       -1.5989250     1.1242550    -0.3956020
  C       -0.0841310    -1.3759550     0.6456410
  C       -0.4584780     1.4603760     0.5782350
  C        0.8707430     0.8730760     0.1404640
  C        2.1918860    -1.1187650    -0.3259700
  H       -2.6699130    -0.2765890     0.8297550
  H       -3.0608600    -0.3791320    -0.8796750
  H       -1.8321650    -2.3606500    -0.1255340
  H       -0.8887130    -1.5005570    -1.3409750
  H       -2.3834680     1.8827830    -0.2893500
  H       -1.2246060     1.2090190    -1.4238390
  H       -0.4244360    -1.0900460     1.6492300
  H        0.3620160    -2.3701320     0.7449650
  H       -0.7218730     1.1400510     1.5944380
  H       -0.2910430     2.5394790     0.6064930
  H        1.9486170    -1.7578730    -1.1825500
  H        2.6762910    -1.7288140     0.4434650
  H        2.8674440    -0.3269360    -0.6441440
units angstrom
no_reorient  #important for SAPT in psi4, default
symmetry c1  #important for SAPT in psi4, default
}

set PROPERTIES_ORIGIN ["COM"]
properties('MP2/aug-cc-pvtz', properties = ['dipole'])
--------------------------------------------------------------------------

    Molecular point group: c1
  Charge       = 0
  Multiplicity = 1
  Basis Set: AUG-CC-PVTZ
    Blend: AUG-CC-PVTZ
  Basis Set: (AUG-CC-PVTZ AUX)
    Blend: AUG-CC-PVTZ-JKFIT

    Orbital Energies [Eh]
    ---------------------

    Doubly Occupied:

       1A    -20.510180     2A    -15.582281     3A    -11.342543
       4A    -11.267049     5A    -11.258590     6A    -11.232716
       7A    -11.230126     8A    -11.229509     9A    -11.229197
      10A     -1.362484    11A     -1.251119    12A     -1.092337
      13A     -1.039773    14A     -0.970116    15A     -0.914225
      16A     -0.885012    17A     -0.792145    18A     -0.726598
      19A     -0.688147    20A     -0.672833    21A     -0.634286
      22A     -0.601413    23A     -0.600473    24A     -0.593032
      25A     -0.586277    26A     -0.558924    27A     -0.538977
      28A     -0.534224    29A     -0.512796    30A     -0.504868
      31A     -0.477275    32A     -0.464558    33A     -0.463669
      34A     -0.406099    35A     -0.366153

  @DF-RHF Final Energy:  -402.09983194486296

   => Energetics <=

    Nuclear Repulsion Energy =            486.9670367094199150
    One-Electron Energy =               -1511.8937281406895181
    Two-Electron Energy =                 622.8268594864065335
    Total Energy =                       -402.0998319448630127
  Basis Set: (AUG-CC-PVTZ AUX)
    Blend: AUG-CC-PVTZ-RI
    Molecular point group: c1

    Geometry (in Angstrom), charge = 0, multiplicity = 1:

       Center              X                  Y                   Z               Mass
    ------------   -----------------  -----------------  -----------------  -----------------
         O            1.739876913423     1.561524388242    -0.294912666337    15.994914619570
         N            0.866707213423    -0.533747511758     0.235053733663    14.003074004430
         C           -2.262783086577    -0.289811611758    -0.180307666337    12.000000000000
         C           -1.307136086577    -1.473897611758    -0.319077666337    12.000000000000
         C           -1.633028086577     1.085473388242    -0.399392666337    12.000000000000
         C           -0.118234086577    -1.414736611758     0.641850333663    12.000000000000
         C           -0.492581086577     1.421594388242     0.574444333663    12.000000000000
         C            0.836639913423     0.834294388242     0.136673333663    12.000000000000
         C            2.157782913423    -1.157546611758    -0.329760666337    12.000000000000
         H           -2.704016086577    -0.315370611758     0.825964333663     1.007825032230
         H           -3.094963086577    -0.417913611758    -0.883465666337     1.007825032230
         H           -1.866268086577    -2.399431611758    -0.129324666337     1.007825032230
         H           -0.922816086577    -1.539338611758    -1.344765666337     1.007825032230
         H           -2.417571086577     1.844001388242    -0.293140666337     1.007825032230
         H           -1.258709086577     1.170237388242    -1.427629666337     1.007825032230
         H           -0.458539086577    -1.128827611758     1.645439333663     1.007825032230
         H            0.327912913423    -2.408913611758     0.741174333663     1.007825032230
         H           -0.755976086577     1.101269388242     1.590647333663     1.007825032230
         H           -0.325146086577     2.500697388242     0.602702333663     1.007825032230
         H            1.914513913423    -1.796654611758    -1.186340666337     1.007825032230
         H            2.642187913423    -1.767595611758     0.439674333663     1.007825032230
         H            2.833340913423    -0.365717611758    -0.647934666337     1.007825032230

  Basis Set: AUG-CC-PVTZ
    Blend: AUG-CC-PVTZ
  Basis Set: (AUG-CC-PVTZ AUX)
    Blend: AUG-CC-PVTZ-JKFIT
	 Reference Energy          =    -402.0998319448629559 [Eh]
	 Singles Energy            =      -0.0000000000000000 [Eh]
	 Same-Spin Energy          =      -0.4226058430571535 [Eh]
	 Opposite-Spin Energy      =      -1.4068480505152954 [Eh]
	 Correlation Energy        =      -1.8294538935724489 [Eh]
	 Total Energy              =    -403.9292858384354190 [Eh]

	 ================> DF-SCS-MP2 Energies <==================
	-----------------------------------------------------------
	 SCS Same-Spin Scale       =       0.3333333333333333 [-]
	 SCS Opposite-Spin Scale   =       1.2000000000000000 [-]
	 SCS Same-Spin Energy      =      -0.1408686143523845 [Eh]
	 SCS Opposite-Spin Energy  =      -1.6882176606183543 [Eh]
	 SCS Correlation Energy    =      -1.8290862749707388 [Eh]
	 SCS Total Energy          =    -403.9289182198336903 [Eh]
	-----------------------------------------------------------

  Dipole Moment: [D]
     X:    -2.2947      Y:    -3.1308      Z:     0.7198     Total:     3.9479

*** Psi4 exiting successfully. Buy a developer a beer!
