                               Psi4 1.3.2 release

  ==> Input File <==

--------------------------------------------------------------------------
#psi4
#
memory 32 gb

molecule  {
0 1
  O        1.7739800     1.6003060    -0.2911220
  N        0.9906540    -0.4920130     0.2058460
  C       -2.1248803    -0.2701029    -0.0562858
  C       -1.2730330    -1.4351160    -0.3152870
  C       -1.5989250     1.1242550    -0.3956020
  C       -0.0841310    -1.3759550     0.6456410
  C       -0.4584780     1.4603760     0.5782350
  C        0.8707430     0.8730760     0.1404640
  C        2.1918860    -1.1187650    -0.3259700
  H       -2.6699130    -0.2765890     0.8297550
  H       -3.0608600    -0.3791320    -0.8796750
  H       -1.8321650    -2.3606500    -0.1255340
  H       -0.8887130    -1.5005570    -1.3409750
  H       -2.3834680     1.8827830    -0.2893500
  H       -1.2246060     1.2090190    -1.4238390
  H       -0.4244360    -1.0900460     1.6492300
  H        0.3620160    -2.3701320     0.7449650
  H       -0.7218730     1.1400510     1.5944380
  H       -0.2910430     2.5394790     0.6064930
  H        1.9486170    -1.7578730    -1.1825500
  H        2.6762910    -1.7288140     0.4434650
  H        2.8674440    -0.3269360    -0.6441440
units angstrom
no_reorient  #important for SAPT in psi4, default
symmetry c1  #important for SAPT in psi4, default
}

set PROPERTIES_ORIGIN ["COM"]
properties('MP2/aug-cc-pvtz', properties = ['dipole'])
--------------------------------------------------------------------------

    Molecular point group: c1
  Charge       = 0
  Multiplicity = 1
  Basis Set: AUG-CC-PVTZ
    Blend: AUG-CC-PVTZ
  Basis Set: (AUG-CC-PVTZ AUX)
    Blend: AUG-CC-PVTZ-JKFIT

    Orbital Energies [Eh]
    ---------------------

    Doubly Occupied:

       1A    -20.505838     2A    -15.581260     3A    -11.340141
       4A    -11.270763     5A    -11.251073     6A    -11.237983
       7A    -11.237194     8A    -11.233392     9A    -11.231314
      10A     -1.362103    11A     -1.242373    12A     -1.106612
      13A     -1.043632    14A     -0.973363    15A     -0.912714
      16A     -0.880354    17A     -0.797278    18A     -0.725372
      19A     -0.690367    20A     -0.670844    21A     -0.636327
      22A     -0.614061    23A     -0.608458    24A     -0.588028
      25A     -0.583705    26A     -0.560286    27A     -0.541027
      28A     -0.531113    29A     -0.512571    30A     -0.500932
      31A     -0.500215    32A     -0.475654    33A     -0.432080
      34A     -0.405562    35A     -0.364029

  @DF-RHF Final Energy:  -402.08618430540065

   => Energetics <=

    Nuclear Repulsion Energy =            488.1356404385441010
    One-Electron Energy =               -1514.1476150277233046
    Two-Electron Energy =                 623.9257902837787242
    Total Energy =                       -402.0861843054005931
  Basis Set: (AUG-CC-PVTZ AUX)
    Blend: AUG-CC-PVTZ-RI
    Molecular point group: c1

    Geometry (in Angstrom), charge = 0, multiplicity = 1:

       Center              X                  Y                   Z               Mass
    ------------   -----------------  -----------------  -----------------  -----------------
         O            1.720178329530     1.562999805588    -0.302628618888    15.994914619570
         N            0.936852329530    -0.529319194412     0.194339381112    14.003074004430
         C           -2.178681970470    -0.307409094412    -0.067792418888    12.000000000000
         C           -1.326834670470    -1.472422194412    -0.326793618888    12.000000000000
         C           -1.652726670470     1.086948805588    -0.407108618888    12.000000000000
         C           -0.137932670470    -1.413261194412     0.634134381112    12.000000000000
         C           -0.512279670470     1.423069805588     0.566728381112    12.000000000000
         C            0.816941329530     0.835769805588     0.128957381112    12.000000000000
         C            2.138084329530    -1.156071194412    -0.337476618888    12.000000000000
         H           -2.723714670470    -0.313895194412     0.818248381112     1.007825032230
         H           -3.114661670470    -0.416438194412    -0.891181618888     1.007825032230
         H           -1.885966670470    -2.397956194412    -0.137040618888     1.007825032230
         H           -0.942514670470    -1.537863194412    -1.352481618888     1.007825032230
         H           -2.437269670470     1.845476805588    -0.300856618888     1.007825032230
         H           -1.278407670470     1.171712805588    -1.435345618888     1.007825032230
         H           -0.478237670470    -1.127352194412     1.637723381112     1.007825032230
         H            0.308214329530    -2.407438194412     0.733458381112     1.007825032230
         H           -0.775674670470     1.102744805588     1.582931381112     1.007825032230
         H           -0.344844670470     2.502172805588     0.594986381112     1.007825032230
         H            1.894815329530    -1.795179194412    -1.194056618888     1.007825032230
         H            2.622489329530    -1.766120194412     0.431958381112     1.007825032230
         H            2.813642329530    -0.364242194412    -0.655650618888     1.007825032230

  Basis Set: AUG-CC-PVTZ
    Blend: AUG-CC-PVTZ
  Basis Set: (AUG-CC-PVTZ AUX)
    Blend: AUG-CC-PVTZ-JKFIT
	 Reference Energy          =    -402.0861843054006499 [Eh]
	 Singles Energy            =      -0.0000000000000000 [Eh]
	 Same-Spin Energy          =      -0.4229643012375924 [Eh]
	 Opposite-Spin Energy      =      -1.4074266777131301 [Eh]
	 Correlation Energy        =      -1.8303909789507224 [Eh]
	 Total Energy              =    -403.9165752843513815 [Eh]

	 ================> DF-SCS-MP2 Energies <==================
	-----------------------------------------------------------
	 SCS Same-Spin Scale       =       0.3333333333333333 [-]
	 SCS Opposite-Spin Scale   =       1.2000000000000000 [-]
	 SCS Same-Spin Energy      =      -0.1409881004125308 [Eh]
	 SCS Opposite-Spin Energy  =      -1.6889120132557560 [Eh]
	 SCS Correlation Energy    =      -1.8299001136682869 [Eh]
	 SCS Total Energy          =    -403.9160844190689090 [Eh]
	-----------------------------------------------------------

  Dipole Moment: [D]
     X:    -2.4929      Y:    -3.1073      Z:     0.8568     Total:     4.0748

*** Psi4 exiting successfully. Buy a developer a beer!
