                               Psi4 1.3.2 release

  ==> Input File <==

--------------------------------------------------------------------------
#psi4
#
memory 32 gb

molecule  {
0 1
  O        1.7739800     1.6003060    -0.2911220
  N        0.9906540    -0.4920130     0.2058460
  C       -2.2286800    -0.2510300    -0.1765170
  C       -1.2730330    -1.4351160    -0.3152870
  C       -1.6325947     1.1517796    -0.3641946
  C       -0.0841310    -1.3759550     0.6456410
  C       -0.4584780     1.4603760     0.5782350
  C        0.8707430     0.8730760     0.1404640
  C        2.1918860    -1.1187650    -0.3259700
  H       -2.6699130    -0.2765890     0.8297550
  H       -3.0608600    -0.3791320    -0.8796750
  H       -1.8321650    -2.3606500    -0.1255340
  H       -0.8887130    -1.5005570    -1.3409750
  H       -2.3834680     1.8827830    -0.2893500
  H       -1.2246060     1.2090190    -1.4238390
  H       -0.4244360    -1.0900460     1.6492300
  H        0.3620160    -2.3701320     0.7449650
  H       -0.7218730     1.1400510     1.5944380
  H       -0.2910430     2.5394790     0.6064930
  H        1.9486170    -1.7578730    -1.1825500
  H        2.6762910    -1.7288140     0.4434650
  H        2.8674440    -0.3269360    -0.6441440
units angstrom
no_reorient  #important for SAPT in psi4, default
symmetry c1  #important for SAPT in psi4, default
}

set PROPERTIES_ORIGIN ["COM"]
properties('MP2/aug-cc-pvtz', properties = ['dipole'])
--------------------------------------------------------------------------

    Molecular point group: c1
  Charge       = 0
  Multiplicity = 1
  Basis Set: AUG-CC-PVTZ
    Blend: AUG-CC-PVTZ
  Basis Set: (AUG-CC-PVTZ AUX)
    Blend: AUG-CC-PVTZ-JKFIT

    Orbital Energies [Eh]
    ---------------------

    Doubly Occupied:

       1A    -20.506305     2A    -15.580935     3A    -11.340980
       4A    -11.272389     5A    -11.250753     6A    -11.234695
       7A    -11.234340     8A    -11.233478     9A    -11.231663
      10A     -1.362247    11A     -1.241403    12A     -1.096515
      13A     -1.038366    14A     -0.975662    15A     -0.914282
      16A     -0.879766    17A     -0.791881    18A     -0.725421
      19A     -0.690476    20A     -0.669614    21A     -0.632676
      22A     -0.610124    23A     -0.600454    24A     -0.597517
      25A     -0.584293    26A     -0.558193    27A     -0.546049
      28A     -0.526228    29A     -0.509820    30A     -0.506874
      31A     -0.475747    32A     -0.468358    33A     -0.464828
      34A     -0.408764    35A     -0.365272

  @DF-RHF Final Energy:  -402.10884115052005

   => Energetics <=

    Nuclear Repulsion Energy =            485.8300982599336066
    One-Electron Energy =               -1509.6251476168761201
    Two-Electron Energy =                 621.6862082064224069
    Total Energy =                       -402.1088411505201066
  Basis Set: (AUG-CC-PVTZ AUX)
    Blend: AUG-CC-PVTZ-RI
    Molecular point group: c1

    Geometry (in Angstrom), charge = 0, multiplicity = 1:

       Center              X                  Y                   Z               Mass
    ------------   -----------------  -----------------  -----------------  -----------------
         O            1.733157373679     1.558600346438    -0.294242403324    15.994914619570
         N            0.949831373679    -0.533718653562     0.202725596676    14.003074004430
         C           -2.269502626321    -0.292735653562    -0.179637403324    12.000000000000
         C           -1.313855626321    -1.476821653562    -0.318407403324    12.000000000000
         C           -1.673417326321     1.110073946438    -0.367315003324    12.000000000000
         C           -0.124953626321    -1.417660653562     0.642520596676    12.000000000000
         C           -0.499300626321     1.418670346438     0.575114596676    12.000000000000
         C            0.829920373679     0.831370346438     0.137343596676    12.000000000000
         C            2.151063373679    -1.160470653562    -0.329090403324    12.000000000000
         H           -2.710735626321    -0.318294653562     0.826634596676     1.007825032230
         H           -3.101682626321    -0.420837653562    -0.882795403324     1.007825032230
         H           -1.872987626321    -2.402355653562    -0.128654403324     1.007825032230
         H           -0.929535626321    -1.542262653562    -1.344095403324     1.007825032230
         H           -2.424290626321     1.841077346438    -0.292470403324     1.007825032230
         H           -1.265428626321     1.167313346438    -1.426959403324     1.007825032230
         H           -0.465258626321    -1.131751653562     1.646109596676     1.007825032230
         H            0.321193373679    -2.411837653562     0.741844596676     1.007825032230
         H           -0.762695626321     1.098345346438     1.591317596676     1.007825032230
         H           -0.331865626321     2.497773346438     0.603372596676     1.007825032230
         H            1.907794373679    -1.799578653562    -1.185670403324     1.007825032230
         H            2.635468373679    -1.770519653562     0.440344596676     1.007825032230
         H            2.826621373679    -0.368641653562    -0.647264403324     1.007825032230

  Basis Set: AUG-CC-PVTZ
    Blend: AUG-CC-PVTZ
  Basis Set: (AUG-CC-PVTZ AUX)
    Blend: AUG-CC-PVTZ-JKFIT
	 Reference Energy          =    -402.1088411505200497 [Eh]
	 Singles Energy            =      -0.0000000000000000 [Eh]
	 Same-Spin Energy          =      -0.4217645817421833 [Eh]
	 Opposite-Spin Energy      =      -1.4053297637538780 [Eh]
	 Correlation Energy        =      -1.8270943454960613 [Eh]
	 Total Energy              =    -403.9359354960160999 [Eh]

	 ================> DF-SCS-MP2 Energies <==================
	-----------------------------------------------------------
	 SCS Same-Spin Scale       =       0.3333333333333333 [-]
	 SCS Opposite-Spin Scale   =       1.2000000000000000 [-]
	 SCS Same-Spin Energy      =      -0.1405881939140611 [Eh]
	 SCS Opposite-Spin Energy  =      -1.6863957165046535 [Eh]
	 SCS Correlation Energy    =      -1.8269839104187147 [Eh]
	 SCS Total Energy          =    -403.9358250609387824 [Eh]
	-----------------------------------------------------------

  Dipole Moment: [D]
     X:    -2.5783      Y:    -3.1059      Z:     0.8041     Total:     4.1159

*** Psi4 exiting successfully. Buy a developer a beer!
