                               Psi4 1.4a3.dev225

  ==> Input File <==

--------------------------------------------------------------------------
#psi4
#
memory 32 gb

molecule  {
0 1
  O        1.7739800     1.6003060    -0.2911220
  N        0.9906540    -0.4920130     0.2058460
  C       -2.2286800    -0.2510300    -0.1765170
  C       -1.3043056    -1.3963680    -0.3107459
  C       -1.5989250     1.1242550    -0.3956020
  C       -0.0841310    -1.3759550     0.6456410
  C       -0.4584780     1.4603760     0.5782350
  C        0.8707430     0.8730760     0.1404640
  C        2.1918860    -1.1187650    -0.3259700
  H       -2.6699130    -0.2765890     0.8297550
  H       -3.0608600    -0.3791320    -0.8796750
  H       -1.8321650    -2.3606500    -0.1255340
  H       -0.8887130    -1.5005570    -1.3409750
  H       -2.3834680     1.8827830    -0.2893500
  H       -1.2246060     1.2090190    -1.4238390
  H       -0.4244360    -1.0900460     1.6492300
  H        0.3620160    -2.3701320     0.7449650
  H       -0.7218730     1.1400510     1.5944380
  H       -0.2910430     2.5394790     0.6064930
  H        1.9486170    -1.7578730    -1.1825500
  H        2.6762910    -1.7288140     0.4434650
  H        2.8674440    -0.3269360    -0.6441440
units angstrom
no_reorient  #important for SAPT in psi4, default
symmetry c1  #important for SAPT in psi4, default
}

set PROPERTIES_ORIGIN ["COM"]
properties('MP2/aug-cc-pvtz', properties = ['dipole'])
--------------------------------------------------------------------------

    Molecular point group: c1
  Charge       = 0
  Multiplicity = 1
  Basis Set: AUG-CC-PVTZ
    Blend: AUG-CC-PVTZ
  Basis Set: (AUG-CC-PVTZ AUX)
    Blend: AUG-CC-PVTZ-JKFIT

    Orbital Energies [Eh]
    ---------------------

    Doubly Occupied:

       1A    -20.505709     2A    -15.580340     3A    -11.339923
       4A    -11.273246     5A    -11.250545     6A    -11.235291
       7A    -11.234988     8A    -11.233809     9A    -11.229735
      10A     -1.361819    11A     -1.240836    12A     -1.102494
      13A     -1.037658    14A     -0.976141    15A     -0.915030
      16A     -0.878479    17A     -0.791172    18A     -0.724671
      19A     -0.690854    20A     -0.669385    21A     -0.632847
      22A     -0.611762    23A     -0.601946    24A     -0.595786
      25A     -0.582476    26A     -0.556193    27A     -0.545095
      28A     -0.525843    29A     -0.510801    30A     -0.506818
      31A     -0.481030    32A     -0.469018    33A     -0.464753
      34A     -0.407470    35A     -0.363474

  @DF-RHF Final Energy:  -402.10906603824839

   => Energetics <=

    Nuclear Repulsion Energy =            486.6277826231993231
    One-Electron Energy =               -1511.2188230417659724
    Two-Electron Energy =                 622.4819743803180927
    Total Energy =                       -402.1090660382484430
  Basis Set: (AUG-CC-PVTZ AUX)
    Blend: AUG-CC-PVTZ-RI
    Molecular point group: c1

    Geometry (in Angstrom), charge = 0, multiplicity = 1:

       Center              X                  Y                   Z               Mass
    ------------   -----------------  -----------------  -----------------  -----------------
         O            1.732931053737     1.557540699679    -0.291705846870    15.994914619570
         N            0.949605053737    -0.534778300321     0.205262153130    14.003074004430
         C           -2.269728946263    -0.293795300321    -0.177100846870    12.000000000000
         C           -1.345354546263    -1.439133300321    -0.311329746870    12.000000000000
         C           -1.639973946263     1.081489699679    -0.396185846870    12.000000000000
         C           -0.125179946263    -1.418720300321     0.645057153130    12.000000000000
         C           -0.499526946263     1.417610699679     0.577651153130    12.000000000000
         C            0.829694053737     0.830310699679     0.139880153130    12.000000000000
         C            2.150837053737    -1.161530300321    -0.326553846870    12.000000000000
         H           -2.710961946263    -0.319354300321     0.829171153130     1.007825032230
         H           -3.101908946263    -0.421897300321    -0.880258846870     1.007825032230
         H           -1.873213946263    -2.403415300321    -0.126117846870     1.007825032230
         H           -0.929761946263    -1.543322300321    -1.341558846870     1.007825032230
         H           -2.424516946263     1.840017699679    -0.289933846870     1.007825032230
         H           -1.265654946263     1.166253699679    -1.424422846870     1.007825032230
         H           -0.465484946263    -1.132811300321     1.648646153130     1.007825032230
         H            0.320967053737    -2.412897300321     0.744381153130     1.007825032230
         H           -0.762921946263     1.097285699679     1.593854153130     1.007825032230
         H           -0.332091946263     2.496713699679     0.605909153130     1.007825032230
         H            1.907568053737    -1.800638300321    -1.183133846870     1.007825032230
         H            2.635242053737    -1.771579300321     0.442881153130     1.007825032230
         H            2.826395053737    -0.369701300321    -0.644727846870     1.007825032230

  Basis Set: AUG-CC-PVTZ
    Blend: AUG-CC-PVTZ
  Basis Set: (AUG-CC-PVTZ AUX)
    Blend: AUG-CC-PVTZ-JKFIT
	 Reference Energy          =    -402.1090660382483861 [Eh]
	 Singles Energy            =      -0.0000000000000000 [Eh]
	 Same-Spin Energy          =      -0.4221270035171415 [Eh]
	 Opposite-Spin Energy      =      -1.4056297868397447 [Eh]
	 Correlation Energy        =      -1.8277567903568861 [Eh]
	 Total Energy              =    -403.9368228286052727 [Eh]

	 ================> DF-SCS-MP2 Energies <==================
	-----------------------------------------------------------
	 SCS Same-Spin Scale       =       0.3333333333333333 [-]
	 SCS Opposite-Spin Scale   =       1.2000000000000000 [-]
	 SCS Same-Spin Energy      =      -0.1407090011723805 [Eh]
	 SCS Opposite-Spin Energy  =      -1.6867557442076937 [Eh]
	 SCS Correlation Energy    =      -1.8274647453800741 [Eh]
	 SCS Total Energy          =    -403.9365307836284842 [Eh]
	-----------------------------------------------------------

  Dipole Moment: [D]
     X:    -2.5866      Y:    -3.0880      Z:     0.8006     Total:     4.1070

*** Psi4 exiting successfully. Buy a developer a beer!
