                               Psi4 1.4a3.dev225

  ==> Input File <==

--------------------------------------------------------------------------
#psi4
#
memory 32 gb

molecule  {
0 1
  O        1.7739800     1.6003060    -0.2911220
  N        0.9906540    -0.4920130     0.2058460
  C       -2.2286800    -0.2510300    -0.1765170
  C       -1.2730330    -1.4351160    -0.3152870
  C       -1.5989250     1.1242550    -0.3956020
  C       -0.0996740    -1.3767284     0.6330784
  C       -0.4584780     1.4603760     0.5782350
  C        0.8707430     0.8730760     0.1404640
  C        2.1918860    -1.1187650    -0.3259700
  H       -2.6699130    -0.2765890     0.8297550
  H       -3.0608600    -0.3791320    -0.8796750
  H       -1.8321650    -2.3606500    -0.1255340
  H       -0.8887130    -1.5005570    -1.3409750
  H       -2.3834680     1.8827830    -0.2893500
  H       -1.2246060     1.2090190    -1.4238390
  H       -0.4244360    -1.0900460     1.6492300
  H        0.3620160    -2.3701320     0.7449650
  H       -0.7218730     1.1400510     1.5944380
  H       -0.2910430     2.5394790     0.6064930
  H        1.9486170    -1.7578730    -1.1825500
  H        2.6762910    -1.7288140     0.4434650
  H        2.8674440    -0.3269360    -0.6441440
units angstrom
no_reorient  #important for SAPT in psi4, default
symmetry c1  #important for SAPT in psi4, default
}

set PROPERTIES_ORIGIN ["COM"]
properties('MP2/aug-cc-pvtz', properties = ['dipole'])
--------------------------------------------------------------------------

    Molecular point group: c1
  Charge       = 0
  Multiplicity = 1
  Basis Set: AUG-CC-PVTZ
    Blend: AUG-CC-PVTZ
  Basis Set: (AUG-CC-PVTZ AUX)
    Blend: AUG-CC-PVTZ-JKFIT

    Orbital Energies [Eh]
    ---------------------

    Doubly Occupied:

       1A    -20.505351     2A    -15.580351     3A    -11.339479
       4A    -11.273098     5A    -11.250393     6A    -11.234790
       7A    -11.233390     8A    -11.233115     9A    -11.231760
      10A     -1.361397    11A     -1.239713    12A     -1.098725
      13A     -1.040126    14A     -0.975528    15A     -0.913534
      16A     -0.877538    17A     -0.793094    18A     -0.723906
      19A     -0.690506    20A     -0.668859    21A     -0.633055
      22A     -0.608856    23A     -0.601994    24A     -0.593506
      25A     -0.582574    26A     -0.559240    27A     -0.545066
      28A     -0.527493    29A     -0.509454    30A     -0.507855
      31A     -0.479401    32A     -0.468192    33A     -0.464824
      34A     -0.407072    35A     -0.365872

  @DF-RHF Final Energy:  -402.11142474313255

   => Energetics <=

    Nuclear Repulsion Energy =            486.3959219050326510
    One-Electron Energy =               -1510.7764814725969700
    Two-Electron Energy =                 622.2691348244318306
    Total Energy =                       -402.1114247431326021
  Basis Set: (AUG-CC-PVTZ AUX)
    Blend: AUG-CC-PVTZ-RI
    Molecular point group: c1

    Geometry (in Angstrom), charge = 0, multiplicity = 1:

       Center              X                  Y                   Z               Mass
    ------------   -----------------  -----------------  -----------------  -----------------
         O            1.731445958342     1.561272075501    -0.290091017116    15.994914619570
         N            0.948119958342    -0.531046924499     0.206876982884    14.003074004430
         C           -2.271214041658    -0.290063924499    -0.175486017116    12.000000000000
         C           -1.315567041658    -1.474149924499    -0.314256017116    12.000000000000
         C           -1.641459041658     1.085221075501    -0.394571017116    12.000000000000
         C           -0.142208041658    -1.415762324499     0.634109382884    12.000000000000
         C           -0.501012041658     1.421342075501     0.579265982884    12.000000000000
         C            0.828208958342     0.834042075501     0.141494982884    12.000000000000
         C            2.149351958342    -1.157798924499    -0.324939017116    12.000000000000
         H           -2.712447041658    -0.315622924499     0.830785982884     1.007825032230
         H           -3.103394041658    -0.418165924499    -0.878644017116     1.007825032230
         H           -1.874699041658    -2.399683924499    -0.124503017116     1.007825032230
         H           -0.931247041658    -1.539590924499    -1.339944017116     1.007825032230
         H           -2.426002041658     1.843749075501    -0.288319017116     1.007825032230
         H           -1.267140041658     1.169985075501    -1.422808017116     1.007825032230
         H           -0.466970041658    -1.129079924499     1.650260982884     1.007825032230
         H            0.319481958342    -2.409165924499     0.745995982884     1.007825032230
         H           -0.764407041658     1.101017075501     1.595468982884     1.007825032230
         H           -0.333577041658     2.500445075501     0.607523982884     1.007825032230
         H            1.906082958342    -1.796906924499    -1.181519017116     1.007825032230
         H            2.633756958342    -1.767847924499     0.444495982884     1.007825032230
         H            2.824909958342    -0.365969924499    -0.643113017116     1.007825032230

  Basis Set: AUG-CC-PVTZ
    Blend: AUG-CC-PVTZ
  Basis Set: (AUG-CC-PVTZ AUX)
    Blend: AUG-CC-PVTZ-JKFIT
	 Reference Energy          =    -402.1114247431325452 [Eh]
	 Singles Energy            =      -0.0000000000000000 [Eh]
	 Same-Spin Energy          =      -0.4218989540297973 [Eh]
	 Opposite-Spin Energy      =      -1.4053723689676005 [Eh]
	 Correlation Energy        =      -1.8272713229973978 [Eh]
	 Total Energy              =    -403.9386960661299213 [Eh]

	 ================> DF-SCS-MP2 Energies <==================
	-----------------------------------------------------------
	 SCS Same-Spin Scale       =       0.3333333333333333 [-]
	 SCS Opposite-Spin Scale   =       1.2000000000000000 [-]
	 SCS Same-Spin Energy      =      -0.1406329846765991 [Eh]
	 SCS Opposite-Spin Energy  =      -1.6864468427611206 [Eh]
	 SCS Correlation Energy    =      -1.8270798274377196 [Eh]
	 SCS Total Energy          =    -403.9385045705702737 [Eh]
	-----------------------------------------------------------

  Dipole Moment: [D]
     X:    -2.6095      Y:    -3.1165      Z:     0.7790     Total:     4.1387

*** Psi4 exiting successfully. Buy a developer a beer!
