                               Psi4 1.3.2 release

  ==> Input File <==

--------------------------------------------------------------------------
#psi4
#
memory 32 gb

molecule  {
0 1
  O        1.7226568     1.6680439    -0.2757523
  N        0.9906540    -0.4920130     0.2058460
  C       -2.2286800    -0.2510300    -0.1765170
  C       -1.2730330    -1.4351160    -0.3152870
  C       -1.5989250     1.1242550    -0.3956020
  C       -0.0841310    -1.3759550     0.6456410
  C       -0.4584780     1.4603760     0.5782350
  C        0.8707430     0.8730760     0.1404640
  C        2.1918860    -1.1187650    -0.3259700
  H       -2.6699130    -0.2765890     0.8297550
  H       -3.0608600    -0.3791320    -0.8796750
  H       -1.8321650    -2.3606500    -0.1255340
  H       -0.8887130    -1.5005570    -1.3409750
  H       -2.3834680     1.8827830    -0.2893500
  H       -1.2246060     1.2090190    -1.4238390
  H       -0.4244360    -1.0900460     1.6492300
  H        0.3620160    -2.3701320     0.7449650
  H       -0.7218730     1.1400510     1.5944380
  H       -0.2910430     2.5394790     0.6064930
  H        1.9486170    -1.7578730    -1.1825500
  H        2.6762910    -1.7288140     0.4434650
  H        2.8674440    -0.3269360    -0.6441440
units angstrom
no_reorient  #important for SAPT in psi4, default
symmetry c1  #important for SAPT in psi4, default
}

set PROPERTIES_ORIGIN ["COM"]
properties('MP2/aug-cc-pvtz', properties = ['dipole'])
--------------------------------------------------------------------------

    Molecular point group: c1
  Charge       = 0
  Multiplicity = 1
  Basis Set: AUG-CC-PVTZ
    Blend: AUG-CC-PVTZ
  Basis Set: (AUG-CC-PVTZ AUX)
    Blend: AUG-CC-PVTZ-JKFIT

    Orbital Energies [Eh]
    ---------------------

    Doubly Occupied:

       1A    -20.506736     2A    -15.584539     3A    -11.339892
       4A    -11.274149     5A    -11.254018     6A    -11.233889
       7A    -11.232482     8A    -11.230748     9A    -11.228992
      10A     -1.360902    11A     -1.245741    12A     -1.096606
      13A     -1.036898    14A     -0.976356    15A     -0.915382
      16A     -0.877783    17A     -0.791953    18A     -0.727137
      19A     -0.689458    20A     -0.668849    21A     -0.634423
      22A     -0.608770    23A     -0.601662    24A     -0.594019
      25A     -0.582690    26A     -0.559245    27A     -0.544602
      28A     -0.529562    29A     -0.510690    30A     -0.509169
      31A     -0.478841    32A     -0.465939    33A     -0.464351
      34A     -0.404687    35A     -0.368245

  @DF-RHF Final Energy:  -402.11064071301604

   => Energetics <=

    Nuclear Repulsion Energy =            486.0499759945057008
    One-Electron Energy =               -1510.0624232516015581
    Two-Electron Energy =                 621.9018065440797045
    Total Energy =                       -402.1106407130160960
  Basis Set: (AUG-CC-PVTZ AUX)
    Blend: AUG-CC-PVTZ-RI
    Molecular point group: c1

    Geometry (in Angstrom), charge = 0, multiplicity = 1:

       Center              X                  Y                   Z               Mass
    ------------   -----------------  -----------------  -----------------  -----------------
         O            1.685114069352     1.620412452405    -0.277841609260    15.994914619570
         N            0.953111269352    -0.539644447595     0.203756690740    14.003074004430
         C           -2.266222730648    -0.298661447595    -0.178606309260    12.000000000000
         C           -1.310575730648    -1.482747447595    -0.317376309260    12.000000000000
         C           -1.636467730648     1.076623552405    -0.397691309260    12.000000000000
         C           -0.121673730648    -1.423586447595     0.643551690740    12.000000000000
         C           -0.496020730648     1.412744552405     0.576145690740    12.000000000000
         C            0.833200269352     0.825444552405     0.138374690740    12.000000000000
         C            2.154343269352    -1.166396447595    -0.328059309260    12.000000000000
         H           -2.707455730648    -0.324220447595     0.827665690740     1.007825032230
         H           -3.098402730648    -0.426763447595    -0.881764309260     1.007825032230
         H           -1.869707730648    -2.408281447595    -0.127623309260     1.007825032230
         H           -0.926255730648    -1.548188447595    -1.343064309260     1.007825032230
         H           -2.421010730648     1.835151552405    -0.291439309260     1.007825032230
         H           -1.262148730648     1.161387552405    -1.425928309260     1.007825032230
         H           -0.461978730648    -1.137677447595     1.647140690740     1.007825032230
         H            0.324473269352    -2.417763447595     0.742875690740     1.007825032230
         H           -0.759415730648     1.092419552405     1.592348690740     1.007825032230
         H           -0.328585730648     2.491847552405     0.604403690740     1.007825032230
         H            1.911074269352    -1.805504447595    -1.184639309260     1.007825032230
         H            2.638748269352    -1.776445447595     0.441375690740     1.007825032230
         H            2.829901269352    -0.374567447595    -0.646233309260     1.007825032230

  Basis Set: AUG-CC-PVTZ
    Blend: AUG-CC-PVTZ
  Basis Set: (AUG-CC-PVTZ AUX)
    Blend: AUG-CC-PVTZ-JKFIT
	 Reference Energy          =    -402.1106407130160392 [Eh]
	 Singles Energy            =      -0.0000000000000000 [Eh]
	 Same-Spin Energy          =      -0.4216718581164089 [Eh]
	 Opposite-Spin Energy      =      -1.4052735328339996 [Eh]
	 Correlation Energy        =      -1.8269453909504085 [Eh]
	 Total Energy              =    -403.9375861039664528 [Eh]

	 ================> DF-SCS-MP2 Energies <==================
	-----------------------------------------------------------
	 SCS Same-Spin Scale       =       0.3333333333333333 [-]
	 SCS Opposite-Spin Scale   =       1.2000000000000000 [-]
	 SCS Same-Spin Energy      =      -0.1405572860388030 [Eh]
	 SCS Opposite-Spin Energy  =      -1.6863282394007995 [Eh]
	 SCS Correlation Energy    =      -1.8268855254396024 [Eh]
	 SCS Total Energy          =    -403.9375262384556322 [Eh]
	-----------------------------------------------------------

  Dipole Moment: [D]
     X:    -2.4216      Y:    -3.3017      Z:     0.7559     Total:     4.1638

*** Psi4 exiting successfully. Buy a developer a beer!
