                               Psi4 1.3.2 release

  ==> Input File <==

--------------------------------------------------------------------------
#psi4
#
memory 32 gb

molecule  {
0 1
  O        1.7739800     1.6003060    -0.2911220
  N        0.9906540    -0.4920130     0.2058460
  C       -2.2286800    -0.2510300    -0.1765170
  C       -1.2730330    -1.4351160    -0.3152870
  C       -1.5989250     1.1242550    -0.3956020
  C       -0.0841310    -1.3759550     0.6456410
  C       -0.4722146     1.4818679     0.5865344
  C        0.8707430     0.8730760     0.1404640
  C        2.1918860    -1.1187650    -0.3259700
  H       -2.6699130    -0.2765890     0.8297550
  H       -3.0608600    -0.3791320    -0.8796750
  H       -1.8321650    -2.3606500    -0.1255340
  H       -0.8887130    -1.5005570    -1.3409750
  H       -2.3834680     1.8827830    -0.2893500
  H       -1.2246060     1.2090190    -1.4238390
  H       -0.4244360    -1.0900460     1.6492300
  H        0.3620160    -2.3701320     0.7449650
  H       -0.7218730     1.1400510     1.5944380
  H       -0.2910430     2.5394790     0.6064930
  H        1.9486170    -1.7578730    -1.1825500
  H        2.6762910    -1.7288140     0.4434650
  H        2.8674440    -0.3269360    -0.6441440
units angstrom
no_reorient  #important for SAPT in psi4, default
symmetry c1  #important for SAPT in psi4, default
}

set PROPERTIES_ORIGIN ["COM"]
properties('MP2/aug-cc-pvtz', properties = ['dipole'])
--------------------------------------------------------------------------

    Molecular point group: c1
  Charge       = 0
  Multiplicity = 1
  Basis Set: AUG-CC-PVTZ
    Blend: AUG-CC-PVTZ
  Basis Set: (AUG-CC-PVTZ AUX)
    Blend: AUG-CC-PVTZ-JKFIT

    Orbital Energies [Eh]
    ---------------------

    Doubly Occupied:

       1A    -20.505505     2A    -15.580788     3A    -11.340374
       4A    -11.272265     5A    -11.250702     6A    -11.234220
       7A    -11.233375     8A    -11.233110     9A    -11.231718
      10A     -1.361157    11A     -1.240888    12A     -1.097150
      13A     -1.037116    14A     -0.974603    15A     -0.914654
      16A     -0.877145    17A     -0.792334    18A     -0.725747
      19A     -0.688381    20A     -0.668686    21A     -0.633036
      22A     -0.607944    23A     -0.602968    24A     -0.594558
      25A     -0.583671    26A     -0.559280    27A     -0.542758
      28A     -0.528349    29A     -0.510462    30A     -0.509203
      31A     -0.479565    32A     -0.469857    33A     -0.464914
      34A     -0.404771    35A     -0.365139

  @DF-RHF Final Energy:  -402.11177089544537

   => Energetics <=

    Nuclear Repulsion Energy =            485.8449674604958091
    One-Electron Energy =               -1509.6806909073238785
    Two-Electron Energy =                 621.7239525513826948
    Total Energy =                       -402.1117708954453747
  Basis Set: (AUG-CC-PVTZ AUX)
    Blend: AUG-CC-PVTZ-RI
    Molecular point group: c1

    Geometry (in Angstrom), charge = 0, multiplicity = 1:

       Center              X                  Y                   Z               Mass
    ------------   -----------------  -----------------  -----------------  -----------------
         O            1.731275408784     1.559169918136    -0.292060683231    15.994914619570
         N            0.947949408784    -0.533149081864     0.204907316769    14.003074004430
         C           -2.271384591216    -0.292166081864    -0.177455683231    12.000000000000
         C           -1.315737591216    -1.476252081864    -0.316225683231    12.000000000000
         C           -1.641629591216     1.083118918136    -0.396540683231    12.000000000000
         C           -0.126835591216    -1.417091081864     0.644702316769    12.000000000000
         C           -0.514919191216     1.440731818136     0.585595716769    12.000000000000
         C            0.828038408784     0.831939918136     0.139525316769    12.000000000000
         C            2.149181408784    -1.159901081864    -0.326908683231    12.000000000000
         H           -2.712617591216    -0.317725081864     0.828816316769     1.007825032230
         H           -3.103564591216    -0.420268081864    -0.880613683231     1.007825032230
         H           -1.874869591216    -2.401786081864    -0.126472683231     1.007825032230
         H           -0.931417591216    -1.541693081864    -1.341913683231     1.007825032230
         H           -2.426172591216     1.841646918136    -0.290288683231     1.007825032230
         H           -1.267310591216     1.167882918136    -1.424777683231     1.007825032230
         H           -0.467140591216    -1.131182081864     1.648291316769     1.007825032230
         H            0.319311408784    -2.411268081864     0.744026316769     1.007825032230
         H           -0.764577591216     1.098914918136     1.593499316769     1.007825032230
         H           -0.333747591216     2.498342918136     0.605554316769     1.007825032230
         H            1.905912408784    -1.799009081864    -1.183488683231     1.007825032230
         H            2.633586408784    -1.769950081864     0.442526316769     1.007825032230
         H            2.824739408784    -0.368072081864    -0.645082683231     1.007825032230

  Basis Set: AUG-CC-PVTZ
    Blend: AUG-CC-PVTZ
  Basis Set: (AUG-CC-PVTZ AUX)
    Blend: AUG-CC-PVTZ-JKFIT
	 Reference Energy          =    -402.1117708954453747 [Eh]
	 Singles Energy            =      -0.0000000000000000 [Eh]
	 Same-Spin Energy          =      -0.4215776633581406 [Eh]
	 Opposite-Spin Energy      =      -1.4049797488960323 [Eh]
	 Correlation Energy        =      -1.8265574122541728 [Eh]
	 Total Energy              =    -403.9383283076995212 [Eh]

	 ================> DF-SCS-MP2 Energies <==================
	-----------------------------------------------------------
	 SCS Same-Spin Scale       =       0.3333333333333333 [-]
	 SCS Opposite-Spin Scale   =       1.2000000000000000 [-]
	 SCS Same-Spin Energy      =      -0.1405258877860469 [Eh]
	 SCS Opposite-Spin Energy  =      -1.6859756986752388 [Eh]
	 SCS Correlation Energy    =      -1.8265015864612857 [Eh]
	 SCS Total Energy          =    -403.9382724819066652 [Eh]
	-----------------------------------------------------------

  Dipole Moment: [D]
     X:    -2.5631      Y:    -3.1087      Z:     0.7913     Total:     4.1061

*** Psi4 exiting successfully. Buy a developer a beer!
