                               Psi4 1.4a3.dev225

  ==> Input File <==

--------------------------------------------------------------------------
#psi4
#
memory 32 gb

molecule  {
0 1
  O        1.7739800     1.6003060    -0.2911220
  N        0.9906540    -0.4920130     0.2058460
  C       -2.2286800    -0.2510300    -0.1765170
  C       -1.2417604    -1.4738640    -0.3198281
  C       -1.5989250     1.1242550    -0.3956020
  C       -0.0841310    -1.3759550     0.6456410
  C       -0.4584780     1.4603760     0.5782350
  C        0.8707430     0.8730760     0.1404640
  C        2.1918860    -1.1187650    -0.3259700
  H       -2.6699130    -0.2765890     0.8297550
  H       -3.0608600    -0.3791320    -0.8796750
  H       -1.8321650    -2.3606500    -0.1255340
  H       -0.8887130    -1.5005570    -1.3409750
  H       -2.3834680     1.8827830    -0.2893500
  H       -1.2246060     1.2090190    -1.4238390
  H       -0.4244360    -1.0900460     1.6492300
  H        0.3620160    -2.3701320     0.7449650
  H       -0.7218730     1.1400510     1.5944380
  H       -0.2910430     2.5394790     0.6064930
  H        1.9486170    -1.7578730    -1.1825500
  H        2.6762910    -1.7288140     0.4434650
  H        2.8674440    -0.3269360    -0.6441440
units angstrom
no_reorient  #important for SAPT in psi4, default
symmetry c1  #important for SAPT in psi4, default
}

set PROPERTIES_ORIGIN ["COM"]
properties('MP2/aug-cc-pvtz', properties = ['dipole'])
--------------------------------------------------------------------------

    Molecular point group: c1
  Charge       = 0
  Multiplicity = 1
  Basis Set: AUG-CC-PVTZ
    Blend: AUG-CC-PVTZ
  Basis Set: (AUG-CC-PVTZ AUX)
    Blend: AUG-CC-PVTZ-JKFIT

    Orbital Energies [Eh]
    ---------------------

    Doubly Occupied:

       1A    -20.505742     2A    -15.580867     3A    -11.339978
       4A    -11.271411     5A    -11.250650     6A    -11.234443
       7A    -11.233289     8A    -11.233062     9A    -11.231979
      10A     -1.361910    11A     -1.241615    12A     -1.093615
      13A     -1.039185    14A     -0.974970    15A     -0.913027
      16A     -0.877884    17A     -0.793578    18A     -0.726032
      19A     -0.690549    20A     -0.668469    21A     -0.634180
      22A     -0.605835    23A     -0.601792    24A     -0.593115
      25A     -0.583906    26A     -0.560748    27A     -0.544411
      28A     -0.529011    29A     -0.512510    30A     -0.508249
      31A     -0.481018    32A     -0.469241    33A     -0.454672
      34A     -0.407467    35A     -0.366535

  @DF-RHF Final Energy:  -402.11022186470501

   => Energetics <=

    Nuclear Repulsion Energy =            485.9873756175013000
    One-Electron Energy =               -1509.9653036227227858
    Two-Electron Energy =                 621.8677061405163613
    Total Energy =                       -402.1102218647050677
  Basis Set: (AUG-CC-PVTZ AUX)
    Blend: AUG-CC-PVTZ-RI
    Molecular point group: c1

    Geometry (in Angstrom), charge = 0, multiplicity = 1:

       Center              X                  Y                   Z               Mass
    ------------   -----------------  -----------------  -----------------  -----------------
         O            1.727025907485     1.564857411656    -0.290848359496    15.994914619570
         N            0.943699907485    -0.527461588344     0.206119640504    14.003074004430
         C           -2.275634092515    -0.286478588344    -0.176243359496    12.000000000000
         C           -1.288714492515    -1.509312588344    -0.319554459496    12.000000000000
         C           -1.645879092515     1.088806411656    -0.395328359496    12.000000000000
         C           -0.131085092515    -1.411403588344     0.645914640504    12.000000000000
         C           -0.505432092515     1.424927411656     0.578508640504    12.000000000000
         C            0.823788907485     0.837627411656     0.140737640504    12.000000000000
         C            2.144931907485    -1.154213588344    -0.325696359496    12.000000000000
         H           -2.716867092515    -0.312037588344     0.830028640504     1.007825032230
         H           -3.107814092515    -0.414580588344    -0.879401359496     1.007825032230
         H           -1.879119092515    -2.396098588344    -0.125260359496     1.007825032230
         H           -0.935667092515    -1.536005588344    -1.340701359496     1.007825032230
         H           -2.430422092515     1.847334411656    -0.289076359496     1.007825032230
         H           -1.271560092515     1.173570411656    -1.423565359496     1.007825032230
         H           -0.471390092515    -1.125494588344     1.649503640504     1.007825032230
         H            0.315061907485    -2.405580588344     0.745238640504     1.007825032230
         H           -0.768827092515     1.104602411656     1.594711640504     1.007825032230
         H           -0.337997092515     2.504030411656     0.606766640504     1.007825032230
         H            1.901662907485    -1.793321588344    -1.182276359496     1.007825032230
         H            2.629336907485    -1.764262588344     0.443738640504     1.007825032230
         H            2.820489907485    -0.362384588344    -0.643870359496     1.007825032230

  Basis Set: AUG-CC-PVTZ
    Blend: AUG-CC-PVTZ
  Basis Set: (AUG-CC-PVTZ AUX)
    Blend: AUG-CC-PVTZ-JKFIT
	 Reference Energy          =    -402.1102218647050108 [Eh]
	 Singles Energy            =      -0.0000000000000000 [Eh]
	 Same-Spin Energy          =      -0.4216425018575454 [Eh]
	 Opposite-Spin Energy      =      -1.4051530986813709 [Eh]
	 Correlation Energy        =      -1.8267956005389163 [Eh]
	 Total Energy              =    -403.9370174652439118 [Eh]

	 ================> DF-SCS-MP2 Energies <==================
	-----------------------------------------------------------
	 SCS Same-Spin Scale       =       0.3333333333333333 [-]
	 SCS Opposite-Spin Scale   =       1.2000000000000000 [-]
	 SCS Same-Spin Energy      =      -0.1405475006191818 [Eh]
	 SCS Opposite-Spin Energy  =      -1.6861837184176451 [Eh]
	 SCS Correlation Energy    =      -1.8267312190368270 [Eh]
	 SCS Total Energy          =    -403.9369530837418552 [Eh]
	-----------------------------------------------------------

  Dipole Moment: [D]
     X:    -2.5737      Y:    -3.1134      Z:     0.7879     Total:     4.1156

*** Psi4 exiting successfully. Buy a developer a beer!
