                               Psi4 1.3.2 release

  ==> Input File <==

--------------------------------------------------------------------------
#psi4
#
memory 32 gb

molecule  {
0 1
  O        1.7739800     1.6003060    -0.2911220
  N        0.9906540    -0.4920130     0.2058460
  C       -2.2286800    -0.2510300    -0.1765170
  C       -1.3125579    -1.4738017    -0.1652226
  C       -1.5989250     1.1242550    -0.3956020
  C       -0.0841310    -1.3759550     0.6456410
  C       -0.4584780     1.4603760     0.5782350
  C        0.8707430     0.8730760     0.1404640
  C        2.1918860    -1.1187650    -0.3259700
  H       -2.6699130    -0.2765890     0.8297550
  H       -3.0608600    -0.3791320    -0.8796750
  H       -1.8321650    -2.3606500    -0.1255340
  H       -0.8887130    -1.5005570    -1.3409750
  H       -2.3834680     1.8827830    -0.2893500
  H       -1.2246060     1.2090190    -1.4238390
  H       -0.4244360    -1.0900460     1.6492300
  H        0.3620160    -2.3701320     0.7449650
  H       -0.7218730     1.1400510     1.5944380
  H       -0.2910430     2.5394790     0.6064930
  H        1.9486170    -1.7578730    -1.1825500
  H        2.6762910    -1.7288140     0.4434650
  H        2.8674440    -0.3269360    -0.6441440
units angstrom
no_reorient  #important for SAPT in psi4, default
symmetry c1  #important for SAPT in psi4, default
}

set PROPERTIES_ORIGIN ["COM"]
properties('MP2/aug-cc-pvtz', properties = ['dipole'])
--------------------------------------------------------------------------

    Molecular point group: c1
  Charge       = 0
  Multiplicity = 1
  Basis Set: AUG-CC-PVTZ
    Blend: AUG-CC-PVTZ
  Basis Set: (AUG-CC-PVTZ AUX)
    Blend: AUG-CC-PVTZ-JKFIT

    Orbital Energies [Eh]
    ---------------------

    Doubly Occupied:

       1A    -20.507033     2A    -15.583516     3A    -11.341337
       4A    -11.272437     5A    -11.251138     6A    -11.240143
       7A    -11.236989     8A    -11.234591     9A    -11.233482
      10A     -1.363077    11A     -1.243058    12A     -1.100620
      13A     -1.045723    14A     -0.978412    15A     -0.916850
      16A     -0.879895    17A     -0.790520    18A     -0.727551
      19A     -0.692605    20A     -0.675337    21A     -0.635855
      22A     -0.610972    23A     -0.599200    24A     -0.596397
      25A     -0.588756    26A     -0.562887    27A     -0.548124
      28A     -0.531754    29A     -0.513854    30A     -0.498153
      31A     -0.477862    32A     -0.471988    33A     -0.438779
      34A     -0.408762    35A     -0.368983

  @DF-RHF Final Energy:  -402.08704173331603

   => Energetics <=

    Nuclear Repulsion Energy =            486.2560906952060691
    One-Electron Energy =               -1510.3529879230666211
    Two-Electron Energy =                 622.0098554945445812
    Total Energy =                       -402.0870417333160276
  Basis Set: (AUG-CC-PVTZ AUX)
    Blend: AUG-CC-PVTZ-RI
    Molecular point group: c1

    Geometry (in Angstrom), charge = 0, multiplicity = 1:

       Center              X                  Y                   Z               Mass
    ------------   -----------------  -----------------  -----------------  -----------------
         O            1.733710186882     1.564851529660    -0.305445292416    15.994914619570
         N            0.950384186882    -0.527467470340     0.191522707584    14.003074004430
         C           -2.268949813118    -0.286484470340    -0.190840292416    12.000000000000
         C           -1.352827713118    -1.509256170340    -0.179545892416    12.000000000000
         C           -1.639194813118     1.088800529660    -0.409925292416    12.000000000000
         C           -0.124400813118    -1.411409470340     0.631317707584    12.000000000000
         C           -0.498747813118     1.424921529660     0.563911707584    12.000000000000
         C            0.830473186882     0.837621529660     0.126140707584    12.000000000000
         C            2.151616186882    -1.154219470340    -0.340293292416    12.000000000000
         H           -2.710182813118    -0.312043470340     0.815431707584     1.007825032230
         H           -3.101129813118    -0.414586470340    -0.893998292416     1.007825032230
         H           -1.872434813118    -2.396104470340    -0.139857292416     1.007825032230
         H           -0.928982813118    -1.536011470340    -1.355298292416     1.007825032230
         H           -2.423737813118     1.847328529660    -0.303673292416     1.007825032230
         H           -1.264875813118     1.173564529660    -1.438162292416     1.007825032230
         H           -0.464705813118    -1.125500470340     1.634906707584     1.007825032230
         H            0.321746186882    -2.405586470340     0.730641707584     1.007825032230
         H           -0.762142813118     1.104596529660     1.580114707584     1.007825032230
         H           -0.331312813118     2.504024529660     0.592169707584     1.007825032230
         H            1.908347186882    -1.793327470340    -1.196873292416     1.007825032230
         H            2.636021186882    -1.764268470340     0.429141707584     1.007825032230
         H            2.827174186882    -0.362390470340    -0.658467292416     1.007825032230

  Basis Set: AUG-CC-PVTZ
    Blend: AUG-CC-PVTZ
  Basis Set: (AUG-CC-PVTZ AUX)
    Blend: AUG-CC-PVTZ-JKFIT
	 Reference Energy          =    -402.0870417333160276 [Eh]
	 Singles Energy            =      -0.0000000000000000 [Eh]
	 Same-Spin Energy          =      -0.4226240224335390 [Eh]
	 Opposite-Spin Energy      =      -1.4068074327487468 [Eh]
	 Correlation Energy        =      -1.8294314551822857 [Eh]
	 Total Energy              =    -403.9164731884982871 [Eh]

	 ================> DF-SCS-MP2 Energies <==================
	-----------------------------------------------------------
	 SCS Same-Spin Scale       =       0.3333333333333333 [-]
	 SCS Opposite-Spin Scale   =       1.2000000000000000 [-]
	 SCS Same-Spin Energy      =      -0.1408746741445130 [Eh]
	 SCS Opposite-Spin Energy  =      -1.6881689192984961 [Eh]
	 SCS Correlation Energy    =      -1.8290435934430092 [Eh]
	 SCS Total Energy          =    -403.9160853267590596 [Eh]
	-----------------------------------------------------------

  Dipole Moment: [D]
     X:    -2.6088      Y:    -3.0645      Z:     0.8583     Total:     4.1150

*** Psi4 exiting successfully. Buy a developer a beer!
