                               Psi4 1.3.2 release

  ==> Input File <==

--------------------------------------------------------------------------
#psi4
#
memory 32 gb

molecule  {
0 1
  O        1.7739800     1.6003060    -0.2911220
  N        0.9906540    -0.4920130     0.2058460
  C       -2.2286800    -0.2510300    -0.1765170
  C       -1.2730330    -1.4351160    -0.3152870
  C       -1.6648339     1.1796803    -0.3316390
  C       -0.0841310    -1.3759550     0.6456410
  C       -0.4584780     1.4603760     0.5782350
  C        0.8707430     0.8730760     0.1404640
  C        2.1918860    -1.1187650    -0.3259700
  H       -2.6699130    -0.2765890     0.8297550
  H       -3.0608600    -0.3791320    -0.8796750
  H       -1.8321650    -2.3606500    -0.1255340
  H       -0.8887130    -1.5005570    -1.3409750
  H       -2.3834680     1.8827830    -0.2893500
  H       -1.2246060     1.2090190    -1.4238390
  H       -0.4244360    -1.0900460     1.6492300
  H        0.3620160    -2.3701320     0.7449650
  H       -0.7218730     1.1400510     1.5944380
  H       -0.2910430     2.5394790     0.6064930
  H        1.9486170    -1.7578730    -1.1825500
  H        2.6762910    -1.7288140     0.4434650
  H        2.8674440    -0.3269360    -0.6441440
units angstrom
no_reorient  #important for SAPT in psi4, default
symmetry c1  #important for SAPT in psi4, default
}

set PROPERTIES_ORIGIN ["COM"]
properties('MP2/aug-cc-pvtz', properties = ['dipole'])
--------------------------------------------------------------------------

    Molecular point group: c1
  Charge       = 0
  Multiplicity = 1
  Basis Set: AUG-CC-PVTZ
    Blend: AUG-CC-PVTZ
  Basis Set: (AUG-CC-PVTZ AUX)
    Blend: AUG-CC-PVTZ-JKFIT

    Orbital Energies [Eh]
    ---------------------

    Doubly Occupied:

       1A    -20.506995     2A    -15.581388     3A    -11.342180
       4A    -11.272652     5A    -11.250986     6A    -11.235477
       7A    -11.235399     8A    -11.233913     9A    -11.232303
      10A     -1.362752    11A     -1.241717    12A     -1.095599
      13A     -1.038870    14A     -0.975784    15A     -0.914797
      16A     -0.881887    17A     -0.792673    18A     -0.725787
      19A     -0.690119    20A     -0.670918    21A     -0.632702
      22A     -0.613538    23A     -0.600682    24A     -0.598360
      25A     -0.584872    26A     -0.558314    27A     -0.547650
      28A     -0.525696    29A     -0.510507    30A     -0.504941
      31A     -0.481435    32A     -0.463223    33A     -0.457880
      34A     -0.409695    35A     -0.365524

  @DF-RHF Final Energy:  -402.09877403235811

   => Energetics <=

    Nuclear Repulsion Energy =            485.3601978816082010
    One-Electron Energy =               -1508.6435107589688869
    Two-Electron Energy =                 621.1845388450026348
    Total Energy =                       -402.0987740323580510
  Basis Set: (AUG-CC-PVTZ AUX)
    Blend: AUG-CC-PVTZ-RI
    Molecular point group: c1

    Geometry (in Angstrom), charge = 0, multiplicity = 1:

       Center              X                  Y                   Z               Mass
    ------------   -----------------  -----------------  -----------------  -----------------
         O            1.736201207436     1.555966128080    -0.297316109689    15.994914619570
         N            0.952875207436    -0.536352871920     0.199651890311    14.003074004430
         C           -2.266458792564    -0.295369871920    -0.182711109689    12.000000000000
         C           -1.310811792564    -1.479455871920    -0.321481109689    12.000000000000
         C           -1.702612692564     1.135340428080    -0.337833109689    12.000000000000
         C           -0.121909792564    -1.420294871920     0.639446890311    12.000000000000
         C           -0.496256792564     1.416036128080     0.572040890311    12.000000000000
         C            0.832964207436     0.828736128080     0.134269890311    12.000000000000
         C            2.154107207436    -1.163104871920    -0.332164109689    12.000000000000
         H           -2.707691792564    -0.320928871920     0.823560890311     1.007825032230
         H           -3.098638792564    -0.423471871920    -0.885869109689     1.007825032230
         H           -1.869943792564    -2.404989871920    -0.131728109689     1.007825032230
         H           -0.926491792564    -1.544896871920    -1.347169109689     1.007825032230
         H           -2.421246792564     1.838443128080    -0.295544109689     1.007825032230
         H           -1.262384792564     1.164679128080    -1.430033109689     1.007825032230
         H           -0.462214792564    -1.134385871920     1.643035890311     1.007825032230
         H            0.324237207436    -2.414471871920     0.738770890311     1.007825032230
         H           -0.759651792564     1.095711128080     1.588243890311     1.007825032230
         H           -0.328821792564     2.495139128080     0.600298890311     1.007825032230
         H            1.910838207436    -1.802212871920    -1.188744109689     1.007825032230
         H            2.638512207436    -1.773153871920     0.437270890311     1.007825032230
         H            2.829665207436    -0.371275871920    -0.650338109689     1.007825032230

  Basis Set: AUG-CC-PVTZ
    Blend: AUG-CC-PVTZ
  Basis Set: (AUG-CC-PVTZ AUX)
    Blend: AUG-CC-PVTZ-JKFIT
	 Reference Energy          =    -402.0987740323581079 [Eh]
	 Singles Energy            =      -0.0000000000000000 [Eh]
	 Same-Spin Energy          =      -0.4218598326723247 [Eh]
	 Opposite-Spin Energy      =      -1.4057998793769062 [Eh]
	 Correlation Energy        =      -1.8276597120492308 [Eh]
	 Total Energy              =    -403.9264337444073476 [Eh]

	 ================> DF-SCS-MP2 Energies <==================
	-----------------------------------------------------------
	 SCS Same-Spin Scale       =       0.3333333333333333 [-]
	 SCS Opposite-Spin Scale   =       1.2000000000000000 [-]
	 SCS Same-Spin Energy      =      -0.1406199442241082 [Eh]
	 SCS Opposite-Spin Energy  =      -1.6869598552522873 [Eh]
	 SCS Correlation Energy    =      -1.8275797994763956 [Eh]
	 SCS Total Energy          =    -403.9263538318344899 [Eh]
	-----------------------------------------------------------

  Dipole Moment: [D]
     X:    -2.5694      Y:    -3.1162      Z:     0.8223     Total:     4.1217

*** Psi4 exiting successfully. Buy a developer a beer!
