                               Psi4 1.3.2 release

  ==> Input File <==

--------------------------------------------------------------------------
#psi4
#
memory 32 gb

molecule  {
0 1
  O        1.7739800     1.6003060    -0.2911220
  N        0.9906540    -0.4920130     0.2058460
  C       -2.2286800    -0.2510300    -0.1765170
  C       -1.2730330    -1.4351160    -0.3152870
  C       -1.5989250     1.1242550    -0.3956020
  C       -0.0841310    -1.3759550     0.6456410
  C       -0.4584780     1.4603760     0.5782350
  C        0.7431431     0.8573786     0.2044388
  C        2.1918860    -1.1187650    -0.3259700
  H       -2.6699130    -0.2765890     0.8297550
  H       -3.0608600    -0.3791320    -0.8796750
  H       -1.8321650    -2.3606500    -0.1255340
  H       -0.8887130    -1.5005570    -1.3409750
  H       -2.3834680     1.8827830    -0.2893500
  H       -1.2246060     1.2090190    -1.4238390
  H       -0.4244360    -1.0900460     1.6492300
  H        0.3620160    -2.3701320     0.7449650
  H       -0.7218730     1.1400510     1.5944380
  H       -0.2910430     2.5394790     0.6064930
  H        1.9486170    -1.7578730    -1.1825500
  H        2.6762910    -1.7288140     0.4434650
  H        2.8674440    -0.3269360    -0.6441440
units angstrom
no_reorient  #important for SAPT in psi4, default
symmetry c1  #important for SAPT in psi4, default
}

set PROPERTIES_ORIGIN ["COM"]
properties('MP2/aug-cc-pvtz', properties = ['dipole'])
--------------------------------------------------------------------------

    Molecular point group: c1
  Charge       = 0
  Multiplicity = 1
  Basis Set: AUG-CC-PVTZ
    Blend: AUG-CC-PVTZ
  Basis Set: (AUG-CC-PVTZ AUX)
    Blend: AUG-CC-PVTZ-JKFIT

    Orbital Energies [Eh]
    ---------------------

    Doubly Occupied:

       1A    -20.487010     2A    -15.591784     3A    -11.347096
       4A    -11.272624     5A    -11.254965     6A    -11.243043
       7A    -11.237494     8A    -11.237062     9A    -11.236426
      10A     -1.312352    11A     -1.217191    12A     -1.110526
      13A     -1.053589    14A     -0.986553    15A     -0.920548
      16A     -0.889856    17A     -0.799758    18A     -0.729785
      19A     -0.698588    20A     -0.670701    21A     -0.633405
      22A     -0.616394    23A     -0.602110    24A     -0.596220
      25A     -0.579096    26A     -0.558278    27A     -0.550546
      28A     -0.525227    29A     -0.502681    30A     -0.491670
      31A     -0.484157    32A     -0.474609    33A     -0.447506
      34A     -0.397508    35A     -0.355960

  @DF-RHF Final Energy:  -402.07196921405188

   => Energetics <=

    Nuclear Repulsion Energy =            486.4566750432458662
    One-Electron Energy =               -1510.8326521226388195
    Two-Electron Energy =                 622.3040078653409637
    Total Energy =                       -402.0719692140519328
  Basis Set: (AUG-CC-PVTZ AUX)
    Blend: AUG-CC-PVTZ-RI
    Molecular point group: c1

    Geometry (in Angstrom), charge = 0, multiplicity = 1:

       Center              X                  Y                   Z               Mass
    ------------   -----------------  -----------------  -----------------  -----------------
         O            1.742025705198     1.562681110930    -0.297317223775    15.994914619570
         N            0.958699705198    -0.529637889070     0.199650776225    14.003074004430
         C           -2.260634294802    -0.288654889070    -0.182712223775    12.000000000000
         C           -1.304987294802    -1.472740889070    -0.321482223775    12.000000000000
         C           -1.630879294802     1.086630110930    -0.401797223775    12.000000000000
         C           -0.116085294802    -1.413579889070     0.639445776225    12.000000000000
         C           -0.490432294802     1.422751110930     0.572039776225    12.000000000000
         C            0.711188805198     0.819753710930     0.198243576225    12.000000000000
         C            2.159931705198    -1.156389889070    -0.332165223775    12.000000000000
         H           -2.701867294802    -0.314213889070     0.823559776225     1.007825032230
         H           -3.092814294802    -0.416756889070    -0.885870223775     1.007825032230
         H           -1.864119294802    -2.398274889070    -0.131729223775     1.007825032230
         H           -0.920667294802    -1.538181889070    -1.347170223775     1.007825032230
         H           -2.415422294802     1.845158110930    -0.295545223775     1.007825032230
         H           -1.256560294802     1.171394110930    -1.430034223775     1.007825032230
         H           -0.456390294802    -1.127670889070     1.643034776225     1.007825032230
         H            0.330061705198    -2.407756889070     0.738769776225     1.007825032230
         H           -0.753827294802     1.102426110930     1.588242776225     1.007825032230
         H           -0.322997294802     2.501854110930     0.600297776225     1.007825032230
         H            1.916662705198    -1.795497889070    -1.188745223775     1.007825032230
         H            2.644336705198    -1.766438889070     0.437269776225     1.007825032230
         H            2.835489705198    -0.364560889070    -0.650339223775     1.007825032230

  Basis Set: AUG-CC-PVTZ
    Blend: AUG-CC-PVTZ
  Basis Set: (AUG-CC-PVTZ AUX)
    Blend: AUG-CC-PVTZ-JKFIT
	 Reference Energy          =    -402.0719692140518760 [Eh]
	 Singles Energy            =      -0.0000000000000000 [Eh]
	 Same-Spin Energy          =      -0.4258304842654516 [Eh]
	 Opposite-Spin Energy      =      -1.4126681843165345 [Eh]
	 Correlation Energy        =      -1.8384986685819862 [Eh]
	 Total Energy              =    -403.9104678826338386 [Eh]

	 ================> DF-SCS-MP2 Energies <==================
	-----------------------------------------------------------
	 SCS Same-Spin Scale       =       0.3333333333333333 [-]
	 SCS Opposite-Spin Scale   =       1.2000000000000000 [-]
	 SCS Same-Spin Energy      =      -0.1419434947551505 [Eh]
	 SCS Opposite-Spin Energy  =      -1.6952018211798414 [Eh]
	 SCS Correlation Energy    =      -1.8371453159349920 [Eh]
	 SCS Total Energy          =    -403.9091145299868799 [Eh]
	-----------------------------------------------------------

  Dipole Moment: [D]
     X:    -3.1565      Y:    -3.4405      Z:     0.9643     Total:     4.7676

*** Psi4 exiting successfully. Buy a developer a beer!
