                               Psi4 1.4a3.dev225

  ==> Input File <==

--------------------------------------------------------------------------
#psi4
#
memory 32 gb

molecule  {
0 1
  O        1.7739800     1.6003060    -0.2911220
  N        0.9906540    -0.4920130     0.2058460
  C       -2.2286800    -0.2510300    -0.1765170
  C       -1.2730330    -1.4351160    -0.3152870
  C       -1.5989250     1.1242550    -0.3956020
  C       -0.0841310    -1.3759550     0.6456410
  C       -0.4584780     1.4603760     0.5782350
  C        0.8707430     0.8730760     0.1404640
  C        2.1918860    -1.1187650    -0.3259700
  H       -2.6699130    -0.2765890     0.8297550
  H       -3.0608600    -0.3791320    -0.8796750
  H       -1.8321650    -2.3606500    -0.1255340
  H       -0.8887130    -1.5005570    -1.3409750
  H       -2.3834680     1.8827830    -0.2893500
  H       -1.2246060     1.2090190    -1.4238390
  H       -0.4244360    -1.0900460     1.6492300
  H        0.3620160    -2.3701320     0.7449650
  H       -0.7170734     1.1458880     1.5759206
  H       -0.2910430     2.5394790     0.6064930
  H        1.9486170    -1.7578730    -1.1825500
  H        2.6762910    -1.7288140     0.4434650
  H        2.8674440    -0.3269360    -0.6441440
units angstrom
no_reorient  #important for SAPT in psi4, default
symmetry c1  #important for SAPT in psi4, default
}

set PROPERTIES_ORIGIN ["COM"]
properties('MP2/aug-cc-pvtz', properties = ['dipole'])
--------------------------------------------------------------------------

    Molecular point group: c1
  Charge       = 0
  Multiplicity = 1
  Basis Set: AUG-CC-PVTZ
    Blend: AUG-CC-PVTZ
  Basis Set: (AUG-CC-PVTZ AUX)
    Blend: AUG-CC-PVTZ-JKFIT

    Orbital Energies [Eh]
    ---------------------

    Doubly Occupied:

       1A    -20.505545     2A    -15.580540     3A    -11.339730
       4A    -11.272297     5A    -11.250566     6A    -11.234408
       7A    -11.233396     8A    -11.231491     9A    -11.231130
      10A     -1.361718    11A     -1.241175    12A     -1.097781
      13A     -1.038684    14A     -0.975775    15A     -0.914208
      16A     -0.878481    17A     -0.792860    18A     -0.725548
      19A     -0.691667    20A     -0.668886    21A     -0.633277
      22A     -0.608783    23A     -0.602426    24A     -0.594423
      25A     -0.583110    26A     -0.558814    27A     -0.544331
      28A     -0.527040    29A     -0.510541    30A     -0.509370
      31A     -0.479419    32A     -0.467287    33A     -0.465551
      34A     -0.407413    35A     -0.365072

  @DF-RHF Final Energy:  -402.11217010397439

   => Energetics <=

    Nuclear Repulsion Energy =            486.3985874700504155
    One-Electron Energy =               -1510.7760291681272520
    Two-Electron Energy =                 622.2652715941023871
    Total Energy =                       -402.1121701039744494
  Basis Set: (AUG-CC-PVTZ AUX)
    Blend: AUG-CC-PVTZ-RI
    Molecular point group: c1

    Geometry (in Angstrom), charge = 0, multiplicity = 1:

       Center              X                  Y                   Z               Mass
    ------------   -----------------  -----------------  -----------------  -----------------
         O            1.729940422641     1.561152771734    -0.291130271230    15.994914619570
         N            0.946614422641    -0.531166228266     0.205837728770    14.003074004430
         C           -2.272719577359    -0.290183228266    -0.176525271230    12.000000000000
         C           -1.317072577359    -1.474269228266    -0.315295271230    12.000000000000
         C           -1.642964577359     1.085101771734    -0.395610271230    12.000000000000
         C           -0.128170577359    -1.415108228266     0.645632728770    12.000000000000
         C           -0.502517577359     1.421222771734     0.578226728770    12.000000000000
         C            0.826703422641     0.833922771734     0.140455728770    12.000000000000
         C            2.147846422641    -1.157918228266    -0.325978271230    12.000000000000
         H           -2.713952577359    -0.315742228266     0.829746728770     1.007825032230
         H           -3.104899577359    -0.418285228266    -0.879683271230     1.007825032230
         H           -1.876204577359    -2.399803228266    -0.125542271230     1.007825032230
         H           -0.932752577359    -1.539710228266    -1.340983271230     1.007825032230
         H           -2.427507577359     1.843629771734    -0.289358271230     1.007825032230
         H           -1.268645577359     1.169865771734    -1.423847271230     1.007825032230
         H           -0.468475577359    -1.129199228266     1.649221728770     1.007825032230
         H            0.317976422641    -2.409285228266     0.744956728770     1.007825032230
         H           -0.761112977359     1.106734771734     1.575912328770     1.007825032230
         H           -0.335082577359     2.500325771734     0.606484728770     1.007825032230
         H            1.904577422641    -1.797026228266    -1.182558271230     1.007825032230
         H            2.632251422641    -1.767967228266     0.443456728770     1.007825032230
         H            2.823404422641    -0.366089228266    -0.644152271230     1.007825032230

  Basis Set: AUG-CC-PVTZ
    Blend: AUG-CC-PVTZ
  Basis Set: (AUG-CC-PVTZ AUX)
    Blend: AUG-CC-PVTZ-JKFIT
	 Reference Energy          =    -402.1121701039743925 [Eh]
	 Singles Energy            =      -0.0000000000000000 [Eh]
	 Same-Spin Energy          =      -0.4217481802094152 [Eh]
	 Opposite-Spin Energy      =      -1.4050595136851558 [Eh]
	 Correlation Energy        =      -1.8268076938945710 [Eh]
	 Total Energy              =    -403.9389777978689722 [Eh]

	 ================> DF-SCS-MP2 Energies <==================
	-----------------------------------------------------------
	 SCS Same-Spin Scale       =       0.3333333333333333 [-]
	 SCS Opposite-Spin Scale   =       1.2000000000000000 [-]
	 SCS Same-Spin Energy      =      -0.1405827267364717 [Eh]
	 SCS Opposite-Spin Energy  =      -1.6860714164221868 [Eh]
	 SCS Correlation Energy    =      -1.8266541431586585 [Eh]
	 SCS Total Energy          =    -403.9388242471330273 [Eh]
	-----------------------------------------------------------

  Dipole Moment: [D]
     X:    -2.5826      Y:    -3.1045      Z:     0.8036     Total:     4.1174

*** Psi4 exiting successfully. Buy a developer a beer!
