                               Psi4 1.3.2 release

  ==> Input File <==

--------------------------------------------------------------------------
#psi4
#
memory 32 gb

molecule  {
0 1
  O        1.7739800     1.6003060    -0.2911220
  N        0.9906540    -0.4920130     0.2058460
  C       -2.2118294    -0.2552629    -0.1562758
  C       -1.2730330    -1.4351160    -0.3152870
  C       -1.5989250     1.1242550    -0.3956020
  C       -0.0841310    -1.3759550     0.6456410
  C       -0.4584780     1.4603760     0.5782350
  C        0.8707430     0.8730760     0.1404640
  C        2.1918860    -1.1187650    -0.3259700
  H       -2.6699130    -0.2765890     0.8297550
  H       -3.0608600    -0.3791320    -0.8796750
  H       -1.8321650    -2.3606500    -0.1255340
  H       -0.8887130    -1.5005570    -1.3409750
  H       -2.3834680     1.8827830    -0.2893500
  H       -1.2246060     1.2090190    -1.4238390
  H       -0.4244360    -1.0900460     1.6492300
  H        0.3620160    -2.3701320     0.7449650
  H       -0.7218730     1.1400510     1.5944380
  H       -0.2910430     2.5394790     0.6064930
  H        1.9486170    -1.7578730    -1.1825500
  H        2.6762910    -1.7288140     0.4434650
  H        2.8674440    -0.3269360    -0.6441440
units angstrom
no_reorient  #important for SAPT in psi4, default
symmetry c1  #important for SAPT in psi4, default
}

set PROPERTIES_ORIGIN ["COM"]
properties('MP2/aug-cc-pvtz', properties = ['dipole'])
--------------------------------------------------------------------------

    Molecular point group: c1
  Charge       = 0
  Multiplicity = 1
  Basis Set: AUG-CC-PVTZ
    Blend: AUG-CC-PVTZ
  Basis Set: (AUG-CC-PVTZ AUX)
    Blend: AUG-CC-PVTZ-JKFIT

    Orbital Energies [Eh]
    ---------------------

    Doubly Occupied:

       1A    -20.505654     2A    -15.580611     3A    -11.339883
       4A    -11.271880     5A    -11.250617     6A    -11.234849
       7A    -11.233221     8A    -11.233035     9A    -11.231976
      10A     -1.361813    11A     -1.241293    12A     -1.098842
      13A     -1.038953    14A     -0.975095    15A     -0.913568
      16A     -0.878541    17A     -0.792731    18A     -0.725233
      19A     -0.690398    20A     -0.668844    21A     -0.633779
      22A     -0.608303    23A     -0.602216    24A     -0.593728
      25A     -0.583624    26A     -0.558628    27A     -0.543706
      28A     -0.527538    29A     -0.510172    30A     -0.507213
      31A     -0.483270    32A     -0.468123    33A     -0.462087
      34A     -0.407230    35A     -0.364968

  @DF-RHF Final Energy:  -402.11107400766144

   => Energetics <=

    Nuclear Repulsion Energy =            486.6058381434469311
    One-Electron Energy =               -1511.1905806576116902
    Two-Electron Energy =                 622.4736685065031452
    Total Energy =                       -402.1110740076615002
  Basis Set: (AUG-CC-PVTZ AUX)
    Blend: AUG-CC-PVTZ-RI
    Molecular point group: c1

    Geometry (in Angstrom), charge = 0, multiplicity = 1:

       Center              X                  Y                   Z               Mass
    ------------   -----------------  -----------------  -----------------  -----------------
         O            1.728387547055     1.561598700941    -0.293188157050    15.994914619570
         N            0.945061547055    -0.530720299059     0.203779842950    14.003074004430
         C           -2.257421852945    -0.293970199059    -0.158341957050    12.000000000000
         C           -1.318625452945    -1.473823299059    -0.317353157050    12.000000000000
         C           -1.644517452945     1.085547700941    -0.397668157050    12.000000000000
         C           -0.129723452945    -1.414662299059     0.643574842950    12.000000000000
         C           -0.504070452945     1.421668700941     0.576168842950    12.000000000000
         C            0.825150547055     0.834368700941     0.138397842950    12.000000000000
         C            2.146293547055    -1.157472299059    -0.328036157050    12.000000000000
         H           -2.715505452945    -0.315296299059     0.827688842950     1.007825032230
         H           -3.106452452945    -0.417839299059    -0.881741157050     1.007825032230
         H           -1.877757452945    -2.399357299059    -0.127600157050     1.007825032230
         H           -0.934305452945    -1.539264299059    -1.343041157050     1.007825032230
         H           -2.429060452945     1.844075700941    -0.291416157050     1.007825032230
         H           -1.270198452945     1.170311700941    -1.425905157050     1.007825032230
         H           -0.470028452945    -1.128753299059     1.647163842950     1.007825032230
         H            0.316423547055    -2.408839299059     0.742898842950     1.007825032230
         H           -0.767465452945     1.101343700941     1.592371842950     1.007825032230
         H           -0.336635452945     2.500771700941     0.604426842950     1.007825032230
         H            1.903024547055    -1.796580299059    -1.184616157050     1.007825032230
         H            2.630698547055    -1.767521299059     0.441398842950     1.007825032230
         H            2.821851547055    -0.365643299059    -0.646210157050     1.007825032230

  Basis Set: AUG-CC-PVTZ
    Blend: AUG-CC-PVTZ
  Basis Set: (AUG-CC-PVTZ AUX)
    Blend: AUG-CC-PVTZ-JKFIT
	 Reference Energy          =    -402.1110740076614434 [Eh]
	 Singles Energy            =      -0.0000000000000000 [Eh]
	 Same-Spin Energy          =      -0.4218994487676891 [Eh]
	 Opposite-Spin Energy      =      -1.4053630892822420 [Eh]
	 Correlation Energy        =      -1.8272625380499310 [Eh]
	 Total Energy              =    -403.9383365457113655 [Eh]

	 ================> DF-SCS-MP2 Energies <==================
	-----------------------------------------------------------
	 SCS Same-Spin Scale       =       0.3333333333333333 [-]
	 SCS Opposite-Spin Scale   =       1.2000000000000000 [-]
	 SCS Same-Spin Energy      =      -0.1406331495892297 [Eh]
	 SCS Opposite-Spin Energy  =      -1.6864357071386904 [Eh]
	 SCS Correlation Energy    =      -1.8270688567279201 [Eh]
	 SCS Total Energy          =    -403.9381428643893628 [Eh]
	-----------------------------------------------------------

  Dipole Moment: [D]
     X:    -2.5748      Y:    -3.1061      Z:     0.8025     Total:     4.1135

*** Psi4 exiting successfully. Buy a developer a beer!
