                               Psi4 1.3.2 release

  ==> Input File <==

--------------------------------------------------------------------------
#psi4
#
memory 32 gb

molecule  {
0 1
  O        1.7739800     1.6003060    -0.2911220
  N        0.9906540    -0.4920130     0.2058460
  C       -2.2286800    -0.2510300    -0.1765170
  C       -1.2730330    -1.4351160    -0.3152870
  C       -1.5989250     1.1242550    -0.3956020
  C       -0.0841310    -1.3759550     0.6456410
  C       -0.4584780     1.4603760     0.5782350
  C        0.8707430     0.8730760     0.1404640
  C        2.1918860    -1.1187650    -0.3259700
  H       -2.6699130    -0.2765890     0.8297550
  H       -3.0608600    -0.3791320    -0.8796750
  H       -1.7303044    -2.1920397    -0.1601025
  H       -0.8887130    -1.5005570    -1.3409750
  H       -2.3834680     1.8827830    -0.2893500
  H       -1.2246060     1.2090190    -1.4238390
  H       -0.4244360    -1.0900460     1.6492300
  H        0.3620160    -2.3701320     0.7449650
  H       -0.7218730     1.1400510     1.5944380
  H       -0.2910430     2.5394790     0.6064930
  H        1.9486170    -1.7578730    -1.1825500
  H        2.6762910    -1.7288140     0.4434650
  H        2.8674440    -0.3269360    -0.6441440
units angstrom
no_reorient  #important for SAPT in psi4, default
symmetry c1  #important for SAPT in psi4, default
}

set PROPERTIES_ORIGIN ["COM"]
properties('MP2/aug-cc-pvtz', properties = ['dipole'])
--------------------------------------------------------------------------

    Molecular point group: c1
  Charge       = 0
  Multiplicity = 1
  Basis Set: AUG-CC-PVTZ
    Blend: AUG-CC-PVTZ
  Basis Set: (AUG-CC-PVTZ AUX)
    Blend: AUG-CC-PVTZ-JKFIT

    Orbital Energies [Eh]
    ---------------------

    Doubly Occupied:

       1A    -20.504743     2A    -15.579345     3A    -11.338992
       4A    -11.271038     5A    -11.249922     6A    -11.233549
       7A    -11.232646     8A    -11.230316     9A    -11.208043
      10A     -1.360898    11A     -1.240265    12A     -1.101425
      13A     -1.045729    14A     -0.974752    15A     -0.913111
      16A     -0.890867    17A     -0.798634    18A     -0.724832
      19A     -0.693849    20A     -0.674705    21A     -0.634441
      22A     -0.610327    23A     -0.607056    24A     -0.597310
      25A     -0.584705    26A     -0.561240    27A     -0.543817
      28A     -0.528554    29A     -0.510698    30A     -0.508365
      31A     -0.481031    32A     -0.470423    33A     -0.464861
      34A     -0.406631    35A     -0.364213

  @DF-RHF Final Energy:  -402.07946211647845

   => Energetics <=

    Nuclear Repulsion Energy =            487.4841077294373690
    One-Electron Energy =               -1512.8444778196776497
    Two-Electron Energy =                 623.2809079737619413
    Total Energy =                       -402.0794621164784530
  Basis Set: (AUG-CC-PVTZ AUX)
    Blend: AUG-CC-PVTZ-RI
    Molecular point group: c1

    Geometry (in Angstrom), charge = 0, multiplicity = 1:

       Center              X                  Y                   Z               Mass
    ------------   -----------------  -----------------  -----------------  -----------------
         O            1.729170786721     1.559862076412    -0.291002995567    15.994914619570
         N            0.945844786721    -0.532456923588     0.205965004433    14.003074004430
         C           -2.273489213279    -0.291473923588    -0.176397995567    12.000000000000
         C           -1.317842213279    -1.475559923588    -0.315167995567    12.000000000000
         C           -1.643734213279     1.083811076412    -0.395482995567    12.000000000000
         C           -0.128940213279    -1.416398923588     0.645760004433    12.000000000000
         C           -0.503287213279     1.419932076412     0.578354004433    12.000000000000
         C            0.825933786721     0.832632076412     0.140583004433    12.000000000000
         C            2.147076786721    -1.159208923588    -0.325850995567    12.000000000000
         H           -2.714722213279    -0.317032923588     0.829874004433     1.007825032230
         H           -3.105669213279    -0.419575923588    -0.879555995567     1.007825032230
         H           -1.775113613279    -2.232483623588    -0.159983495567     1.007825032230
         H           -0.933522213279    -1.541000923588    -1.340855995567     1.007825032230
         H           -2.428277213279     1.842339076412    -0.289230995567     1.007825032230
         H           -1.269415213279     1.168575076412    -1.423719995567     1.007825032230
         H           -0.469245213279    -1.130489923588     1.649349004433     1.007825032230
         H            0.317206786721    -2.410575923588     0.745084004433     1.007825032230
         H           -0.766682213279     1.099607076412     1.594557004433     1.007825032230
         H           -0.335852213279     2.499035076412     0.606612004433     1.007825032230
         H            1.903807786721    -1.798316923588    -1.182430995567     1.007825032230
         H            2.631481786721    -1.769257923588     0.443584004433     1.007825032230
         H            2.822634786721    -0.367379923588    -0.644024995567     1.007825032230

  Basis Set: AUG-CC-PVTZ
    Blend: AUG-CC-PVTZ
  Basis Set: (AUG-CC-PVTZ AUX)
    Blend: AUG-CC-PVTZ-JKFIT
	 Reference Energy          =    -402.0794621164784530 [Eh]
	 Singles Energy            =      -0.0000000000000000 [Eh]
	 Same-Spin Energy          =      -0.4217992206301898 [Eh]
	 Opposite-Spin Energy      =      -1.4044235085469192 [Eh]
	 Correlation Energy        =      -1.8262227291771089 [Eh]
	 Total Energy              =    -403.9056848456555713 [Eh]

	 ================> DF-SCS-MP2 Energies <==================
	-----------------------------------------------------------
	 SCS Same-Spin Scale       =       0.3333333333333333 [-]
	 SCS Opposite-Spin Scale   =       1.2000000000000000 [-]
	 SCS Same-Spin Energy      =      -0.1405997402100633 [Eh]
	 SCS Opposite-Spin Energy  =      -1.6853082102563031 [Eh]
	 SCS Correlation Energy    =      -1.8259079504663664 [Eh]
	 SCS Total Energy          =    -403.9053700669448403 [Eh]
	-----------------------------------------------------------

  Dipole Moment: [D]
     X:    -2.6409      Y:    -3.2163      Z:     0.7975     Total:     4.2373

*** Psi4 exiting successfully. Buy a developer a beer!
