                               Psi4 1.3.2 release

  ==> Input File <==

--------------------------------------------------------------------------
#psi4
#
memory 32 gb

molecule  {
0 1
  O        1.7739800     1.6003060    -0.2911220
  N        0.9906540    -0.4920130     0.2058460
  C       -2.2286800    -0.2510300    -0.1765170
  C       -1.2730330    -1.4351160    -0.3152870
  C       -1.5989250     1.1242550    -0.3956020
  C       -0.0841310    -1.3759550     0.6456410
  C       -0.4584780     1.4603760     0.5782350
  C        0.8707430     0.8730760     0.1404640
  C        2.1918860    -1.1187650    -0.3259700
  H       -2.6699130    -0.2765890     0.8297550
  H       -3.0608600    -0.3791320    -0.8796750
  H       -1.8237095    -2.3722492    -0.1610639
  H       -0.8887130    -1.5005570    -1.3409750
  H       -2.3834680     1.8827830    -0.2893500
  H       -1.2246060     1.2090190    -1.4238390
  H       -0.4244360    -1.0900460     1.6492300
  H        0.3620160    -2.3701320     0.7449650
  H       -0.7218730     1.1400510     1.5944380
  H       -0.2910430     2.5394790     0.6064930
  H        1.9486170    -1.7578730    -1.1825500
  H        2.6762910    -1.7288140     0.4434650
  H        2.8674440    -0.3269360    -0.6441440
units angstrom
no_reorient  #important for SAPT in psi4, default
symmetry c1  #important for SAPT in psi4, default
}

set PROPERTIES_ORIGIN ["COM"]
properties('MP2/aug-cc-pvtz', properties = ['dipole'])
--------------------------------------------------------------------------

    Molecular point group: c1
  Charge       = 0
  Multiplicity = 1
  Basis Set: AUG-CC-PVTZ
    Blend: AUG-CC-PVTZ
  Basis Set: (AUG-CC-PVTZ AUX)
    Blend: AUG-CC-PVTZ-JKFIT

    Orbital Energies [Eh]
    ---------------------

    Doubly Occupied:

       1A    -20.505736     2A    -15.580644     3A    -11.339967
       4A    -11.272376     5A    -11.250598     6A    -11.234806
       7A    -11.233559     8A    -11.233252     9A    -11.231659
      10A     -1.361872    11A     -1.241217    12A     -1.097474
      13A     -1.038011    14A     -0.975632    15A     -0.913913
      16A     -0.878341    17A     -0.793047    18A     -0.725385
      19A     -0.690399    20A     -0.668899    21A     -0.633521
      22A     -0.608322    23A     -0.601231    24A     -0.593972
      25A     -0.583283    26A     -0.558268    27A     -0.544354
      28A     -0.527811    29A     -0.509400    30A     -0.508634
      31A     -0.478596    32A     -0.467978    33A     -0.465717
      34A     -0.407480    35A     -0.365242

  @DF-RHF Final Energy:  -402.11190633780086

   => Energetics <=

    Nuclear Repulsion Energy =            486.2773941978028915
    One-Electron Energy =               -1510.5374049423671750
    Two-Electron Energy =                 622.1481044067633093
    Total Energy =                       -402.1119063378008605
  Basis Set: (AUG-CC-PVTZ AUX)
    Blend: AUG-CC-PVTZ-RI
    Molecular point group: c1

    Geometry (in Angstrom), charge = 0, multiplicity = 1:

       Center              X                  Y                   Z               Mass
    ------------   -----------------  -----------------  -----------------  -----------------
         O            1.729911433532     1.561291030415    -0.290995372238    15.994914619570
         N            0.946585433532    -0.531027969585     0.205972627762    14.003074004430
         C           -2.272748566468    -0.290044969585    -0.176390372238    12.000000000000
         C           -1.317101566468    -1.474130969585    -0.315160372238    12.000000000000
         C           -1.642993566468     1.085240030415    -0.395475372238    12.000000000000
         C           -0.128199566468    -1.414969969585     0.645767627762    12.000000000000
         C           -0.502546566468     1.421361030415     0.578361627762    12.000000000000
         C            0.826674433532     0.834061030415     0.140590627762    12.000000000000
         C            2.147817433532    -1.157779969585    -0.325843372238    12.000000000000
         H           -2.713981566468    -0.315603969585     0.829881627762     1.007825032230
         H           -3.104928566468    -0.418146969585    -0.879548372238     1.007825032230
         H           -1.867778066468    -2.411264169585    -0.160937272238     1.007825032230
         H           -0.932781566468    -1.539571969585    -1.340848372238     1.007825032230
         H           -2.427536566468     1.843768030415    -0.289223372238     1.007825032230
         H           -1.268674566468     1.170004030415    -1.423712372238     1.007825032230
         H           -0.468504566468    -1.129060969585     1.649356627762     1.007825032230
         H            0.317947433532    -2.409146969585     0.745091627762     1.007825032230
         H           -0.765941566468     1.101036030415     1.594564627762     1.007825032230
         H           -0.335111566468     2.500464030415     0.606619627762     1.007825032230
         H            1.904548433532    -1.796887969585    -1.182423372238     1.007825032230
         H            2.632222433532    -1.767828969585     0.443591627762     1.007825032230
         H            2.823375433532    -0.365950969585    -0.644017372238     1.007825032230

  Basis Set: AUG-CC-PVTZ
    Blend: AUG-CC-PVTZ
  Basis Set: (AUG-CC-PVTZ AUX)
    Blend: AUG-CC-PVTZ-JKFIT
	 Reference Energy          =    -402.1119063378008605 [Eh]
	 Singles Energy            =      -0.0000000000000000 [Eh]
	 Same-Spin Energy          =      -0.4217860379271038 [Eh]
	 Opposite-Spin Energy      =      -1.4051994468037314 [Eh]
	 Correlation Energy        =      -1.8269854847308351 [Eh]
	 Total Energy              =    -403.9388918225316729 [Eh]

	 ================> DF-SCS-MP2 Energies <==================
	-----------------------------------------------------------
	 SCS Same-Spin Scale       =       0.3333333333333333 [-]
	 SCS Opposite-Spin Scale   =       1.2000000000000000 [-]
	 SCS Same-Spin Energy      =      -0.1405953459757013 [Eh]
	 SCS Opposite-Spin Energy  =      -1.6862393361644776 [Eh]
	 SCS Correlation Energy    =      -1.8268346821401789 [Eh]
	 SCS Total Energy          =    -403.9387410199410624 [Eh]
	-----------------------------------------------------------

  Dipole Moment: [D]
     X:    -2.5780      Y:    -3.1071      Z:     0.7827     Total:     4.1125

*** Psi4 exiting successfully. Buy a developer a beer!
