                               Psi4 1.4a3.dev225

  ==> Input File <==

--------------------------------------------------------------------------
#psi4
#
memory 32 gb

molecule  {
0 1
  O        1.7739800     1.6003060    -0.2911220
  N        0.9906540    -0.4920130     0.2058460
  C       -2.2286800    -0.2510300    -0.1765170
  C       -1.2730330    -1.4351160    -0.3152870
  C       -1.5989250     1.1242550    -0.3956020
  C       -0.0841310    -1.3759550     0.6456410
  C       -0.4213750     1.4713113     0.6099176
  C        0.8707430     0.8730760     0.1404640
  C        2.1918860    -1.1187650    -0.3259700
  H       -2.6699130    -0.2765890     0.8297550
  H       -3.0608600    -0.3791320    -0.8796750
  H       -1.8321650    -2.3606500    -0.1255340
  H       -0.8887130    -1.5005570    -1.3409750
  H       -2.3834680     1.8827830    -0.2893500
  H       -1.2246060     1.2090190    -1.4238390
  H       -0.4244360    -1.0900460     1.6492300
  H        0.3620160    -2.3701320     0.7449650
  H       -0.7218730     1.1400510     1.5944380
  H       -0.2910430     2.5394790     0.6064930
  H        1.9486170    -1.7578730    -1.1825500
  H        2.6762910    -1.7288140     0.4434650
  H        2.8674440    -0.3269360    -0.6441440
units angstrom
no_reorient  #important for SAPT in psi4, default
symmetry c1  #important for SAPT in psi4, default
}

set PROPERTIES_ORIGIN ["COM"]
properties('MP2/aug-cc-pvtz', properties = ['dipole'])
--------------------------------------------------------------------------

    Molecular point group: c1
  Charge       = 0
  Multiplicity = 1
  Basis Set: AUG-CC-PVTZ
    Blend: AUG-CC-PVTZ
  Basis Set: (AUG-CC-PVTZ AUX)
    Blend: AUG-CC-PVTZ-JKFIT

    Orbital Energies [Eh]
    ---------------------

    Doubly Occupied:

       1A    -20.504588     2A    -15.580419     3A    -11.339023
       4A    -11.272280     5A    -11.250548     6A    -11.237453
       7A    -11.233331     8A    -11.232014     9A    -11.231735
      10A     -1.361848    11A     -1.241030    12A     -1.094292
      13A     -1.036587    14A     -0.976716    15A     -0.913333
      16A     -0.879567    17A     -0.792012    18A     -0.726257
      19A     -0.692285    20A     -0.668511    21A     -0.633288
      22A     -0.607382    23A     -0.601606    24A     -0.594798
      25A     -0.582883    26A     -0.560182    27A     -0.543534
      28A     -0.526691    29A     -0.511685    30A     -0.508962
      31A     -0.479672    32A     -0.469240    33A     -0.459153
      34A     -0.408218    35A     -0.364948

  @DF-RHF Final Energy:  -402.11072565142302

   => Energetics <=

    Nuclear Repulsion Energy =            486.0206827118846036
    One-Electron Energy =               -1510.0306716265467912
    Two-Electron Energy =                 621.8992632632392770
    Total Energy =                       -402.1107256514229675
  Basis Set: (AUG-CC-PVTZ AUX)
    Blend: AUG-CC-PVTZ-RI
    Molecular point group: c1

    Geometry (in Angstrom), charge = 0, multiplicity = 1:

       Center              X                  Y                   Z               Mass
    ------------   -----------------  -----------------  -----------------  -----------------
         O            1.726475435751     1.560166609600    -0.294268386074    15.994914619570
         N            0.943149435751    -0.532152390400     0.202699613926    14.003074004430
         C           -2.276184564249    -0.291169390400    -0.179663386074    12.000000000000
         C           -1.320537564249    -1.475255390400    -0.318433386074    12.000000000000
         C           -1.646429564249     1.084115609600    -0.398748386074    12.000000000000
         C           -0.131635564249    -1.416094390400     0.642494613926    12.000000000000
         C           -0.468879564249     1.431171909600     0.606771213926    12.000000000000
         C            0.823238435751     0.832936609600     0.137317613926    12.000000000000
         C            2.144381435751    -1.158904390400    -0.329116386074    12.000000000000
         H           -2.717417564249    -0.316728390400     0.826608613926     1.007825032230
         H           -3.108364564249    -0.419271390400    -0.882821386074     1.007825032230
         H           -1.879669564249    -2.400789390400    -0.128680386074     1.007825032230
         H           -0.936217564249    -1.540696390400    -1.344121386074     1.007825032230
         H           -2.430972564249     1.842643609600    -0.292496386074     1.007825032230
         H           -1.272110564249     1.168879609600    -1.426985386074     1.007825032230
         H           -0.471940564249    -1.130185390400     1.646083613926     1.007825032230
         H            0.314511435751    -2.410271390400     0.741818613926     1.007825032230
         H           -0.769377564249     1.099911609600     1.591291613926     1.007825032230
         H           -0.338547564249     2.499339609600     0.603346613926     1.007825032230
         H            1.901112435751    -1.798012390400    -1.185696386074     1.007825032230
         H            2.628786435751    -1.768953390400     0.440318613926     1.007825032230
         H            2.819939435751    -0.367075390400    -0.647290386074     1.007825032230

  Basis Set: AUG-CC-PVTZ
    Blend: AUG-CC-PVTZ
  Basis Set: (AUG-CC-PVTZ AUX)
    Blend: AUG-CC-PVTZ-JKFIT
	 Reference Energy          =    -402.1107256514230244 [Eh]
	 Singles Energy            =      -0.0000000000000000 [Eh]
	 Same-Spin Energy          =      -0.4215796063326162 [Eh]
	 Opposite-Spin Energy      =      -1.4050031883971938 [Eh]
	 Correlation Energy        =      -1.8265827947298101 [Eh]
	 Total Energy              =    -403.9373084461528265 [Eh]

	 ================> DF-SCS-MP2 Energies <==================
	-----------------------------------------------------------
	 SCS Same-Spin Scale       =       0.3333333333333333 [-]
	 SCS Opposite-Spin Scale   =       1.2000000000000000 [-]
	 SCS Same-Spin Energy      =      -0.1405265354442054 [Eh]
	 SCS Opposite-Spin Energy  =      -1.6860038260766326 [Eh]
	 SCS Correlation Energy    =      -1.8265303615208379 [Eh]
	 SCS Total Energy          =    -403.9372560129438625 [Eh]
	-----------------------------------------------------------

  Dipole Moment: [D]
     X:    -2.6158      Y:    -3.0943      Z:     0.8114     Total:     4.1323

*** Psi4 exiting successfully. Buy a developer a beer!
