                               Psi4 1.4a3.dev225

  ==> Input File <==

--------------------------------------------------------------------------
#psi4
#
memory 32 gb

molecule  {
0 1
  O        1.7739800     1.6003060    -0.2911220
  N        0.9906540    -0.4920130     0.2058460
  C       -2.2286800    -0.2510300    -0.1765170
  C       -1.2730330    -1.4351160    -0.3152870
  C       -1.5989250     1.1242550    -0.3956020
  C       -0.0841310    -1.3759550     0.6456410
  C       -0.4733192     1.4560019     0.5655620
  C        0.8707430     0.8730760     0.1404640
  C        2.1918860    -1.1187650    -0.3259700
  H       -2.6699130    -0.2765890     0.8297550
  H       -3.0608600    -0.3791320    -0.8796750
  H       -1.8321650    -2.3606500    -0.1255340
  H       -0.8887130    -1.5005570    -1.3409750
  H       -2.3834680     1.8827830    -0.2893500
  H       -1.2246060     1.2090190    -1.4238390
  H       -0.4244360    -1.0900460     1.6492300
  H        0.3620160    -2.3701320     0.7449650
  H       -0.7218730     1.1400510     1.5944380
  H       -0.2910430     2.5394790     0.6064930
  H        1.9486170    -1.7578730    -1.1825500
  H        2.6762910    -1.7288140     0.4434650
  H        2.8674440    -0.3269360    -0.6441440
units angstrom
no_reorient  #important for SAPT in psi4, default
symmetry c1  #important for SAPT in psi4, default
}

set PROPERTIES_ORIGIN ["COM"]
properties('MP2/aug-cc-pvtz', properties = ['dipole'])
--------------------------------------------------------------------------

    Molecular point group: c1
  Charge       = 0
  Multiplicity = 1
  Basis Set: AUG-CC-PVTZ
    Blend: AUG-CC-PVTZ
  Basis Set: (AUG-CC-PVTZ AUX)
    Blend: AUG-CC-PVTZ-JKFIT

    Orbital Energies [Eh]
    ---------------------

    Doubly Occupied:

       1A    -20.506153     2A    -15.580633     3A    -11.340331
       4A    -11.272191     5A    -11.250604     6A    -11.234454
       7A    -11.233444     8A    -11.233312     9A    -11.231431
      10A     -1.361853    11A     -1.241258    12A     -1.099123
      13A     -1.038866    14A     -0.975150    15A     -0.914239
      16A     -0.877501    17A     -0.792751    18A     -0.724918
      19A     -0.690090    20A     -0.668994    21A     -0.633305
      22A     -0.608908    23A     -0.602027    24A     -0.594209
      25A     -0.583335    26A     -0.557595    27A     -0.545283
      28A     -0.527027    29A     -0.509688    30A     -0.508331
      31A     -0.479357    32A     -0.469295    33A     -0.464486
      34A     -0.406919    35A     -0.365163

  @DF-RHF Final Energy:  -402.11138485370742

   => Energetics <=

    Nuclear Repulsion Energy =            486.4156900031430268
    One-Electron Energy =               -1510.8096978094824863
    Two-Electron Energy =                 622.2826229526319821
    Total Energy =                       -402.1113848537074773
  Basis Set: (AUG-CC-PVTZ AUX)
    Blend: AUG-CC-PVTZ-RI
    Molecular point group: c1

    Geometry (in Angstrom), charge = 0, multiplicity = 1:

       Center              X                  Y                   Z               Mass
    ------------   -----------------  -----------------  -----------------  -----------------
         O            1.731379698555     1.561612032206    -0.290080593804    15.994914619570
         N            0.948053698555    -0.530706967794     0.206887406196    14.003074004430
         C           -2.271280301445    -0.289723967794    -0.175475593804    12.000000000000
         C           -1.315633301445    -1.473809967794    -0.314245593804    12.000000000000
         C           -1.641525301445     1.085561032206    -0.394560593804    12.000000000000
         C           -0.126731301445    -1.414648967794     0.646682406196    12.000000000000
         C           -0.515919501445     1.417307932206     0.566603406196    12.000000000000
         C            0.828142698555     0.834382032206     0.141505406196    12.000000000000
         C            2.149285698555    -1.157458967794    -0.324928593804    12.000000000000
         H           -2.712513301445    -0.315282967794     0.830796406196     1.007825032230
         H           -3.103460301445    -0.417825967794    -0.878633593804     1.007825032230
         H           -1.874765301445    -2.399343967794    -0.124492593804     1.007825032230
         H           -0.931313301445    -1.539250967794    -1.339933593804     1.007825032230
         H           -2.426068301445     1.844089032206    -0.288308593804     1.007825032230
         H           -1.267206301445     1.170325032206    -1.422797593804     1.007825032230
         H           -0.467036301445    -1.128739967794     1.650271406196     1.007825032230
         H            0.319415698555    -2.408825967794     0.746006406196     1.007825032230
         H           -0.764473301445     1.101357032206     1.595479406196     1.007825032230
         H           -0.333643301445     2.500785032206     0.607534406196     1.007825032230
         H            1.906016698555    -1.796566967794    -1.181508593804     1.007825032230
         H            2.633690698555    -1.767507967794     0.444506406196     1.007825032230
         H            2.824843698555    -0.365629967794    -0.643102593804     1.007825032230

  Basis Set: AUG-CC-PVTZ
    Blend: AUG-CC-PVTZ
  Basis Set: (AUG-CC-PVTZ AUX)
    Blend: AUG-CC-PVTZ-JKFIT
	 Reference Energy          =    -402.1113848537074205 [Eh]
	 Singles Energy            =      -0.0000000000000000 [Eh]
	 Same-Spin Energy          =      -0.4219163725008822 [Eh]
	 Opposite-Spin Energy      =      -1.4053878030257396 [Eh]
	 Correlation Energy        =      -1.8273041755266219 [Eh]
	 Total Energy              =    -403.9386890292340695 [Eh]

	 ================> DF-SCS-MP2 Energies <==================
	-----------------------------------------------------------
	 SCS Same-Spin Scale       =       0.3333333333333333 [-]
	 SCS Opposite-Spin Scale   =       1.2000000000000000 [-]
	 SCS Same-Spin Energy      =      -0.1406387908336274 [Eh]
	 SCS Opposite-Spin Energy  =      -1.6864653636308875 [Eh]
	 SCS Correlation Energy    =      -1.8271041544645148 [Eh]
	 SCS Total Energy          =    -403.9384890081719277 [Eh]
	-----------------------------------------------------------

  Dipole Moment: [D]
     X:    -2.5667      Y:    -3.1082      Z:     0.7845     Total:     4.1066

*** Psi4 exiting successfully. Buy a developer a beer!
