                               Psi4 1.3.2 release

  ==> Input File <==

--------------------------------------------------------------------------
#psi4
#
memory 32 gb

molecule  {
0 1
  O        1.7739800     1.6003060    -0.2911220
  N        0.9906540    -0.4920130     0.2058460
  C       -2.2048500    -0.2623236    -0.1805364
  C       -1.2730330    -1.4351160    -0.3152870
  C       -1.5989250     1.1242550    -0.3956020
  C       -0.0841310    -1.3759550     0.6456410
  C       -0.4584780     1.4603760     0.5782350
  C        0.8707430     0.8730760     0.1404640
  C        2.1918860    -1.1187650    -0.3259700
  H       -2.6699130    -0.2765890     0.8297550
  H       -3.0608600    -0.3791320    -0.8796750
  H       -1.8321650    -2.3606500    -0.1255340
  H       -0.8887130    -1.5005570    -1.3409750
  H       -2.3834680     1.8827830    -0.2893500
  H       -1.2246060     1.2090190    -1.4238390
  H       -0.4244360    -1.0900460     1.6492300
  H        0.3620160    -2.3701320     0.7449650
  H       -0.7218730     1.1400510     1.5944380
  H       -0.2910430     2.5394790     0.6064930
  H        1.9486170    -1.7578730    -1.1825500
  H        2.6762910    -1.7288140     0.4434650
  H        2.8674440    -0.3269360    -0.6441440
units angstrom
no_reorient  #important for SAPT in psi4, default
symmetry c1  #important for SAPT in psi4, default
}

set PROPERTIES_ORIGIN ["COM"]
properties('MP2/aug-cc-pvtz', properties = ['dipole'])
--------------------------------------------------------------------------

    Molecular point group: c1
  Charge       = 0
  Multiplicity = 1
  Basis Set: AUG-CC-PVTZ
    Blend: AUG-CC-PVTZ
  Basis Set: (AUG-CC-PVTZ AUX)
    Blend: AUG-CC-PVTZ-JKFIT

    Orbital Energies [Eh]
    ---------------------

    Doubly Occupied:

       1A    -20.505753     2A    -15.580757     3A    -11.340004
       4A    -11.272277     5A    -11.250697     6A    -11.234977
       7A    -11.233308     8A    -11.233099     9A    -11.232436
      10A     -1.361914    11A     -1.241472    12A     -1.099656
      13A     -1.039691    14A     -0.975272    15A     -0.913962
      16A     -0.879417    17A     -0.790572    18A     -0.725664
      19A     -0.690716    20A     -0.669613    21A     -0.633191
      22A     -0.609403    23A     -0.602319    24A     -0.593798
      25A     -0.583796    26A     -0.558290    27A     -0.544507
      28A     -0.527687    29A     -0.509943    30A     -0.508054
      31A     -0.477377    32A     -0.470063    33A     -0.464148
      34A     -0.407356    35A     -0.365168

  @DF-RHF Final Energy:  -402.11098948033913

   => Energetics <=

    Nuclear Repulsion Energy =            486.6960980044419216
    One-Electron Energy =               -1511.3614615286201115
    Two-Electron Energy =                 622.5543740438391751
    Total Energy =                       -402.1109894803390716
  Basis Set: (AUG-CC-PVTZ AUX)
    Blend: AUG-CC-PVTZ-RI
    Molecular point group: c1

    Geometry (in Angstrom), charge = 0, multiplicity = 1:

       Center              X                  Y                   Z               Mass
    ------------   -----------------  -----------------  -----------------  -----------------
         O            1.727728593566     1.562265330293    -0.290897615311    15.994914619570
         N            0.944402593566    -0.530053669707     0.206070384689    14.003074004430
         C           -2.251101406434    -0.300364269707    -0.180312015311    12.000000000000
         C           -1.319284406434    -1.473156669707    -0.315062615311    12.000000000000
         C           -1.645176406434     1.086214330293    -0.395377615311    12.000000000000
         C           -0.130382406434    -1.413995669707     0.645865384689    12.000000000000
         C           -0.504729406434     1.422335330293     0.578459384689    12.000000000000
         C            0.824491593566     0.835035330293     0.140688384689    12.000000000000
         C            2.145634593566    -1.156805669707    -0.325745615311    12.000000000000
         H           -2.716164406434    -0.314629669707     0.829979384689     1.007825032230
         H           -3.107111406434    -0.417172669707    -0.879450615311     1.007825032230
         H           -1.878416406434    -2.398690669707    -0.125309615311     1.007825032230
         H           -0.934964406434    -1.538597669707    -1.340750615311     1.007825032230
         H           -2.429719406434     1.844742330293    -0.289125615311     1.007825032230
         H           -1.270857406434     1.170978330293    -1.423614615311     1.007825032230
         H           -0.470687406434    -1.128086669707     1.649454384689     1.007825032230
         H            0.315764593566    -2.408172669707     0.745189384689     1.007825032230
         H           -0.768124406434     1.102010330293     1.594662384689     1.007825032230
         H           -0.337294406434     2.501438330293     0.606717384689     1.007825032230
         H            1.902365593566    -1.795913669707    -1.182325615311     1.007825032230
         H            2.630039593566    -1.766854669707     0.443689384689     1.007825032230
         H            2.821192593566    -0.364976669707    -0.643919615311     1.007825032230

  Basis Set: AUG-CC-PVTZ
    Blend: AUG-CC-PVTZ
  Basis Set: (AUG-CC-PVTZ AUX)
    Blend: AUG-CC-PVTZ-JKFIT
	 Reference Energy          =    -402.1109894803391285 [Eh]
	 Singles Energy            =      -0.0000000000000000 [Eh]
	 Same-Spin Energy          =      -0.4219813518420739 [Eh]
	 Opposite-Spin Energy      =      -1.4054356390851579 [Eh]
	 Correlation Energy        =      -1.8274169909272318 [Eh]
	 Total Energy              =    -403.9384064712663758 [Eh]

	 ================> DF-SCS-MP2 Energies <==================
	-----------------------------------------------------------
	 SCS Same-Spin Scale       =       0.3333333333333333 [-]
	 SCS Opposite-Spin Scale   =       1.2000000000000000 [-]
	 SCS Same-Spin Energy      =      -0.1406604506140246 [Eh]
	 SCS Opposite-Spin Energy  =      -1.6865227669021894 [Eh]
	 SCS Correlation Energy    =      -1.8271832175162139 [Eh]
	 SCS Total Energy          =    -403.9381726978553502 [Eh]
	-----------------------------------------------------------

  Dipole Moment: [D]
     X:    -2.5677      Y:    -3.1080      Z:     0.7877     Total:     4.1077

*** Psi4 exiting successfully. Buy a developer a beer!
