                               Psi4 1.3.2 release

  ==> Input File <==

--------------------------------------------------------------------------
#psi4
#
memory 32 gb

molecule  {
0 1
  O        1.7739800     1.6003060    -0.2911220
  N        0.9906540    -0.4920130     0.2058460
  C       -2.1601780    -0.2654358    -0.0960142
  C       -1.2730330    -1.4351160    -0.3152870
  C       -1.5989250     1.1242550    -0.3956020
  C       -0.0841310    -1.3759550     0.6456410
  C       -0.4584780     1.4603760     0.5782350
  C        0.8707430     0.8730760     0.1404640
  C        2.1918860    -1.1187650    -0.3259700
  H       -2.6699130    -0.2765890     0.8297550
  H       -3.0608600    -0.3791320    -0.8796750
  H       -1.8321650    -2.3606500    -0.1255340
  H       -0.8887130    -1.5005570    -1.3409750
  H       -2.3834680     1.8827830    -0.2893500
  H       -1.2246060     1.2090190    -1.4238390
  H       -0.4244360    -1.0900460     1.6492300
  H        0.3620160    -2.3701320     0.7449650
  H       -0.7218730     1.1400510     1.5944380
  H       -0.2910430     2.5394790     0.6064930
  H        1.9486170    -1.7578730    -1.1825500
  H        2.6762910    -1.7288140     0.4434650
  H        2.8674440    -0.3269360    -0.6441440
units angstrom
no_reorient  #important for SAPT in psi4, default
symmetry c1  #important for SAPT in psi4, default
}

set PROPERTIES_ORIGIN ["COM"]
properties('MP2/aug-cc-pvtz', properties = ['dipole'])
--------------------------------------------------------------------------

    Molecular point group: c1
  Charge       = 0
  Multiplicity = 1
  Basis Set: AUG-CC-PVTZ
    Blend: AUG-CC-PVTZ
  Basis Set: (AUG-CC-PVTZ AUX)
    Blend: AUG-CC-PVTZ-JKFIT

    Orbital Energies [Eh]
    ---------------------

    Doubly Occupied:

       1A    -20.505668     2A    -15.580896     3A    -11.339930
       4A    -11.271076     5A    -11.250822     6A    -11.236113
       7A    -11.234880     8A    -11.232962     9A    -11.231850
      10A     -1.361889    11A     -1.241811    12A     -1.103260
      13A     -1.041634    14A     -0.973889    15A     -0.912900
      16A     -0.879632    17A     -0.794916    18A     -0.725219
      19A     -0.690137    20A     -0.669658    21A     -0.635306
      22A     -0.611053    23A     -0.605539    24A     -0.589335
      25A     -0.584711    26A     -0.559597    27A     -0.541922
      28A     -0.529402    29A     -0.511537    30A     -0.502813
      31A     -0.494139    32A     -0.473304    33A     -0.444764
      34A     -0.406469    35A     -0.364496

  @DF-RHF Final Energy:  -402.09968201441137

   => Energetics <=

    Nuclear Repulsion Energy =            487.5244692857889959
    One-Electron Energy =               -1512.9812428646234821
    Two-Electron Energy =                 623.3570915644232855
    Total Energy =                       -402.0996820144113144
  Basis Set: (AUG-CC-PVTZ AUX)
    Blend: AUG-CC-PVTZ-RI
    Molecular point group: c1

    Geometry (in Angstrom), charge = 0, multiplicity = 1:

       Center              X                  Y                   Z               Mass
    ------------   -----------------  -----------------  -----------------  -----------------
         O            1.723510928688     1.562559165730    -0.298877699355    15.994914619570
         N            0.940184928688    -0.529759834270     0.198090300645    14.003074004430
         C           -2.210647071312    -0.303182634270    -0.103769899355    12.000000000000
         C           -1.323502071312    -1.472862834270    -0.323042699355    12.000000000000
         C           -1.649394071312     1.086508165730    -0.403357699355    12.000000000000
         C           -0.134600071312    -1.413701834270     0.637885300645    12.000000000000
         C           -0.508947071312     1.422629165730     0.570479300645    12.000000000000
         C            0.820273928688     0.835329165730     0.132708300645    12.000000000000
         C            2.141416928688    -1.156511834270    -0.333725699355    12.000000000000
         H           -2.720382071312    -0.314335834270     0.821999300645     1.007825032230
         H           -3.111329071312    -0.416878834270    -0.887430699355     1.007825032230
         H           -1.882634071312    -2.398396834270    -0.133289699355     1.007825032230
         H           -0.939182071312    -1.538303834270    -1.348730699355     1.007825032230
         H           -2.433937071312     1.845036165730    -0.297105699355     1.007825032230
         H           -1.275075071312     1.171272165730    -1.431594699355     1.007825032230
         H           -0.474905071312    -1.127792834270     1.641474300645     1.007825032230
         H            0.311546928688    -2.407878834270     0.737209300645     1.007825032230
         H           -0.772342071312     1.102304165730     1.586682300645     1.007825032230
         H           -0.341512071312     2.501732165730     0.598737300645     1.007825032230
         H            1.898147928688    -1.795619834270    -1.190305699355     1.007825032230
         H            2.625821928688    -1.766560834270     0.435709300645     1.007825032230
         H            2.816974928688    -0.364682834270    -0.651899699355     1.007825032230

  Basis Set: AUG-CC-PVTZ
    Blend: AUG-CC-PVTZ
  Basis Set: (AUG-CC-PVTZ AUX)
    Blend: AUG-CC-PVTZ-JKFIT
	 Reference Energy          =    -402.0996820144113713 [Eh]
	 Singles Energy            =      -0.0000000000000000 [Eh]
	 Same-Spin Energy          =      -0.4224464179516885 [Eh]
	 Opposite-Spin Energy      =      -1.4063532919448054 [Eh]
	 Correlation Energy        =      -1.8287997098964939 [Eh]
	 Total Energy              =    -403.9284817243078578 [Eh]

	 ================> DF-SCS-MP2 Energies <==================
	-----------------------------------------------------------
	 SCS Same-Spin Scale       =       0.3333333333333333 [-]
	 SCS Opposite-Spin Scale   =       1.2000000000000000 [-]
	 SCS Same-Spin Energy      =      -0.1408154726505628 [Eh]
	 SCS Opposite-Spin Energy  =      -1.6876239503337664 [Eh]
	 SCS Correlation Energy    =      -1.8284394229843293 [Eh]
	 SCS Total Energy          =    -403.9281214373957027 [Eh]
	-----------------------------------------------------------

  Dipole Moment: [D]
     X:    -2.5368      Y:    -3.1086      Z:     0.8332     Total:     4.0980

*** Psi4 exiting successfully. Buy a developer a beer!
