                               Psi4 1.3.2 release

  ==> Input File <==

--------------------------------------------------------------------------
#psi4
#
memory 32 gb

molecule  {
0 1
  O        1.7739800     1.6003060    -0.2911220
  N        0.9906540    -0.4920130     0.2058460
  C       -2.2286800    -0.2510300    -0.1765170
  C       -1.2730330    -1.4351160    -0.3152870
  C       -1.5989250     1.1242550    -0.3956020
  C       -0.0841310    -1.3759550     0.6456410
  C       -0.4584780     1.4603760     0.5782350
  C        0.8707430     0.8730760     0.1404640
  C        2.1918860    -1.1187650    -0.3259700
  H       -2.6699130    -0.2765890     0.8297550
  H       -3.0608600    -0.3791320    -0.8796750
  H       -1.8830953    -2.4449552    -0.1082498
  H       -0.8887130    -1.5005570    -1.3409750
  H       -2.3834680     1.8827830    -0.2893500
  H       -1.2246060     1.2090190    -1.4238390
  H       -0.4244360    -1.0900460     1.6492300
  H        0.3620160    -2.3701320     0.7449650
  H       -0.7218730     1.1400510     1.5944380
  H       -0.2910430     2.5394790     0.6064930
  H        1.9486170    -1.7578730    -1.1825500
  H        2.6762910    -1.7288140     0.4434650
  H        2.8674440    -0.3269360    -0.6441440
units angstrom
no_reorient  #important for SAPT in psi4, default
symmetry c1  #important for SAPT in psi4, default
}

set PROPERTIES_ORIGIN ["COM"]
properties('MP2/aug-cc-pvtz', properties = ['dipole'])
--------------------------------------------------------------------------

    Molecular point group: c1
  Charge       = 0
  Multiplicity = 1
  Basis Set: AUG-CC-PVTZ
    Blend: AUG-CC-PVTZ
  Basis Set: (AUG-CC-PVTZ AUX)
    Blend: AUG-CC-PVTZ-JKFIT

    Orbital Energies [Eh]
    ---------------------

    Doubly Occupied:

       1A    -20.506442     2A    -15.581544     3A    -11.340661
       4A    -11.273175     5A    -11.251120     6A    -11.245409
       7A    -11.235583     8A    -11.234182     9A    -11.232533
      10A     -1.362574    11A     -1.242008    12A     -1.097260
      13A     -1.036256    14A     -0.976323    15A     -0.914577
      16A     -0.874749    17A     -0.790842    18A     -0.725899
      19A     -0.690408    20A     -0.666746    21A     -0.633462
      22A     -0.609216    23A     -0.601253    24A     -0.592221
      25A     -0.581046    26A     -0.556183    27A     -0.544949
      28A     -0.526417    29A     -0.509977    30A     -0.508760
      31A     -0.479346    32A     -0.467277    33A     -0.462065
      34A     -0.408083    35A     -0.365798

  @DF-RHF Final Energy:  -402.10555811234849

   => Energetics <=

    Nuclear Repulsion Energy =            485.8047044225325521
    One-Electron Energy =               -1509.5718395829685505
    Two-Electron Energy =                 621.6615770480875653
    Total Energy =                       -402.1055581123484899
  Basis Set: (AUG-CC-PVTZ AUX)
    Blend: AUG-CC-PVTZ-RI
    Molecular point group: c1

    Geometry (in Angstrom), charge = 0, multiplicity = 1:

       Center              X                  Y                   Z               Mass
    ------------   -----------------  -----------------  -----------------  -----------------
         O            1.730382327556     1.561867545692    -0.291414156595    15.994914619570
         N            0.947056327556    -0.530451454308     0.205553843405    14.003074004430
         C           -2.272277672444    -0.289468454308    -0.176809156595    12.000000000000
         C           -1.316630672444    -1.473554454308    -0.315579156595    12.000000000000
         C           -1.642522672444     1.085816545692    -0.395894156595    12.000000000000
         C           -0.127728672444    -1.414393454308     0.645348843405    12.000000000000
         C           -0.502075672444     1.421937545692     0.577942843405    12.000000000000
         C            0.827145327556     0.834637545692     0.140171843405    12.000000000000
         C            2.148288327556    -1.157203454308    -0.326262156595    12.000000000000
         H           -2.713510672444    -0.315027454308     0.829462843405     1.007825032230
         H           -3.104457672444    -0.417570454308    -0.879967156595     1.007825032230
         H           -1.926692972444    -2.483393654308    -0.108541956595     1.007825032230
         H           -0.932310672444    -1.538995454308    -1.341267156595     1.007825032230
         H           -2.427065672444     1.844344545692    -0.289642156595     1.007825032230
         H           -1.268203672444     1.170580545692    -1.424131156595     1.007825032230
         H           -0.468033672444    -1.128484454308     1.648937843405     1.007825032230
         H            0.318418327556    -2.408570454308     0.744672843405     1.007825032230
         H           -0.765470672444     1.101612545692     1.594145843405     1.007825032230
         H           -0.334640672444     2.501040545692     0.606200843405     1.007825032230
         H            1.905019327556    -1.796311454308    -1.182842156595     1.007825032230
         H            2.632693327556    -1.767252454308     0.443172843405     1.007825032230
         H            2.823846327556    -0.365374454308    -0.644436156595     1.007825032230

  Basis Set: AUG-CC-PVTZ
    Blend: AUG-CC-PVTZ
  Basis Set: (AUG-CC-PVTZ AUX)
    Blend: AUG-CC-PVTZ-JKFIT
	 Reference Energy          =    -402.1055581123484899 [Eh]
	 Singles Energy            =      -0.0000000000000000 [Eh]
	 Same-Spin Energy          =      -0.4218181770913466 [Eh]
	 Opposite-Spin Energy      =      -1.4059968229229760 [Eh]
	 Correlation Energy        =      -1.8278150000143225 [Eh]
	 Total Energy              =    -403.9333731123628013 [Eh]

	 ================> DF-SCS-MP2 Energies <==================
	-----------------------------------------------------------
	 SCS Same-Spin Scale       =       0.3333333333333333 [-]
	 SCS Opposite-Spin Scale   =       1.2000000000000000 [-]
	 SCS Same-Spin Energy      =      -0.1406060590304489 [Eh]
	 SCS Opposite-Spin Energy  =      -1.6871961875075712 [Eh]
	 SCS Correlation Energy    =      -1.8278022465380199 [Eh]
	 SCS Total Energy          =    -403.9333603588864889 [Eh]
	-----------------------------------------------------------

  Dipole Moment: [D]
     X:    -2.5310      Y:    -3.0169      Z:     0.7891     Total:     4.0162

*** Psi4 exiting successfully. Buy a developer a beer!
