                               Psi4 1.3.2 release

  ==> Input File <==

--------------------------------------------------------------------------
#psi4
#
memory 32 gb

molecule  {
0 1
  O        1.7739800     1.6003060    -0.2911220
  N        0.9906540    -0.4920130     0.2058460
  C       -2.2757573    -0.2271897    -0.1686796
  C       -1.2730330    -1.4351160    -0.3152870
  C       -1.5989250     1.1242550    -0.3956020
  C       -0.0841310    -1.3759550     0.6456410
  C       -0.4584780     1.4603760     0.5782350
  C        0.8707430     0.8730760     0.1404640
  C        2.1918860    -1.1187650    -0.3259700
  H       -2.6699130    -0.2765890     0.8297550
  H       -3.0608600    -0.3791320    -0.8796750
  H       -1.8321650    -2.3606500    -0.1255340
  H       -0.8887130    -1.5005570    -1.3409750
  H       -2.3834680     1.8827830    -0.2893500
  H       -1.2246060     1.2090190    -1.4238390
  H       -0.4244360    -1.0900460     1.6492300
  H        0.3620160    -2.3701320     0.7449650
  H       -0.7218730     1.1400510     1.5944380
  H       -0.2910430     2.5394790     0.6064930
  H        1.9486170    -1.7578730    -1.1825500
  H        2.6762910    -1.7288140     0.4434650
  H        2.8674440    -0.3269360    -0.6441440
units angstrom
no_reorient  #important for SAPT in psi4, default
symmetry c1  #important for SAPT in psi4, default
}

set PROPERTIES_ORIGIN ["COM"]
properties('MP2/aug-cc-pvtz', properties = ['dipole'])
--------------------------------------------------------------------------

    Molecular point group: c1
  Charge       = 0
  Multiplicity = 1
  Basis Set: AUG-CC-PVTZ
    Blend: AUG-CC-PVTZ
  Basis Set: (AUG-CC-PVTZ AUX)
    Blend: AUG-CC-PVTZ-JKFIT

    Orbital Energies [Eh]
    ---------------------

    Doubly Occupied:

       1A    -20.505667     2A    -15.580272     3A    -11.339846
       4A    -11.272128     5A    -11.250400     6A    -11.234469
       7A    -11.234318     8A    -11.233876     9A    -11.229730
      10A     -1.361764    11A     -1.240730    12A     -1.094083
      13A     -1.035211    14A     -0.976421    15A     -0.914082
      16A     -0.875696    17A     -0.796310    18A     -0.724645
      19A     -0.690726    20A     -0.667383    21A     -0.633819
      22A     -0.607446    23A     -0.601852    24A     -0.594323
      25A     -0.582063    26A     -0.558404    27A     -0.544584
      28A     -0.526132    29A     -0.511930    30A     -0.509518
      31A     -0.484530    32A     -0.471988    33A     -0.453259
      34A     -0.407659    35A     -0.364970

  @DF-RHF Final Energy:  -402.10998311329564

   => Energetics <=

    Nuclear Repulsion Energy =            485.5324434766113200
    One-Electron Energy =               -1509.0643856906231122
    Two-Electron Energy =                 621.4219591007160943
    Total Energy =                       -402.1099831132956979
  Basis Set: (AUG-CC-PVTZ AUX)
    Blend: AUG-CC-PVTZ-RI
    Molecular point group: c1

    Geometry (in Angstrom), charge = 0, multiplicity = 1:

       Center              X                  Y                   Z               Mass
    ------------   -----------------  -----------------  -----------------  -----------------
         O            1.734423239627     1.558948196158    -0.292017063935    15.994914619570
         N            0.951097239627    -0.533370803842     0.204950936065    14.003074004430
         C           -2.315314060373    -0.268547503842    -0.169574663935    12.000000000000
         C           -1.312589760373    -1.476473803842    -0.316182063935    12.000000000000
         C           -1.638481760373     1.082897196158    -0.396497063935    12.000000000000
         C           -0.123687760373    -1.417312803842     0.644745936065    12.000000000000
         C           -0.498034760373     1.419018196158     0.577339936065    12.000000000000
         C            0.831186239627     0.831718196158     0.139568936065    12.000000000000
         C            2.152329239627    -1.160122803842    -0.326865063935    12.000000000000
         H           -2.709469760373    -0.317946803842     0.828859936065     1.007825032230
         H           -3.100416760373    -0.420489803842    -0.880570063935     1.007825032230
         H           -1.871721760373    -2.402007803842    -0.126429063935     1.007825032230
         H           -0.928269760373    -1.541914803842    -1.341870063935     1.007825032230
         H           -2.423024760373     1.841425196158    -0.290245063935     1.007825032230
         H           -1.264162760373     1.167661196158    -1.424734063935     1.007825032230
         H           -0.463992760373    -1.131403803842     1.648334936065     1.007825032230
         H            0.322459239627    -2.411489803842     0.744069936065     1.007825032230
         H           -0.761429760373     1.098693196158     1.593542936065     1.007825032230
         H           -0.330599760373     2.498121196158     0.605597936065     1.007825032230
         H            1.909060239627    -1.799230803842    -1.183445063935     1.007825032230
         H            2.636734239627    -1.770171803842     0.442569936065     1.007825032230
         H            2.827887239627    -0.368293803842    -0.645039063935     1.007825032230

  Basis Set: AUG-CC-PVTZ
    Blend: AUG-CC-PVTZ
  Basis Set: (AUG-CC-PVTZ AUX)
    Blend: AUG-CC-PVTZ-JKFIT
	 Reference Energy          =    -402.1099831132956410 [Eh]
	 Singles Energy            =      -0.0000000000000000 [Eh]
	 Same-Spin Energy          =      -0.4215296659313362 [Eh]
	 Opposite-Spin Energy      =      -1.4050488923490039 [Eh]
	 Correlation Energy        =      -1.8265785582803402 [Eh]
	 Total Energy              =    -403.9365616715759870 [Eh]

	 ================> DF-SCS-MP2 Energies <==================
	-----------------------------------------------------------
	 SCS Same-Spin Scale       =       0.3333333333333333 [-]
	 SCS Opposite-Spin Scale   =       1.2000000000000000 [-]
	 SCS Same-Spin Energy      =      -0.1405098886437787 [Eh]
	 SCS Opposite-Spin Energy  =      -1.6860586708188046 [Eh]
	 SCS Correlation Energy    =      -1.8265685594625833 [Eh]
	 SCS Total Energy          =    -403.9365516727582417 [Eh]
	-----------------------------------------------------------

  Dipole Moment: [D]
     X:    -2.5988      Y:    -3.0939      Z:     0.8039     Total:     4.1197

*** Psi4 exiting successfully. Buy a developer a beer!
