                               Psi4 1.4a3.dev225

  ==> Input File <==

--------------------------------------------------------------------------
#psi4
#
memory 32 gb

molecule  {
0 1
  O        1.7739800     1.6003060    -0.2911220
  N        0.9906540    -0.4920130     0.2058460
  C       -2.2286800    -0.2510300    -0.1765170
  C       -1.2730330    -1.4351160    -0.3152870
  C       -1.5989250     1.1242550    -0.3956020
  C       -0.0841310    -1.3759550     0.6456410
  C       -0.4584780     1.4603760     0.5782350
  C        0.8707430     0.8730760     0.1404640
  C        2.1918860    -1.1187650    -0.3259700
  H       -2.6618837    -0.2761239     0.8114434
  H       -3.0608600    -0.3791320    -0.8796750
  H       -1.8321650    -2.3606500    -0.1255340
  H       -0.8887130    -1.5005570    -1.3409750
  H       -2.3834680     1.8827830    -0.2893500
  H       -1.2246060     1.2090190    -1.4238390
  H       -0.4244360    -1.0900460     1.6492300
  H        0.3620160    -2.3701320     0.7449650
  H       -0.7218730     1.1400510     1.5944380
  H       -0.2910430     2.5394790     0.6064930
  H        1.9486170    -1.7578730    -1.1825500
  H        2.6762910    -1.7288140     0.4434650
  H        2.8674440    -0.3269360    -0.6441440
units angstrom
no_reorient  #important for SAPT in psi4, default
symmetry c1  #important for SAPT in psi4, default
}

set PROPERTIES_ORIGIN ["COM"]
properties('MP2/aug-cc-pvtz', properties = ['dipole'])
--------------------------------------------------------------------------

    Molecular point group: c1
  Charge       = 0
  Multiplicity = 1
  Basis Set: AUG-CC-PVTZ
    Blend: AUG-CC-PVTZ
  Basis Set: (AUG-CC-PVTZ AUX)
    Blend: AUG-CC-PVTZ-JKFIT

    Orbital Energies [Eh]
    ---------------------

    Doubly Occupied:

       1A    -20.505672     2A    -15.580543     3A    -11.339902
       4A    -11.272202     5A    -11.250554     6A    -11.234435
       7A    -11.233471     8A    -11.233131     9A    -11.228983
      10A     -1.361811    11A     -1.241162    12A     -1.097974
      13A     -1.038111    14A     -0.975937    15A     -0.914210
      16A     -0.878046    17A     -0.794128    18A     -0.725249
      19A     -0.690661    20A     -0.668755    21A     -0.633848
      22A     -0.608209    23A     -0.601878    24A     -0.594902
      25A     -0.583246    26A     -0.558595    27A     -0.544351
      28A     -0.527041    29A     -0.509778    30A     -0.509239
      31A     -0.480938    32A     -0.467284    33A     -0.465156
      34A     -0.407411    35A     -0.365060

  @DF-RHF Final Energy:  -402.11210539098528

   => Energetics <=

    Nuclear Repulsion Energy =            486.3985364906780546
    One-Electron Energy =               -1510.7775365098823386
    Two-Electron Energy =                 622.2668946282190063
    Total Energy =                       -402.1121053909853345
  Basis Set: (AUG-CC-PVTZ AUX)
    Blend: AUG-CC-PVTZ-RI
    Molecular point group: c1

    Geometry (in Angstrom), charge = 0, multiplicity = 1:

       Center              X                  Y                   Z               Mass
    ------------   -----------------  -----------------  -----------------  -----------------
         O            1.729914813044     1.561195367702    -0.291131903102    15.994914619570
         N            0.946588813044    -0.531123632298     0.205836096898    14.003074004430
         C           -2.272745186956    -0.290140632298    -0.176526903102    12.000000000000
         C           -1.317098186956    -1.474226632298    -0.315296903102    12.000000000000
         C           -1.642990186956     1.085144367702    -0.395611903102    12.000000000000
         C           -0.128196186956    -1.415065632298     0.645631096898    12.000000000000
         C           -0.502543186956     1.421265367702     0.578225096898    12.000000000000
         C            0.826677813044     0.833965367702     0.140454096898    12.000000000000
         C            2.147820813044    -1.157875632298    -0.325979903102    12.000000000000
         H           -2.705948886956    -0.315234532298     0.811433496898     1.007825032230
         H           -3.104925186956    -0.418242632298    -0.879684903102     1.007825032230
         H           -1.876230186956    -2.399760632298    -0.125543903102     1.007825032230
         H           -0.932778186956    -1.539667632298    -1.340984903102     1.007825032230
         H           -2.427533186956     1.843672367702    -0.289359903102     1.007825032230
         H           -1.268671186956     1.169908367702    -1.423848903102     1.007825032230
         H           -0.468501186956    -1.129156632298     1.649220096898     1.007825032230
         H            0.317950813044    -2.409242632298     0.744955096898     1.007825032230
         H           -0.765938186956     1.100940367702     1.594428096898     1.007825032230
         H           -0.335108186956     2.500368367702     0.606483096898     1.007825032230
         H            1.904551813044    -1.796983632298    -1.182559903102     1.007825032230
         H            2.632225813044    -1.767924632298     0.443455096898     1.007825032230
         H            2.823378813044    -0.366046632298    -0.644153903102     1.007825032230

  Basis Set: AUG-CC-PVTZ
    Blend: AUG-CC-PVTZ
  Basis Set: (AUG-CC-PVTZ AUX)
    Blend: AUG-CC-PVTZ-JKFIT
	 Reference Energy          =    -402.1121053909852776 [Eh]
	 Singles Energy            =      -0.0000000000000000 [Eh]
	 Same-Spin Energy          =      -0.4217749544301842 [Eh]
	 Opposite-Spin Energy      =      -1.4050866897017240 [Eh]
	 Correlation Energy        =      -1.8268616441319083 [Eh]
	 Total Energy              =    -403.9389670351171731 [Eh]

	 ================> DF-SCS-MP2 Energies <==================
	-----------------------------------------------------------
	 SCS Same-Spin Scale       =       0.3333333333333333 [-]
	 SCS Opposite-Spin Scale   =       1.2000000000000000 [-]
	 SCS Same-Spin Energy      =      -0.1405916514767281 [Eh]
	 SCS Opposite-Spin Energy  =      -1.6861040276420687 [Eh]
	 SCS Correlation Energy    =      -1.8266956791187967 [Eh]
	 SCS Total Energy          =    -403.9388010701040912 [Eh]
	-----------------------------------------------------------

  Dipole Moment: [D]
     X:    -2.5882      Y:    -3.1047      Z:     0.8054     Total:     4.1214

*** Psi4 exiting successfully. Buy a developer a beer!
