                               Psi4 1.3.2 release

  ==> Input File <==

--------------------------------------------------------------------------
#psi4
#
memory 32 gb

molecule  {
0 1
  O        1.7739800     1.6003060    -0.2911220
  N        0.9906540    -0.4920130     0.2058460
  C       -2.3153365    -0.3181180    -0.2929987
  C       -1.2730330    -1.4351160    -0.3152870
  C       -1.5989250     1.1242550    -0.3956020
  C       -0.0841310    -1.3759550     0.6456410
  C       -0.4584780     1.4603760     0.5782350
  C        0.8707430     0.8730760     0.1404640
  C        2.1918860    -1.1187650    -0.3259700
  H       -2.6699130    -0.2765890     0.8297550
  H       -3.0608600    -0.3791320    -0.8796750
  H       -1.8321650    -2.3606500    -0.1255340
  H       -0.8887130    -1.5005570    -1.3409750
  H       -2.3834680     1.8827830    -0.2893500
  H       -1.2246060     1.2090190    -1.4238390
  H       -0.4244360    -1.0900460     1.6492300
  H        0.3620160    -2.3701320     0.7449650
  H       -0.7218730     1.1400510     1.5944380
  H       -0.2910430     2.5394790     0.6064930
  H        1.9486170    -1.7578730    -1.1825500
  H        2.6762910    -1.7288140     0.4434650
  H        2.8674440    -0.3269360    -0.6441440
units angstrom
no_reorient  #important for SAPT in psi4, default
symmetry c1  #important for SAPT in psi4, default
}

set PROPERTIES_ORIGIN ["COM"]
properties('MP2/aug-cc-pvtz', properties = ['dipole'])
--------------------------------------------------------------------------

    Molecular point group: c1
  Charge       = 0
  Multiplicity = 1
  Basis Set: AUG-CC-PVTZ
    Blend: AUG-CC-PVTZ
  Basis Set: (AUG-CC-PVTZ AUX)
    Blend: AUG-CC-PVTZ-JKFIT

    Orbital Energies [Eh]
    ---------------------

    Doubly Occupied:

       1A    -20.506349     2A    -15.581188     3A    -11.340527
       4A    -11.276001     5A    -11.251064     6A    -11.237523
       7A    -11.236181     8A    -11.234411     9A    -11.232144
      10A     -1.362405    11A     -1.241715    12A     -1.089924
      13A     -1.038343    14A     -0.976909    15A     -0.918811
      16A     -0.875224    17A     -0.799845    18A     -0.726749
      19A     -0.691822    20A     -0.671042    21A     -0.630699
      22A     -0.624286    23A     -0.598188    24A     -0.589057
      25A     -0.581466    26A     -0.558259    27A     -0.546906
      28A     -0.526599    29A     -0.523787    30A     -0.508561
      31A     -0.483391    32A     -0.461004    33A     -0.441931
      34A     -0.408000    35A     -0.366303

  @DF-RHF Final Energy:  -402.08095069756860

   => Energetics <=

    Nuclear Repulsion Energy =            484.4994209121537097
    One-Electron Energy =               -1506.8875172731961811
    Two-Electron Energy =                 620.3071456634738752
    Total Energy =                       -402.0809506975685963
  Basis Set: (AUG-CC-PVTZ AUX)
    Blend: AUG-CC-PVTZ-RI
    Molecular point group: c1

    Geometry (in Angstrom), charge = 0, multiplicity = 1:

       Center              X                  Y                   Z               Mass
    ------------   -----------------  -----------------  -----------------  -----------------
         O            1.738160072582     1.567533106110    -0.280279592996    15.994914619570
         N            0.954834072582    -0.524785893890     0.216688407004    14.003074004430
         C           -2.351156427418    -0.350890893890    -0.282156292996    12.000000000000
         C           -1.308852927418    -1.467888893890    -0.304444592996    12.000000000000
         C           -1.634744927418     1.091482106110    -0.384759592996    12.000000000000
         C           -0.119950927418    -1.408727893890     0.656483407004    12.000000000000
         C           -0.494297927418     1.427603106110     0.589077407004    12.000000000000
         C            0.834923072582     0.840303106110     0.151306407004    12.000000000000
         C            2.156066072582    -1.151537893890    -0.315127592996    12.000000000000
         H           -2.705732927418    -0.309361893890     0.840597407004     1.007825032230
         H           -3.096679927418    -0.411904893890    -0.868832592996     1.007825032230
         H           -1.867984927418    -2.393422893890    -0.114691592996     1.007825032230
         H           -0.924532927418    -1.533329893890    -1.330132592996     1.007825032230
         H           -2.419287927418     1.850010106110    -0.278507592996     1.007825032230
         H           -1.260425927418     1.176246106110    -1.412996592996     1.007825032230
         H           -0.460255927418    -1.122818893890     1.660072407004     1.007825032230
         H            0.326196072582    -2.402904893890     0.755807407004     1.007825032230
         H           -0.757692927418     1.107278106110     1.605280407004     1.007825032230
         H           -0.326862927418     2.506706106110     0.617335407004     1.007825032230
         H            1.912797072582    -1.790645893890    -1.171707592996     1.007825032230
         H            2.640471072582    -1.761586893890     0.454307407004     1.007825032230
         H            2.831624072582    -0.359708893890    -0.633301592996     1.007825032230

  Basis Set: AUG-CC-PVTZ
    Blend: AUG-CC-PVTZ
  Basis Set: (AUG-CC-PVTZ AUX)
    Blend: AUG-CC-PVTZ-JKFIT
	 Reference Energy          =    -402.0809506975685963 [Eh]
	 Singles Energy            =      -0.0000000000000000 [Eh]
	 Same-Spin Energy          =      -0.4217390063082628 [Eh]
	 Opposite-Spin Energy      =      -1.4061855940535535 [Eh]
	 Correlation Energy        =      -1.8279246003618161 [Eh]
	 Total Energy              =    -403.9088752979304218 [Eh]

	 ================> DF-SCS-MP2 Energies <==================
	-----------------------------------------------------------
	 SCS Same-Spin Scale       =       0.3333333333333333 [-]
	 SCS Opposite-Spin Scale   =       1.2000000000000000 [-]
	 SCS Same-Spin Energy      =      -0.1405796687694209 [Eh]
	 SCS Opposite-Spin Energy  =      -1.6874227128642640 [Eh]
	 SCS Correlation Energy    =      -1.8280023816336850 [Eh]
	 SCS Total Energy          =    -403.9089530792022629 [Eh]
	-----------------------------------------------------------

  Dipole Moment: [D]
     X:    -2.5253      Y:    -3.1095      Z:     0.7506     Total:     4.0755

*** Psi4 exiting successfully. Buy a developer a beer!
