                               Psi4 1.3.2 release

  ==> Input File <==

--------------------------------------------------------------------------
#psi4
#
memory 32 gb

molecule  {
0 1
  O        1.7739800     1.6003060    -0.2911220
  N        0.9906540    -0.4920130     0.2058460
  C       -2.1322820    -0.2936569    -0.1929827
  C       -1.2730330    -1.4351160    -0.3152870
  C       -1.5989250     1.1242550    -0.3956020
  C       -0.0841310    -1.3759550     0.6456410
  C       -0.4584780     1.4603760     0.5782350
  C        0.8707430     0.8730760     0.1404640
  C        2.1918860    -1.1187650    -0.3259700
  H       -2.6699130    -0.2765890     0.8297550
  H       -3.0608600    -0.3791320    -0.8796750
  H       -1.8321650    -2.3606500    -0.1255340
  H       -0.8887130    -1.5005570    -1.3409750
  H       -2.3834680     1.8827830    -0.2893500
  H       -1.2246060     1.2090190    -1.4238390
  H       -0.4244360    -1.0900460     1.6492300
  H        0.3620160    -2.3701320     0.7449650
  H       -0.7218730     1.1400510     1.5944380
  H       -0.2910430     2.5394790     0.6064930
  H        1.9486170    -1.7578730    -1.1825500
  H        2.6762910    -1.7288140     0.4434650
  H        2.8674440    -0.3269360    -0.6441440
units angstrom
no_reorient  #important for SAPT in psi4, default
symmetry c1  #important for SAPT in psi4, default
}

set PROPERTIES_ORIGIN ["COM"]
properties('MP2/aug-cc-pvtz', properties = ['dipole'])
--------------------------------------------------------------------------

    Molecular point group: c1
  Charge       = 0
  Multiplicity = 1
  Basis Set: AUG-CC-PVTZ
    Blend: AUG-CC-PVTZ
  Basis Set: (AUG-CC-PVTZ AUX)
    Blend: AUG-CC-PVTZ-JKFIT

    Orbital Energies [Eh]
    ---------------------

    Doubly Occupied:

       1A    -20.505989     2A    -15.581403     3A    -11.340325
       4A    -11.272539     5A    -11.251079     6A    -11.237698
       7A    -11.236442     8A    -11.232744     9A    -11.230869
      10A     -1.362220    11A     -1.242490    12A     -1.107620
      13A     -1.044581    14A     -0.974469    15A     -0.914792
      16A     -0.883006    17A     -0.784621    18A     -0.726993
      19A     -0.691644    20A     -0.672181    21A     -0.633502
      22A     -0.614144    23A     -0.605030    24A     -0.592109
      25A     -0.585566    26A     -0.558271    27A     -0.545228
      28A     -0.529871    29A     -0.510692    30A     -0.506753
      31A     -0.487549    32A     -0.463242    33A     -0.451725
      34A     -0.407089    35A     -0.365294

  @DF-RHF Final Energy:  -402.09844572814501

   => Energetics <=

    Nuclear Repulsion Energy =            487.9228434435552799
    One-Electron Energy =               -1513.7430376040701958
    Two-Electron Energy =                 623.7217484323697363
    Total Energy =                       -402.0984457281450659
  Basis Set: (AUG-CC-PVTZ AUX)
    Blend: AUG-CC-PVTZ-RI
    Molecular point group: c1

    Geometry (in Angstrom), charge = 0, multiplicity = 1:

       Center              X                  Y                   Z               Mass
    ------------   -----------------  -----------------  -----------------  -----------------
         O            1.720877154076     1.565223634353    -0.289722509599    15.994914619570
         N            0.937551154076    -0.527095365647     0.207245490401    14.003074004430
         C           -2.185384845924    -0.328739265647    -0.191583209599    12.000000000000
         C           -1.326135845924    -1.470198365647    -0.313887509599    12.000000000000
         C           -1.652027845924     1.089172634353    -0.394202509599    12.000000000000
         C           -0.137233845924    -1.411037365647     0.647040490401    12.000000000000
         C           -0.511580845924     1.425293634353     0.579634490401    12.000000000000
         C            0.817640154076     0.837993634353     0.141863490401    12.000000000000
         C            2.138783154076    -1.153847365647    -0.324570509599    12.000000000000
         H           -2.723015845924    -0.311671365647     0.831154490401     1.007825032230
         H           -3.113962845924    -0.414214365647    -0.878275509599     1.007825032230
         H           -1.885267845924    -2.395732365647    -0.124134509599     1.007825032230
         H           -0.941815845924    -1.535639365647    -1.339575509599     1.007825032230
         H           -2.436570845924     1.847700634353    -0.287950509599     1.007825032230
         H           -1.277708845924     1.173936634353    -1.422439509599     1.007825032230
         H           -0.477538845924    -1.125128365647     1.650629490401     1.007825032230
         H            0.308913154076    -2.405214365647     0.746364490401     1.007825032230
         H           -0.774975845924     1.104968634353     1.595837490401     1.007825032230
         H           -0.344145845924     2.504396634353     0.607892490401     1.007825032230
         H            1.895514154076    -1.792955365647    -1.181150509599     1.007825032230
         H            2.623188154076    -1.763896365647     0.444864490401     1.007825032230
         H            2.814341154076    -0.362018365647    -0.642744509599     1.007825032230

  Basis Set: AUG-CC-PVTZ
    Blend: AUG-CC-PVTZ
  Basis Set: (AUG-CC-PVTZ AUX)
    Blend: AUG-CC-PVTZ-JKFIT
	 Reference Energy          =    -402.0984457281450091 [Eh]
	 Singles Energy            =      -0.0000000000000000 [Eh]
	 Same-Spin Energy          =      -0.4228963971451632 [Eh]
	 Opposite-Spin Energy      =      -1.4067228112979957 [Eh]
	 Correlation Energy        =      -1.8296192084431588 [Eh]
	 Total Energy              =    -403.9280649365881573 [Eh]

	 ================> DF-SCS-MP2 Energies <==================
	-----------------------------------------------------------
	 SCS Same-Spin Scale       =       0.3333333333333333 [-]
	 SCS Opposite-Spin Scale   =       1.2000000000000000 [-]
	 SCS Same-Spin Energy      =      -0.1409654657150544 [Eh]
	 SCS Opposite-Spin Energy  =      -1.6880673735575948 [Eh]
	 SCS Correlation Energy    =      -1.8290328392726494 [Eh]
	 SCS Total Energy          =    -403.9274785674176655 [Eh]
	-----------------------------------------------------------

  Dipole Moment: [D]
     X:    -2.5179      Y:    -3.1175      Z:     0.7694     Total:     4.0805

*** Psi4 exiting successfully. Buy a developer a beer!
