                               Psi4 1.3.2 release

  ==> Input File <==

--------------------------------------------------------------------------
#psi4
#
memory 32 gb

molecule  {
0 1
  O        1.7739800     1.6003060    -0.2911220
  N        0.9906540    -0.4920130     0.2058460
  C       -2.2286800    -0.2510300    -0.1765170
  C       -1.2730330    -1.4351160    -0.3152870
  C       -1.5989250     1.1242550    -0.3956020
  C        0.0122561    -1.4919779     0.6214703
  C       -0.4584780     1.4603760     0.5782350
  C        0.8707430     0.8730760     0.1404640
  C        2.1918860    -1.1187650    -0.3259700
  H       -2.6699130    -0.2765890     0.8297550
  H       -3.0608600    -0.3791320    -0.8796750
  H       -1.8321650    -2.3606500    -0.1255340
  H       -0.8887130    -1.5005570    -1.3409750
  H       -2.3834680     1.8827830    -0.2893500
  H       -1.2246060     1.2090190    -1.4238390
  H       -0.4244360    -1.0900460     1.6492300
  H        0.3620160    -2.3701320     0.7449650
  H       -0.7218730     1.1400510     1.5944380
  H       -0.2910430     2.5394790     0.6064930
  H        1.9486170    -1.7578730    -1.1825500
  H        2.6762910    -1.7288140     0.4434650
  H        2.8674440    -0.3269360    -0.6441440
units angstrom
no_reorient  #important for SAPT in psi4, default
symmetry c1  #important for SAPT in psi4, default
}

set PROPERTIES_ORIGIN ["COM"]
properties('MP2/aug-cc-pvtz', properties = ['dipole'])
--------------------------------------------------------------------------

    Molecular point group: c1
  Charge       = 0
  Multiplicity = 1
  Basis Set: AUG-CC-PVTZ
    Blend: AUG-CC-PVTZ
  Basis Set: (AUG-CC-PVTZ AUX)
    Blend: AUG-CC-PVTZ-JKFIT

    Orbital Energies [Eh]
    ---------------------

    Doubly Occupied:

       1A    -20.507541     2A    -15.581794     3A    -11.343941
       4A    -11.273916     5A    -11.249108     6A    -11.236780
       7A    -11.234802     8A    -11.233949     9A    -11.233622
      10A     -1.363249    11A     -1.242167    12A     -1.094527
      13A     -1.036257    14A     -0.973364    15A     -0.924242
      16A     -0.879487    17A     -0.791688    18A     -0.728882
      19A     -0.689176    20A     -0.679366    21A     -0.632639
      22A     -0.615628    23A     -0.603851    24A     -0.599805
      25A     -0.585524    26A     -0.551715    27A     -0.544490
      28A     -0.524003    29A     -0.509958    30A     -0.497787
      31A     -0.476896    32A     -0.473102    33A     -0.462967
      34A     -0.409866    35A     -0.359219

  @DF-RHF Final Energy:  -402.08119617377230

   => Energetics <=

    Nuclear Repulsion Energy =            484.9985349547281999
    One-Electron Energy =               -1507.8688466742025867
    Two-Electron Energy =                 620.7891155457020886
    Total Energy =                       -402.0811961737722413
  Basis Set: (AUG-CC-PVTZ AUX)
    Blend: AUG-CC-PVTZ-RI
    Molecular point group: c1

    Geometry (in Angstrom), charge = 0, multiplicity = 1:

       Center              X                  Y                   Z               Mass
    ------------   -----------------  -----------------  -----------------  -----------------
         O            1.720878183189     1.572153248684    -0.288995049268    15.994914619570
         N            0.937552183189    -0.520165751316     0.207972950732    14.003074004430
         C           -2.281781816811    -0.279182751316    -0.174390049268    12.000000000000
         C           -1.326134816811    -1.463268751316    -0.313160049268    12.000000000000
         C           -1.652026816811     1.096102248684    -0.393475049268    12.000000000000
         C           -0.040845716811    -1.520130651316     0.623597250732    12.000000000000
         C           -0.511579816811     1.432223248684     0.580361950732    12.000000000000
         C            0.817641183189     0.844923248684     0.142590950732    12.000000000000
         C            2.138784183189    -1.146917751316    -0.323843049268    12.000000000000
         H           -2.723014816811    -0.304741751316     0.831881950732     1.007825032230
         H           -3.113961816811    -0.407284751316    -0.877548049268     1.007825032230
         H           -1.885266816811    -2.388802751316    -0.123407049268     1.007825032230
         H           -0.941814816811    -1.528709751316    -1.338848049268     1.007825032230
         H           -2.436569816811     1.854630248684    -0.287223049268     1.007825032230
         H           -1.277707816811     1.180866248684    -1.421712049268     1.007825032230
         H           -0.477537816811    -1.118198751316     1.651356950732     1.007825032230
         H            0.308914183189    -2.398284751316     0.747091950732     1.007825032230
         H           -0.774974816811     1.111898248684     1.596564950732     1.007825032230
         H           -0.344144816811     2.511326248684     0.608619950732     1.007825032230
         H            1.895515183189    -1.786025751316    -1.180423049268     1.007825032230
         H            2.623189183189    -1.756966751316     0.445591950732     1.007825032230
         H            2.814342183189    -0.355088751316    -0.642017049268     1.007825032230

  Basis Set: AUG-CC-PVTZ
    Blend: AUG-CC-PVTZ
  Basis Set: (AUG-CC-PVTZ AUX)
    Blend: AUG-CC-PVTZ-JKFIT
	 Reference Energy          =    -402.0811961737722982 [Eh]
	 Singles Energy            =      -0.0000000000000000 [Eh]
	 Same-Spin Energy          =      -0.4219513185107603 [Eh]
	 Opposite-Spin Energy      =      -1.4063797602021271 [Eh]
	 Correlation Energy        =      -1.8283310787128875 [Eh]
	 Total Energy              =    -403.9095272524851907 [Eh]

	 ================> DF-SCS-MP2 Energies <==================
	-----------------------------------------------------------
	 SCS Same-Spin Scale       =       0.3333333333333333 [-]
	 SCS Opposite-Spin Scale   =       1.2000000000000000 [-]
	 SCS Same-Spin Energy      =      -0.1406504395035868 [Eh]
	 SCS Opposite-Spin Energy  =      -1.6876557122425524 [Eh]
	 SCS Correlation Energy    =      -1.8283061517461392 [Eh]
	 SCS Total Energy          =    -403.9095023255184174 [Eh]
	-----------------------------------------------------------

  Dipole Moment: [D]
     X:    -2.5405      Y:    -3.1163      Z:     0.7551     Total:     4.0910

*** Psi4 exiting successfully. Buy a developer a beer!
