                               Psi4 1.3.2 release

  ==> Input File <==

--------------------------------------------------------------------------
#psi4
#
memory 32 gb

molecule  {
0 1
  O        1.7864589     1.5828884    -0.2938145
  N        0.9906540    -0.4920130     0.2058460
  C       -2.2286800    -0.2510300    -0.1765170
  C       -1.2730330    -1.4351160    -0.3152870
  C       -1.5989250     1.1242550    -0.3956020
  C       -0.0841310    -1.3759550     0.6456410
  C       -0.4584780     1.4603760     0.5782350
  C        0.8707430     0.8730760     0.1404640
  C        2.1918860    -1.1187650    -0.3259700
  H       -2.6699130    -0.2765890     0.8297550
  H       -3.0608600    -0.3791320    -0.8796750
  H       -1.8321650    -2.3606500    -0.1255340
  H       -0.8887130    -1.5005570    -1.3409750
  H       -2.3834680     1.8827830    -0.2893500
  H       -1.2246060     1.2090190    -1.4238390
  H       -0.4244360    -1.0900460     1.6492300
  H        0.3620160    -2.3701320     0.7449650
  H       -0.7218730     1.1400510     1.5944380
  H       -0.2910430     2.5394790     0.6064930
  H        1.9486170    -1.7578730    -1.1825500
  H        2.6762910    -1.7288140     0.4434650
  H        2.8674440    -0.3269360    -0.6441440
units angstrom
no_reorient  #important for SAPT in psi4, default
symmetry c1  #important for SAPT in psi4, default
}

set PROPERTIES_ORIGIN ["COM"]
properties('MP2/aug-cc-pvtz', properties = ['dipole'])
--------------------------------------------------------------------------

    Molecular point group: c1
  Charge       = 0
  Multiplicity = 1
  Basis Set: AUG-CC-PVTZ
    Blend: AUG-CC-PVTZ
  Basis Set: (AUG-CC-PVTZ AUX)
    Blend: AUG-CC-PVTZ-JKFIT

    Orbital Energies [Eh]
    ---------------------

    Doubly Occupied:

       1A    -20.505403     2A    -15.579573     3A    -11.339966
       4A    -11.271707     5A    -11.249691     6A    -11.235260
       7A    -11.234561     8A    -11.233255     9A    -11.231668
      10A     -1.362183    11A     -1.240014    12A     -1.097790
      13A     -1.038425    14A     -0.975429    15A     -0.913523
      16A     -0.878235    17A     -0.792654    18A     -0.724819
      19A     -0.690942    20A     -0.668814    21A     -0.632994
      22A     -0.608189    23A     -0.601943    24A     -0.594405
      25A     -0.583318    26A     -0.558131    27A     -0.544371
      28A     -0.526439    29A     -0.509490    30A     -0.509058
      31A     -0.479529    32A     -0.467772    33A     -0.465569
      34A     -0.407910    35A     -0.364296

  @DF-RHF Final Energy:  -402.11192375006880

   => Energetics <=

    Nuclear Repulsion Energy =            486.3803988815679418
    One-Electron Energy =               -1510.7500002130223038
    Two-Electron Energy =                 622.2576775813854510
    Total Energy =                       -402.1119237500688541
  Basis Set: (AUG-CC-PVTZ AUX)
    Blend: AUG-CC-PVTZ-RI
    Molecular point group: c1

    Geometry (in Angstrom), charge = 0, multiplicity = 1:

       Center              X                  Y                   Z               Mass
    ------------   -----------------  -----------------  -----------------  -----------------
         O            1.740886968423     1.545973380543    -0.293630764438    15.994914619570
         N            0.945082068423    -0.528928019457     0.206029735562    14.003074004430
         C           -2.274251931577    -0.287945019457    -0.176333264438    12.000000000000
         C           -1.318604931577    -1.472031019457    -0.315103264438    12.000000000000
         C           -1.644496931577     1.087339980543    -0.395418264438    12.000000000000
         C           -0.129702931577    -1.412870019457     0.645824735562    12.000000000000
         C           -0.504049931577     1.423460980543     0.578418735562    12.000000000000
         C            0.825171068423     0.836160980543     0.140647735562    12.000000000000
         C            2.146314068423    -1.155680019457    -0.325786264438    12.000000000000
         H           -2.715484931577    -0.313504019457     0.829938735562     1.007825032230
         H           -3.106431931577    -0.416047019457    -0.879491264438     1.007825032230
         H           -1.877736931577    -2.397565019457    -0.125350264438     1.007825032230
         H           -0.934284931577    -1.537472019457    -1.340791264438     1.007825032230
         H           -2.429039931577     1.845867980543    -0.289166264438     1.007825032230
         H           -1.270177931577     1.172103980543    -1.423655264438     1.007825032230
         H           -0.470007931577    -1.126961019457     1.649413735562     1.007825032230
         H            0.316444068423    -2.407047019457     0.745148735562     1.007825032230
         H           -0.767444931577     1.103135980543     1.594621735562     1.007825032230
         H           -0.336614931577     2.502563980543     0.606676735562     1.007825032230
         H            1.903045068423    -1.794788019457    -1.182366264438     1.007825032230
         H            2.630719068423    -1.765729019457     0.443648735562     1.007825032230
         H            2.821872068423    -0.363851019457    -0.643960264438     1.007825032230

  Basis Set: AUG-CC-PVTZ
    Blend: AUG-CC-PVTZ
  Basis Set: (AUG-CC-PVTZ AUX)
    Blend: AUG-CC-PVTZ-JKFIT
	 Reference Energy          =    -402.1119237500687973 [Eh]
	 Singles Energy            =      -0.0000000000000000 [Eh]
	 Same-Spin Energy          =      -0.4218285887123067 [Eh]
	 Opposite-Spin Energy      =      -1.4052311001099191 [Eh]
	 Correlation Energy        =      -1.8270596888222259 [Eh]
	 Total Energy              =    -403.9389834388910003 [Eh]

	 ================> DF-SCS-MP2 Energies <==================
	-----------------------------------------------------------
	 SCS Same-Spin Scale       =       0.3333333333333333 [-]
	 SCS Opposite-Spin Scale   =       1.2000000000000000 [-]
	 SCS Same-Spin Energy      =      -0.1406095295707689 [Eh]
	 SCS Opposite-Spin Energy  =      -1.6862773201319030 [Eh]
	 SCS Correlation Energy    =      -1.8268868497026718 [Eh]
	 SCS Total Energy          =    -403.9388105997714433 [Eh]
	-----------------------------------------------------------

  Dipole Moment: [D]
     X:    -2.6180      Y:    -3.0522      Z:     0.8006     Total:     4.1001

*** Psi4 exiting successfully. Buy a developer a beer!
