                               Psi4 1.3.2 release

  ==> Input File <==

--------------------------------------------------------------------------
#psi4
#
memory 32 gb

molecule  {
0 1
  O        1.7739800     1.6003060    -0.2911220
  N        1.0412758    -0.5172882     0.2905540
  C       -2.2286800    -0.2510300    -0.1765170
  C       -1.2730330    -1.4351160    -0.3152870
  C       -1.5989250     1.1242550    -0.3956020
  C       -0.0841310    -1.3759550     0.6456410
  C       -0.4584780     1.4603760     0.5782350
  C        0.8707430     0.8730760     0.1404640
  C        2.1918860    -1.1187650    -0.3259700
  H       -2.6699130    -0.2765890     0.8297550
  H       -3.0608600    -0.3791320    -0.8796750
  H       -1.8321650    -2.3606500    -0.1255340
  H       -0.8887130    -1.5005570    -1.3409750
  H       -2.3834680     1.8827830    -0.2893500
  H       -1.2246060     1.2090190    -1.4238390
  H       -0.4244360    -1.0900460     1.6492300
  H        0.3620160    -2.3701320     0.7449650
  H       -0.7218730     1.1400510     1.5944380
  H       -0.2910430     2.5394790     0.6064930
  H        1.9486170    -1.7578730    -1.1825500
  H        2.6762910    -1.7288140     0.4434650
  H        2.8674440    -0.3269360    -0.6441440
units angstrom
no_reorient  #important for SAPT in psi4, default
symmetry c1  #important for SAPT in psi4, default
}

set PROPERTIES_ORIGIN ["COM"]
properties('MP2/aug-cc-pvtz', properties = ['dipole'])
--------------------------------------------------------------------------

    Molecular point group: c1
  Charge       = 0
  Multiplicity = 1
  Basis Set: AUG-CC-PVTZ
    Blend: AUG-CC-PVTZ
  Basis Set: (AUG-CC-PVTZ AUX)
    Blend: AUG-CC-PVTZ-JKFIT

    Orbital Energies [Eh]
    ---------------------

    Doubly Occupied:

       1A    -20.513283     2A    -15.578714     3A    -11.345269
       4A    -11.269643     5A    -11.246782     6A    -11.236532
       7A    -11.235906     8A    -11.234543     9A    -11.232244
      10A     -1.363696    11A     -1.238564    12A     -1.099200
      13A     -1.037227    14A     -0.976116    15A     -0.905833
      16A     -0.880179    17A     -0.792517    18A     -0.722612
      19A     -0.691631    20A     -0.667900    21A     -0.632259
      22A     -0.612771    23A     -0.603112    24A     -0.592544
      25A     -0.583637    26A     -0.557791    27A     -0.545134
      28A     -0.525947    29A     -0.511083    30A     -0.506725
      31A     -0.480244    32A     -0.469087    33A     -0.465886
      34A     -0.411031    35A     -0.364449

  @DF-RHF Final Energy:  -402.10773331974019

   => Energetics <=

    Nuclear Repulsion Energy =            485.2565628871492436
    One-Electron Energy =               -1508.4684055884720237
    Two-Electron Energy =                 621.1041093815825889
    Total Energy =                       -402.1077333197401913
  Basis Set: (AUG-CC-PVTZ AUX)
    Blend: AUG-CC-PVTZ-RI
    Molecular point group: c1

    Geometry (in Angstrom), charge = 0, multiplicity = 1:

       Center              X                  Y                   Z               Mass
    ------------   -----------------  -----------------  -----------------  -----------------
         O            1.724401278357     1.563983723586    -0.300609715784    15.994914619570
         N            0.991697078357    -0.553610476414     0.281066284216    14.003074004430
         C           -2.278258721643    -0.287352276414    -0.186004715784    12.000000000000
         C           -1.322611721643    -1.471438276414    -0.324774715784    12.000000000000
         C           -1.648503721643     1.087932723586    -0.405089715784    12.000000000000
         C           -0.133709721643    -1.412277276414     0.636153284216    12.000000000000
         C           -0.508056721643     1.424053723586     0.568747284216    12.000000000000
         C            0.821164278357     0.836753723586     0.130976284216    12.000000000000
         C            2.142307278357    -1.155087276414    -0.335457715784    12.000000000000
         H           -2.719491721643    -0.312911276414     0.820267284216     1.007825032230
         H           -3.110438721643    -0.415454276414    -0.889162715784     1.007825032230
         H           -1.881743721643    -2.396972276414    -0.135021715784     1.007825032230
         H           -0.938291721643    -1.536879276414    -1.350462715784     1.007825032230
         H           -2.433046721643     1.846460723586    -0.298837715784     1.007825032230
         H           -1.274184721643     1.172696723586    -1.433326715784     1.007825032230
         H           -0.474014721643    -1.126368276414     1.639742284216     1.007825032230
         H            0.312437278357    -2.406454276414     0.735477284216     1.007825032230
         H           -0.771451721643     1.103728723586     1.584950284216     1.007825032230
         H           -0.340621721643     2.503156723586     0.597005284216     1.007825032230
         H            1.899038278357    -1.794195276414    -1.192037715784     1.007825032230
         H            2.626712278357    -1.765136276414     0.433977284216     1.007825032230
         H            2.817865278357    -0.363258276414    -0.653631715784     1.007825032230

  Basis Set: AUG-CC-PVTZ
    Blend: AUG-CC-PVTZ
  Basis Set: (AUG-CC-PVTZ AUX)
    Blend: AUG-CC-PVTZ-JKFIT
	 Reference Energy          =    -402.1077333197401913 [Eh]
	 Singles Energy            =      -0.0000000000000000 [Eh]
	 Same-Spin Energy          =      -0.4219625202623913 [Eh]
	 Opposite-Spin Energy      =      -1.4057324657945576 [Eh]
	 Correlation Energy        =      -1.8276949860569489 [Eh]
	 Total Energy              =    -403.9354283057971315 [Eh]

	 ================> DF-SCS-MP2 Energies <==================
	-----------------------------------------------------------
	 SCS Same-Spin Scale       =       0.3333333333333333 [-]
	 SCS Opposite-Spin Scale   =       1.2000000000000000 [-]
	 SCS Same-Spin Energy      =      -0.1406541734207971 [Eh]
	 SCS Opposite-Spin Energy  =      -1.6868789589534690 [Eh]
	 SCS Correlation Energy    =      -1.8275331323742661 [Eh]
	 SCS Total Energy          =    -403.9352664521144334 [Eh]
	-----------------------------------------------------------

  Dipole Moment: [D]
     X:    -2.6680      Y:    -2.8389      Z:     0.6453     Total:     3.9490

*** Psi4 exiting successfully. Buy a developer a beer!
