                               Psi4 1.3.2 release

  ==> Input File <==

--------------------------------------------------------------------------
#psi4
#
memory 32 gb

molecule  {
0 1
  O        1.7739800     1.6003060    -0.2911220
  N        0.9906540    -0.4920130     0.2058460
  C       -2.2286800    -0.2510300    -0.1765170
  C       -1.2730330    -1.4351160    -0.3152870
  C       -1.5989250     1.1242550    -0.3956020
  C       -0.0841310    -1.3759550     0.6456410
  C       -0.4584780     1.4603760     0.5782350
  C        0.8585148     0.9237106     0.0482224
  C        2.1918860    -1.1187650    -0.3259700
  H       -2.6699130    -0.2765890     0.8297550
  H       -3.0608600    -0.3791320    -0.8796750
  H       -1.8321650    -2.3606500    -0.1255340
  H       -0.8887130    -1.5005570    -1.3409750
  H       -2.3834680     1.8827830    -0.2893500
  H       -1.2246060     1.2090190    -1.4238390
  H       -0.4244360    -1.0900460     1.6492300
  H        0.3620160    -2.3701320     0.7449650
  H       -0.7218730     1.1400510     1.5944380
  H       -0.2910430     2.5394790     0.6064930
  H        1.9486170    -1.7578730    -1.1825500
  H        2.6762910    -1.7288140     0.4434650
  H        2.8674440    -0.3269360    -0.6441440
units angstrom
no_reorient  #important for SAPT in psi4, default
symmetry c1  #important for SAPT in psi4, default
}

set PROPERTIES_ORIGIN ["COM"]
properties('MP2/aug-cc-pvtz', properties = ['dipole'])
--------------------------------------------------------------------------

    Molecular point group: c1
  Charge       = 0
  Multiplicity = 1
  Basis Set: AUG-CC-PVTZ
    Blend: AUG-CC-PVTZ
  Basis Set: (AUG-CC-PVTZ AUX)
    Blend: AUG-CC-PVTZ-JKFIT

    Orbital Energies [Eh]
    ---------------------

    Doubly Occupied:

       1A    -20.520670     2A    -15.568606     3A    -11.342246
       4A    -11.266449     5A    -11.244913     6A    -11.234278
       7A    -11.233666     8A    -11.230408     9A    -11.229655
      10A     -1.396724    11A     -1.228739    12A     -1.095775
      13A     -1.036202    14A     -0.969739    15A     -0.899158
      16A     -0.875522    17A     -0.789492    18A     -0.720772
      19A     -0.695311    20A     -0.668117    21A     -0.631091
      22A     -0.609789    23A     -0.605617    24A     -0.591527
      25A     -0.584169    26A     -0.558026    27A     -0.550430
      28A     -0.526015    29A     -0.513569    30A     -0.508639
      31A     -0.478140    32A     -0.470546    33A     -0.463144
      34A     -0.412112    35A     -0.359250

  @DF-RHF Final Energy:  -402.10575055053403

   => Energetics <=

    Nuclear Repulsion Energy =            486.2296603983391492
    One-Electron Energy =               -1510.4538116252692816
    Two-Electron Energy =                 622.1184006763961634
    Total Energy =                       -402.1057505505340259
  Basis Set: (AUG-CC-PVTZ AUX)
    Blend: AUG-CC-PVTZ-RI
    Molecular point group: c1

    Geometry (in Angstrom), charge = 0, multiplicity = 1:

       Center              X                  Y                   Z               Mass
    ------------   -----------------  -----------------  -----------------  -----------------
         O            1.731132994617     1.556418437516    -0.282568199246    15.994914619570
         N            0.947806994617    -0.535900562484     0.214399800754    14.003074004430
         C           -2.271527005383    -0.294917562484    -0.167963199246    12.000000000000
         C           -1.315880005383    -1.479003562484    -0.306733199246    12.000000000000
         C           -1.641772005383     1.080367437516    -0.387048199246    12.000000000000
         C           -0.126978005383    -1.419842562484     0.654194800754    12.000000000000
         C           -0.501325005383     1.416488437516     0.586788800754    12.000000000000
         C            0.815667794617     0.879823037516     0.056776200754    12.000000000000
         C            2.149038994617    -1.162652562484    -0.317416199246    12.000000000000
         H           -2.712760005383    -0.320476562484     0.838308800754     1.007825032230
         H           -3.103707005383    -0.423019562484    -0.871121199246     1.007825032230
         H           -1.875012005383    -2.404537562484    -0.116980199246     1.007825032230
         H           -0.931560005383    -1.544444562484    -1.332421199246     1.007825032230
         H           -2.426315005383     1.838895437516    -0.280796199246     1.007825032230
         H           -1.267453005383     1.165131437516    -1.415285199246     1.007825032230
         H           -0.467283005383    -1.133933562484     1.657783800754     1.007825032230
         H            0.319168994617    -2.414019562484     0.753518800754     1.007825032230
         H           -0.764720005383     1.096163437516     1.602991800754     1.007825032230
         H           -0.333890005383     2.495591437516     0.615046800754     1.007825032230
         H            1.905769994617    -1.801760562484    -1.173996199246     1.007825032230
         H            2.633443994617    -1.772701562484     0.452018800754     1.007825032230
         H            2.824596994617    -0.370823562484    -0.635590199246     1.007825032230

  Basis Set: AUG-CC-PVTZ
    Blend: AUG-CC-PVTZ
  Basis Set: (AUG-CC-PVTZ AUX)
    Blend: AUG-CC-PVTZ-JKFIT
	 Reference Energy          =    -402.1057505505340259 [Eh]
	 Singles Energy            =      -0.0000000000000000 [Eh]
	 Same-Spin Energy          =      -0.4212310322949419 [Eh]
	 Opposite-Spin Energy      =      -1.4042358201425966 [Eh]
	 Correlation Energy        =      -1.8254668524375384 [Eh]
	 Total Energy              =    -403.9312174029715834 [Eh]

	 ================> DF-SCS-MP2 Energies <==================
	-----------------------------------------------------------
	 SCS Same-Spin Scale       =       0.3333333333333333 [-]
	 SCS Opposite-Spin Scale   =       1.2000000000000000 [-]
	 SCS Same-Spin Energy      =      -0.1404103440983139 [Eh]
	 SCS Opposite-Spin Energy  =      -1.6850829841711159 [Eh]
	 SCS Correlation Energy    =      -1.8254933282694299 [Eh]
	 SCS Total Energy          =    -403.9312438788034569 [Eh]
	-----------------------------------------------------------

  Dipole Moment: [D]
     X:    -2.4463      Y:    -2.5386      Z:     0.6673     Total:     3.5881

*** Psi4 exiting successfully. Buy a developer a beer!
