                               Psi4 1.3.2 release

  ==> Input File <==

--------------------------------------------------------------------------
#psi4
#
memory 32 gb

molecule  {
0 1
  O        1.7739800     1.6003060    -0.2911220
  N        0.9906540    -0.4920130     0.2058460
  C       -2.2286800    -0.2510300    -0.1765170
  C       -1.2730330    -1.4351160    -0.3152870
  C       -1.5989250     1.1242550    -0.3956020
  C       -0.0841310    -1.3759550     0.6456410
  C       -0.6068901     1.4166349     0.4515047
  C        0.8707430     0.8730760     0.1404640
  C        2.1918860    -1.1187650    -0.3259700
  H       -2.6699130    -0.2765890     0.8297550
  H       -3.0608600    -0.3791320    -0.8796750
  H       -1.8321650    -2.3606500    -0.1255340
  H       -0.8887130    -1.5005570    -1.3409750
  H       -2.3834680     1.8827830    -0.2893500
  H       -1.2246060     1.2090190    -1.4238390
  H       -0.4244360    -1.0900460     1.6492300
  H        0.3620160    -2.3701320     0.7449650
  H       -0.7218730     1.1400510     1.5944380
  H       -0.2910430     2.5394790     0.6064930
  H        1.9486170    -1.7578730    -1.1825500
  H        2.6762910    -1.7288140     0.4434650
  H        2.8674440    -0.3269360    -0.6441440
units angstrom
no_reorient  #important for SAPT in psi4, default
symmetry c1  #important for SAPT in psi4, default
}

set PROPERTIES_ORIGIN ["COM"]
properties('MP2/aug-cc-pvtz', properties = ['dipole'])
--------------------------------------------------------------------------

    Molecular point group: c1
  Charge       = 0
  Multiplicity = 1
  Basis Set: AUG-CC-PVTZ
    Blend: AUG-CC-PVTZ
  Basis Set: (AUG-CC-PVTZ AUX)
    Blend: AUG-CC-PVTZ-JKFIT

    Orbital Energies [Eh]
    ---------------------

    Doubly Occupied:

       1A    -20.510154     2A    -15.580920     3A    -11.344336
       4A    -11.271838     5A    -11.250668     6A    -11.244113
       7A    -11.234201     8A    -11.232177     9A    -11.222063
      10A     -1.362040    11A     -1.241672    12A     -1.123320
      13A     -1.047380    14A     -0.970407    15A     -0.919595
      16A     -0.868381    17A     -0.794424    18A     -0.721685
      19A     -0.690263    20A     -0.672584    21A     -0.634405
      22A     -0.620658    23A     -0.605956    24A     -0.594552
      25A     -0.585254    26A     -0.559365    27A     -0.551757
      28A     -0.523173    29A     -0.511439    30A     -0.498390
      31A     -0.483736    32A     -0.478006    33A     -0.440755
      34A     -0.396008    35A     -0.365430

  @DF-RHF Final Energy:  -402.06344074158125

   => Energetics <=

    Nuclear Repulsion Energy =            487.5639136044313204
    One-Electron Energy =               -1512.9524985863540678
    Two-Electron Energy =                 623.3251442403416149
    Total Energy =                       -402.0634407415811893
  Basis Set: (AUG-CC-PVTZ AUX)
    Blend: AUG-CC-PVTZ-RI
    Molecular point group: c1

    Geometry (in Angstrom), charge = 0, multiplicity = 1:

       Center              X                  Y                   Z               Mass
    ------------   -----------------  -----------------  -----------------  -----------------
         O            1.743990669493     1.565328830498    -0.279311981063    15.994914619570
         N            0.960664669493    -0.526990169502     0.217656018937    14.003074004430
         C           -2.258669330507    -0.286007169502    -0.164706981063    12.000000000000
         C           -1.303022330507    -1.470093169502    -0.303476981063    12.000000000000
         C           -1.628914330507     1.089277830498    -0.383791981063    12.000000000000
         C           -0.114120330507    -1.410932169502     0.657451018937    12.000000000000
         C           -0.636879430507     1.381657730498     0.463314718937    12.000000000000
         C            0.840753669493     0.838098830498     0.152274018937    12.000000000000
         C            2.161896669493    -1.153742169502    -0.314159981063    12.000000000000
         H           -2.699902330507    -0.311566169502     0.841565018937     1.007825032230
         H           -3.090849330507    -0.414109169502    -0.867864981063     1.007825032230
         H           -1.862154330507    -2.395627169502    -0.113723981063     1.007825032230
         H           -0.918702330507    -1.535534169502    -1.329164981063     1.007825032230
         H           -2.413457330507     1.847805830498    -0.277539981063     1.007825032230
         H           -1.254595330507     1.174041830498    -1.412028981063     1.007825032230
         H           -0.454425330507    -1.125023169502     1.661040018937     1.007825032230
         H            0.332026669493    -2.405109169502     0.756775018937     1.007825032230
         H           -0.751862330507     1.105073830498     1.606248018937     1.007825032230
         H           -0.321032330507     2.504501830498     0.618303018937     1.007825032230
         H            1.918627669493    -1.792850169502    -1.170739981063     1.007825032230
         H            2.646301669493    -1.763791169502     0.455275018937     1.007825032230
         H            2.837454669493    -0.361913169502    -0.632333981063     1.007825032230

  Basis Set: AUG-CC-PVTZ
    Blend: AUG-CC-PVTZ
  Basis Set: (AUG-CC-PVTZ AUX)
    Blend: AUG-CC-PVTZ-JKFIT
	 Reference Energy          =    -402.0634407415812461 [Eh]
	 Singles Energy            =      -0.0000000000000000 [Eh]
	 Same-Spin Energy          =      -0.4247933704639048 [Eh]
	 Opposite-Spin Energy      =      -1.4097376625321123 [Eh]
	 Correlation Energy        =      -1.8345310329960172 [Eh]
	 Total Energy              =    -403.8979717745772859 [Eh]

	 ================> DF-SCS-MP2 Energies <==================
	-----------------------------------------------------------
	 SCS Same-Spin Scale       =       0.3333333333333333 [-]
	 SCS Opposite-Spin Scale   =       1.2000000000000000 [-]
	 SCS Same-Spin Energy      =      -0.1415977901546349 [Eh]
	 SCS Opposite-Spin Energy  =      -1.6916851950385348 [Eh]
	 SCS Correlation Energy    =      -1.8332829851931698 [Eh]
	 SCS Total Energy          =    -403.8967237267744395 [Eh]
	-----------------------------------------------------------

  Dipole Moment: [D]
     X:    -2.4807      Y:    -3.1713      Z:     0.6525     Total:     4.0788

*** Psi4 exiting successfully. Buy a developer a beer!
