                               Psi4 1.3.2 release

  ==> Input File <==

--------------------------------------------------------------------------
#psi4
#
memory 32 gb

molecule  {
0 1
  O        1.7739800     1.6003060    -0.2911220
  N        0.9906540    -0.4920130     0.2058460
  C       -2.2286800    -0.2510300    -0.1765170
  C       -1.2730330    -1.4351160    -0.3152870
  C       -1.5577214     1.2142372    -0.4099363
  C       -0.0841310    -1.3759550     0.6456410
  C       -0.4584780     1.4603760     0.5782350
  C        0.8707430     0.8730760     0.1404640
  C        2.1918860    -1.1187650    -0.3259700
  H       -2.6699130    -0.2765890     0.8297550
  H       -3.0608600    -0.3791320    -0.8796750
  H       -1.8321650    -2.3606500    -0.1255340
  H       -0.8887130    -1.5005570    -1.3409750
  H       -2.3834680     1.8827830    -0.2893500
  H       -1.2246060     1.2090190    -1.4238390
  H       -0.4244360    -1.0900460     1.6492300
  H        0.3620160    -2.3701320     0.7449650
  H       -0.7218730     1.1400510     1.5944380
  H       -0.2910430     2.5394790     0.6064930
  H        1.9486170    -1.7578730    -1.1825500
  H        2.6762910    -1.7288140     0.4434650
  H        2.8674440    -0.3269360    -0.6441440
units angstrom
no_reorient  #important for SAPT in psi4, default
symmetry c1  #important for SAPT in psi4, default
}

set PROPERTIES_ORIGIN ["COM"]
properties('MP2/aug-cc-pvtz', properties = ['dipole'])
--------------------------------------------------------------------------

    Molecular point group: c1
  Charge       = 0
  Multiplicity = 1
  Basis Set: AUG-CC-PVTZ
    Blend: AUG-CC-PVTZ
  Basis Set: (AUG-CC-PVTZ AUX)
    Blend: AUG-CC-PVTZ-JKFIT

    Orbital Energies [Eh]
    ---------------------

    Doubly Occupied:

       1A    -20.506149     2A    -15.581189     3A    -11.340801
       4A    -11.271831     5A    -11.250837     6A    -11.233896
       7A    -11.232755     8A    -11.232649     9A    -11.231948
      10A     -1.362373    11A     -1.241397    12A     -1.091574
      13A     -1.042066    14A     -0.970610    15A     -0.914644
      16A     -0.876306    17A     -0.795063    18A     -0.725895
      19A     -0.692407    20A     -0.667185    21A     -0.632920
      22A     -0.610258    23A     -0.598360    24A     -0.593216
      25A     -0.583714    26A     -0.559008    27A     -0.549779
      28A     -0.527867    29A     -0.513500    30A     -0.508841
      31A     -0.483534    32A     -0.473983    33A     -0.442266
      34A     -0.407680    35A     -0.365283

  @DF-RHF Final Energy:  -402.10415274941215

   => Energetics <=

    Nuclear Repulsion Energy =            485.6617729970236610
    One-Electron Energy =               -1509.3082777435531625
    Two-Electron Energy =                 621.5423519971172936
    Total Energy =                       -402.1041527494121510
  Basis Set: (AUG-CC-PVTZ AUX)
    Blend: AUG-CC-PVTZ-RI
    Molecular point group: c1

    Geometry (in Angstrom), charge = 0, multiplicity = 1:

       Center              X                  Y                   Z               Mass
    ------------   -----------------  -----------------  -----------------  -----------------
         O            1.726088281457     1.552703470857    -0.289923743726    15.994914619570
         N            0.942762281457    -0.539615529143     0.207044256274    14.003074004430
         C           -2.276571718543    -0.298632529143    -0.175318743726    12.000000000000
         C           -1.320924718543    -1.482718529143    -0.314088743726    12.000000000000
         C           -1.605613118543     1.166634670857    -0.408738043726    12.000000000000
         C           -0.132022718543    -1.423557529143     0.646839256274    12.000000000000
         C           -0.506369718543     1.412773470857     0.579433256274    12.000000000000
         C            0.822851281457     0.825473470857     0.141662256274    12.000000000000
         C            2.143994281457    -1.166367529143    -0.324771743726    12.000000000000
         H           -2.717804718543    -0.324191529143     0.830953256274     1.007825032230
         H           -3.108751718543    -0.426734529143    -0.878476743726     1.007825032230
         H           -1.880056718543    -2.408252529143    -0.124335743726     1.007825032230
         H           -0.936604718543    -1.548159529143    -1.339776743726     1.007825032230
         H           -2.431359718543     1.835180470857    -0.288151743726     1.007825032230
         H           -1.272497718543     1.161416470857    -1.422640743726     1.007825032230
         H           -0.472327718543    -1.137648529143     1.650428256274     1.007825032230
         H            0.314124281457    -2.417734529143     0.746163256274     1.007825032230
         H           -0.769764718543     1.092448470857     1.595636256274     1.007825032230
         H           -0.338934718543     2.491876470857     0.607691256274     1.007825032230
         H            1.900725281457    -1.805475529143    -1.181351743726     1.007825032230
         H            2.628399281457    -1.776416529143     0.444663256274     1.007825032230
         H            2.819552281457    -0.374538529143    -0.642945743726     1.007825032230

  Basis Set: AUG-CC-PVTZ
    Blend: AUG-CC-PVTZ
  Basis Set: (AUG-CC-PVTZ AUX)
    Blend: AUG-CC-PVTZ-JKFIT
	 Reference Energy          =    -402.1041527494121510 [Eh]
	 Singles Energy            =      -0.0000000000000000 [Eh]
	 Same-Spin Energy          =      -0.4217503141083714 [Eh]
	 Opposite-Spin Energy      =      -1.4055777914761252 [Eh]
	 Correlation Energy        =      -1.8273281055844965 [Eh]
	 Total Energy              =    -403.9314808549966642 [Eh]

	 ================> DF-SCS-MP2 Energies <==================
	-----------------------------------------------------------
	 SCS Same-Spin Scale       =       0.3333333333333333 [-]
	 SCS Opposite-Spin Scale   =       1.2000000000000000 [-]
	 SCS Same-Spin Energy      =      -0.1405834380361238 [Eh]
	 SCS Opposite-Spin Energy  =      -1.6866933497713501 [Eh]
	 SCS Correlation Energy    =      -1.8272767878074738 [Eh]
	 SCS Total Energy          =    -403.9314295372196284 [Eh]
	-----------------------------------------------------------

  Dipole Moment: [D]
     X:    -2.5343      Y:    -3.0828      Z:     0.7884     Total:     4.0680

*** Psi4 exiting successfully. Buy a developer a beer!
