                               Psi4 1.4a3.dev225

  ==> Input File <==

--------------------------------------------------------------------------
#psi4
#
memory 32 gb

molecule  {
0 1
  O        1.7739800     1.6003060    -0.2911220
  N        0.9906540    -0.4920130     0.2058460
  C       -2.2286800    -0.2510300    -0.1765170
  C       -1.2730330    -1.4351160    -0.3152870
  C       -1.5989250     1.1242550    -0.3956020
  C       -0.0841310    -1.3759550     0.6456410
  C       -0.4584780     1.4603760     0.5782350
  C        0.8707430     0.8730760     0.1404640
  C        2.2083916    -1.1273769    -0.3332775
  H       -2.6699130    -0.2765890     0.8297550
  H       -3.0608600    -0.3791320    -0.8796750
  H       -1.8321650    -2.3606500    -0.1255340
  H       -0.8887130    -1.5005570    -1.3409750
  H       -2.3834680     1.8827830    -0.2893500
  H       -1.2246060     1.2090190    -1.4238390
  H       -0.4244360    -1.0900460     1.6492300
  H        0.3620160    -2.3701320     0.7449650
  H       -0.7218730     1.1400510     1.5944380
  H       -0.2910430     2.5394790     0.6064930
  H        1.9486170    -1.7578730    -1.1825500
  H        2.6762910    -1.7288140     0.4434650
  H        2.8674440    -0.3269360    -0.6441440
units angstrom
no_reorient  #important for SAPT in psi4, default
symmetry c1  #important for SAPT in psi4, default
}

set PROPERTIES_ORIGIN ["COM"]
properties('MP2/aug-cc-pvtz', properties = ['dipole'])
--------------------------------------------------------------------------

    Molecular point group: c1
  Charge       = 0
  Multiplicity = 1
  Basis Set: AUG-CC-PVTZ
    Blend: AUG-CC-PVTZ
  Basis Set: (AUG-CC-PVTZ AUX)
    Blend: AUG-CC-PVTZ-JKFIT

    Orbital Energies [Eh]
    ---------------------

    Doubly Occupied:

       1A    -20.505006     2A    -15.580069     3A    -11.339283
       4A    -11.271740     5A    -11.250939     6A    -11.234327
       7A    -11.233094     8A    -11.233019     9A    -11.231204
      10A     -1.360725    11A     -1.237640    12A     -1.096654
      13A     -1.037622    14A     -0.975036    15A     -0.914183
      16A     -0.878064    17A     -0.792068    18A     -0.723465
      19A     -0.689826    20A     -0.667724    21A     -0.632515
      22A     -0.606689    23A     -0.601641    24A     -0.594163
      25A     -0.582854    26A     -0.560430    27A     -0.543428
      28A     -0.529319    29A     -0.509707    30A     -0.509081
      31A     -0.479068    32A     -0.466834    33A     -0.465078
      34A     -0.406697    35A     -0.365156

  @DF-RHF Final Energy:  -402.11173579189074

   => Energetics <=

    Nuclear Repulsion Energy =            485.8851404781470933
    One-Electron Energy =               -1509.7850579908485997
    Two-Electron Energy =                 621.7881817208107122
    Total Energy =                       -402.1117357918907373
  Basis Set: (AUG-CC-PVTZ AUX)
    Blend: AUG-CC-PVTZ-RI
    Molecular point group: c1

    Geometry (in Angstrom), charge = 0, multiplicity = 1:

       Center              X                  Y                   Z               Mass
    ------------   -----------------  -----------------  -----------------  -----------------
         O            1.728420119906     1.562012140109    -0.290587172441    15.994914619570
         N            0.945094119906    -0.530306859891     0.206380827559    14.003074004430
         C           -2.274239880094    -0.289323859891    -0.175982172441    12.000000000000
         C           -1.318592880094    -1.473409859891    -0.314752172441    12.000000000000
         C           -1.644484880094     1.085961140109    -0.395067172441    12.000000000000
         C           -0.129690880094    -1.414248859891     0.646175827559    12.000000000000
         C           -0.504037880094     1.422082140109     0.578769827559    12.000000000000
         C            0.825183119906     0.834782140109     0.140998827559    12.000000000000
         C            2.162831719906    -1.165670759891    -0.332742672441    12.000000000000
         H           -2.715472880094    -0.314882859891     0.830289827559     1.007825032230
         H           -3.106419880094    -0.417425859891    -0.879140172441     1.007825032230
         H           -1.877724880094    -2.398943859891    -0.124999172441     1.007825032230
         H           -0.934272880094    -1.538850859891    -1.340440172441     1.007825032230
         H           -2.429027880094     1.844489140109    -0.288815172441     1.007825032230
         H           -1.270165880094     1.170725140109    -1.423304172441     1.007825032230
         H           -0.469995880094    -1.128339859891     1.649764827559     1.007825032230
         H            0.316456119906    -2.408425859891     0.745499827559     1.007825032230
         H           -0.767432880094     1.101757140109     1.594972827559     1.007825032230
         H           -0.336602880094     2.501185140109     0.607027827559     1.007825032230
         H            1.903057119906    -1.796166859891    -1.182015172441     1.007825032230
         H            2.630731119906    -1.767107859891     0.443999827559     1.007825032230
         H            2.821884119906    -0.365229859891    -0.643609172441     1.007825032230

  Basis Set: AUG-CC-PVTZ
    Blend: AUG-CC-PVTZ
  Basis Set: (AUG-CC-PVTZ AUX)
    Blend: AUG-CC-PVTZ-JKFIT
	 Reference Energy          =    -402.1117357918907373 [Eh]
	 Singles Energy            =      -0.0000000000000000 [Eh]
	 Same-Spin Energy          =      -0.4216725772933730 [Eh]
	 Opposite-Spin Energy      =      -1.4052242446826506 [Eh]
	 Correlation Energy        =      -1.8268968219760235 [Eh]
	 Total Energy              =    -403.9386326138667869 [Eh]

	 ================> DF-SCS-MP2 Energies <==================
	-----------------------------------------------------------
	 SCS Same-Spin Scale       =       0.3333333333333333 [-]
	 SCS Opposite-Spin Scale   =       1.2000000000000000 [-]
	 SCS Same-Spin Energy      =      -0.1405575257644577 [Eh]
	 SCS Opposite-Spin Energy  =      -1.6862690936191806 [Eh]
	 SCS Correlation Energy    =      -1.8268266193836382 [Eh]
	 SCS Total Energy          =    -403.9385624112743471 [Eh]
	-----------------------------------------------------------

  Dipole Moment: [D]
     X:    -2.5395      Y:    -3.1403      Z:     0.7800     Total:     4.1132

*** Psi4 exiting successfully. Buy a developer a beer!
