                               Psi4 1.3.2 release

  ==> Input File <==

--------------------------------------------------------------------------
#psi4
#
memory 32 gb

molecule  {
0 1
  O        1.7739800     1.6003060    -0.2911220
  N        0.9906540    -0.4920130     0.2058460
  C       -2.2286800    -0.2510300    -0.1765170
  C       -1.2730330    -1.4351160    -0.3152870
  C       -1.5989250     1.1242550    -0.3956020
  C       -0.0211187    -1.4544605     0.6300473
  C       -0.4584780     1.4603760     0.5782350
  C        0.8707430     0.8730760     0.1404640
  C        2.1918860    -1.1187650    -0.3259700
  H       -2.6699130    -0.2765890     0.8297550
  H       -3.0608600    -0.3791320    -0.8796750
  H       -1.8321650    -2.3606500    -0.1255340
  H       -0.8887130    -1.5005570    -1.3409750
  H       -2.3834680     1.8827830    -0.2893500
  H       -1.2246060     1.2090190    -1.4238390
  H       -0.4244360    -1.0900460     1.6492300
  H        0.3620160    -2.3701320     0.7449650
  H       -0.7218730     1.1400510     1.5944380
  H       -0.2910430     2.5394790     0.6064930
  H        1.9486170    -1.7578730    -1.1825500
  H        2.6762910    -1.7288140     0.4434650
  H        2.8674440    -0.3269360    -0.6441440
units angstrom
no_reorient  #important for SAPT in psi4, default
symmetry c1  #important for SAPT in psi4, default
}

set PROPERTIES_ORIGIN ["COM"]
properties('MP2/aug-cc-pvtz', properties = ['dipole'])
--------------------------------------------------------------------------

    Molecular point group: c1
  Charge       = 0
  Multiplicity = 1
  Basis Set: AUG-CC-PVTZ
    Blend: AUG-CC-PVTZ
  Basis Set: (AUG-CC-PVTZ AUX)
    Blend: AUG-CC-PVTZ-JKFIT

    Orbital Energies [Eh]
    ---------------------

    Doubly Occupied:

       1A    -20.506817     2A    -15.581047     3A    -11.342449
       4A    -11.272667     5A    -11.249468     6A    -11.235313
       7A    -11.234640     8A    -11.233524     9A    -11.233052
      10A     -1.362648    11A     -1.241594    12A     -1.095294
      13A     -1.036674    14A     -0.973860    15A     -0.920076
      16A     -0.879126    17A     -0.791714    18A     -0.724949
      19A     -0.689464    20A     -0.675902    21A     -0.632438
      22A     -0.611838    23A     -0.602920    24A     -0.599327
      25A     -0.586296    26A     -0.553562    27A     -0.544415
      28A     -0.524363    29A     -0.510795    30A     -0.501849
      31A     -0.478031    32A     -0.471525    33A     -0.464697
      34A     -0.409022    35A     -0.361433

  @DF-RHF Final Energy:  -402.09911651904861

   => Energetics <=

    Nuclear Repulsion Energy =            485.4154507951350865
    One-Electron Energy =               -1508.7635558616084381
    Two-Electron Energy =                 621.2489885474248013
    Total Energy =                       -402.0991165190486072
  Basis Set: (AUG-CC-PVTZ AUX)
    Blend: AUG-CC-PVTZ-RI
    Molecular point group: c1

    Geometry (in Angstrom), charge = 0, multiplicity = 1:

       Center              X                  Y                   Z               Mass
    ------------   -----------------  -----------------  -----------------  -----------------
         O            1.724029233552     1.568611078638    -0.289804838659    15.994914619570
         N            0.940703233552    -0.523707921362     0.207163161341    14.003074004430
         C           -2.278630766448    -0.282724921362    -0.175199838659    12.000000000000
         C           -1.322983766448    -1.466810921362    -0.313969838659    12.000000000000
         C           -1.648875766448     1.092560078638    -0.394284838659    12.000000000000
         C           -0.071069466448    -1.486155421362     0.631364461341    12.000000000000
         C           -0.508428766448     1.428681078638     0.579552161341    12.000000000000
         C            0.820792233552     0.841381078638     0.141781161341    12.000000000000
         C            2.141935233552    -1.150459921362    -0.324652838659    12.000000000000
         H           -2.719863766448    -0.308283921362     0.831072161341     1.007825032230
         H           -3.110810766448    -0.410826921362    -0.878357838659     1.007825032230
         H           -1.882115766448    -2.392344921362    -0.124216838659     1.007825032230
         H           -0.938663766448    -1.532251921362    -1.339657838659     1.007825032230
         H           -2.433418766448     1.851088078638    -0.288032838659     1.007825032230
         H           -1.274556766448     1.177324078638    -1.422521838659     1.007825032230
         H           -0.474386766448    -1.121740921362     1.650547161341     1.007825032230
         H            0.312065233552    -2.401826921362     0.746282161341     1.007825032230
         H           -0.771823766448     1.108356078638     1.595755161341     1.007825032230
         H           -0.340993766448     2.507784078638     0.607810161341     1.007825032230
         H            1.898666233552    -1.789567921362    -1.181232838659     1.007825032230
         H            2.626340233552    -1.760508921362     0.444782161341     1.007825032230
         H            2.817493233552    -0.358630921362    -0.642826838659     1.007825032230

  Basis Set: AUG-CC-PVTZ
    Blend: AUG-CC-PVTZ
  Basis Set: (AUG-CC-PVTZ AUX)
    Blend: AUG-CC-PVTZ-JKFIT
	 Reference Energy          =    -402.0991165190486072 [Eh]
	 Singles Energy            =      -0.0000000000000000 [Eh]
	 Same-Spin Energy          =      -0.4217334915268930 [Eh]
	 Opposite-Spin Energy      =      -1.4055708174485619 [Eh]
	 Correlation Energy        =      -1.8273043089754550 [Eh]
	 Total Energy              =    -403.9264208280240496 [Eh]

	 ================> DF-SCS-MP2 Energies <==================
	-----------------------------------------------------------
	 SCS Same-Spin Scale       =       0.3333333333333333 [-]
	 SCS Opposite-Spin Scale   =       1.2000000000000000 [-]
	 SCS Same-Spin Energy      =      -0.1405778305089643 [Eh]
	 SCS Opposite-Spin Energy  =      -1.6866849809382742 [Eh]
	 SCS Correlation Energy    =      -1.8272628114472385 [Eh]
	 SCS Total Energy          =    -403.9263793304958199 [Eh]
	-----------------------------------------------------------

  Dipole Moment: [D]
     X:    -2.5544      Y:    -3.1235      Z:     0.7756     Total:     4.1089

*** Psi4 exiting successfully. Buy a developer a beer!
