                               Psi4 1.3.2 release

  ==> Input File <==

--------------------------------------------------------------------------
#psi4
#
memory 32 gb

molecule  {
0 1
  O        1.7739800     1.6003060    -0.2911220
  N        0.9906540    -0.4920130     0.2058460
  C       -2.2286800    -0.2510300    -0.1765170
  C       -1.2730330    -1.4351160    -0.3152870
  C       -1.5989250     1.1242550    -0.3956020
  C       -0.0841310    -1.3759550     0.6456410
  C       -0.4584780     1.4603760     0.5782350
  C        0.8707430     0.8730760     0.1404640
  C        2.1918860    -1.1187650    -0.3259700
  H       -2.6699130    -0.2765890     0.8297550
  H       -3.0608600    -0.3791320    -0.8796750
  H       -1.8534071    -2.3191501    -0.0205031
  H       -0.8887130    -1.5005570    -1.3409750
  H       -2.3834680     1.8827830    -0.2893500
  H       -1.2246060     1.2090190    -1.4238390
  H       -0.4244360    -1.0900460     1.6492300
  H        0.3620160    -2.3701320     0.7449650
  H       -0.7218730     1.1400510     1.5944380
  H       -0.2910430     2.5394790     0.6064930
  H        1.9486170    -1.7578730    -1.1825500
  H        2.6762910    -1.7288140     0.4434650
  H        2.8674440    -0.3269360    -0.6441440
units angstrom
no_reorient  #important for SAPT in psi4, default
symmetry c1  #important for SAPT in psi4, default
}

set PROPERTIES_ORIGIN ["COM"]
properties('MP2/aug-cc-pvtz', properties = ['dipole'])
--------------------------------------------------------------------------

    Molecular point group: c1
  Charge       = 0
  Multiplicity = 1
  Basis Set: AUG-CC-PVTZ
    Blend: AUG-CC-PVTZ
  Basis Set: (AUG-CC-PVTZ AUX)
    Blend: AUG-CC-PVTZ-JKFIT

    Orbital Energies [Eh]
    ---------------------

    Doubly Occupied:

       1A    -20.505610     2A    -15.580330     3A    -11.339819
       4A    -11.271822     5A    -11.250561     6A    -11.234213
       7A    -11.233841     8A    -11.233343     9A    -11.231103
      10A     -1.361761    11A     -1.241130    12A     -1.097892
      13A     -1.038649    14A     -0.975587    15A     -0.913927
      16A     -0.877774    17A     -0.791119    18A     -0.725158
      19A     -0.691386    20A     -0.668538    21A     -0.632612
      22A     -0.609707    23A     -0.603358    24A     -0.594737
      25A     -0.582709    26A     -0.558431    27A     -0.544679
      28A     -0.524941    29A     -0.512074    30A     -0.509219
      31A     -0.481481    32A     -0.466593    33A     -0.462687
      34A     -0.407352    35A     -0.364636

  @DF-RHF Final Energy:  -402.11080513393847

   => Energetics <=

    Nuclear Repulsion Energy =            486.3874309322243903
    One-Electron Energy =               -1510.7589202705376010
    Two-Electron Energy =                 622.2606842043747974
    Total Energy =                       -402.1108051339384701
  Basis Set: (AUG-CC-PVTZ AUX)
    Blend: AUG-CC-PVTZ-RI
    Molecular point group: c1

    Geometry (in Angstrom), charge = 0, multiplicity = 1:

       Center              X                  Y                   Z               Mass
    ------------   -----------------  -----------------  -----------------  -----------------
         O            1.730146917812     1.560869986178    -0.292109935664    15.994914619570
         N            0.946820917812    -0.531449013822     0.204858064336    14.003074004430
         C           -2.272513082188    -0.290466013822    -0.177504935664    12.000000000000
         C           -1.316866082188    -1.474552013822    -0.316274935664    12.000000000000
         C           -1.642758082188     1.084818986178    -0.396589935664    12.000000000000
         C           -0.127964082188    -1.415391013822     0.644653064336    12.000000000000
         C           -0.502311082188     1.420939986178     0.577247064336    12.000000000000
         C            0.826909917812     0.833639986178     0.139476064336    12.000000000000
         C            2.148052917812    -1.158201013822    -0.326957935664    12.000000000000
         H           -2.713746082188    -0.316025013822     0.828767064336     1.007825032230
         H           -3.104693082188    -0.418568013822    -0.880662935664     1.007825032230
         H           -1.897240182188    -2.358586113822    -0.021491035664     1.007825032230
         H           -0.932546082188    -1.539993013822    -1.341962935664     1.007825032230
         H           -2.427301082188     1.843346986178    -0.290337935664     1.007825032230
         H           -1.268439082188     1.169582986178    -1.424826935664     1.007825032230
         H           -0.468269082188    -1.129482013822     1.648242064336     1.007825032230
         H            0.318182917812    -2.409568013822     0.743977064336     1.007825032230
         H           -0.765706082188     1.100614986178     1.593450064336     1.007825032230
         H           -0.334876082188     2.500042986178     0.605505064336     1.007825032230
         H            1.904783917812    -1.797309013822    -1.183537935664     1.007825032230
         H            2.632457917812    -1.768250013822     0.442477064336     1.007825032230
         H            2.823610917812    -0.366372013822    -0.645131935664     1.007825032230

  Basis Set: AUG-CC-PVTZ
    Blend: AUG-CC-PVTZ
  Basis Set: (AUG-CC-PVTZ AUX)
    Blend: AUG-CC-PVTZ-JKFIT
	 Reference Energy          =    -402.1108051339384701 [Eh]
	 Singles Energy            =      -0.0000000000000000 [Eh]
	 Same-Spin Energy          =      -0.4218520512393715 [Eh]
	 Opposite-Spin Energy      =      -1.4053664563061983 [Eh]
	 Correlation Energy        =      -1.8272185075455698 [Eh]
	 Total Energy              =    -403.9380236414840510 [Eh]

	 ================> DF-SCS-MP2 Energies <==================
	-----------------------------------------------------------
	 SCS Same-Spin Scale       =       0.3333333333333333 [-]
	 SCS Opposite-Spin Scale   =       1.2000000000000000 [-]
	 SCS Same-Spin Energy      =      -0.1406173504131238 [Eh]
	 SCS Opposite-Spin Energy  =      -1.6864397475674380 [Eh]
	 SCS Correlation Energy    =      -1.8270570979805618 [Eh]
	 SCS Total Energy          =    -403.9378622319190413 [Eh]
	-----------------------------------------------------------

  Dipole Moment: [D]
     X:    -2.5837      Y:    -3.0921      Z:     0.8211     Total:     4.1123

*** Psi4 exiting successfully. Buy a developer a beer!
