                               Psi4 1.3.2 release

  ==> Input File <==

--------------------------------------------------------------------------
#psi4
#
memory 32 gb

molecule  {
0 1
  O        1.7739800     1.6003060    -0.2911220
  N        0.9906540    -0.4920130     0.2058460
  C       -2.2286800    -0.2510300    -0.1765170
  C       -1.2730330    -1.4351160    -0.3152870
  C       -1.5989250     1.1242550    -0.3956020
  C       -0.0841310    -1.3759550     0.6456410
  C       -0.4584780     1.4603760     0.5782350
  C        0.7977437     0.8143015     0.1753446
  C        2.1918860    -1.1187650    -0.3259700
  H       -2.6699130    -0.2765890     0.8297550
  H       -3.0608600    -0.3791320    -0.8796750
  H       -1.8321650    -2.3606500    -0.1255340
  H       -0.8887130    -1.5005570    -1.3409750
  H       -2.3834680     1.8827830    -0.2893500
  H       -1.2246060     1.2090190    -1.4238390
  H       -0.4244360    -1.0900460     1.6492300
  H        0.3620160    -2.3701320     0.7449650
  H       -0.7218730     1.1400510     1.5944380
  H       -0.2910430     2.5394790     0.6064930
  H        1.9486170    -1.7578730    -1.1825500
  H        2.6762910    -1.7288140     0.4434650
  H        2.8674440    -0.3269360    -0.6441440
units angstrom
no_reorient  #important for SAPT in psi4, default
symmetry c1  #important for SAPT in psi4, default
}

set PROPERTIES_ORIGIN ["COM"]
properties('MP2/aug-cc-pvtz', properties = ['dipole'])
--------------------------------------------------------------------------

    Molecular point group: c1
  Charge       = 0
  Multiplicity = 1
  Basis Set: AUG-CC-PVTZ
    Blend: AUG-CC-PVTZ
  Basis Set: (AUG-CC-PVTZ AUX)
    Blend: AUG-CC-PVTZ-JKFIT

    Orbital Energies [Eh]
    ---------------------

    Doubly Occupied:

       1A    -20.484472     2A    -15.595674     3A    -11.339696
       4A    -11.277195     5A    -11.257501     6A    -11.238468
       7A    -11.237625     8A    -11.236131     9A    -11.235040
      10A     -1.326612    11A     -1.229391    12A     -1.104358
      13A     -1.045957    14A     -0.985663    15A     -0.929615
      16A     -0.884514    17A     -0.798387    18A     -0.732389
      19A     -0.694998    20A     -0.669828    21A     -0.637941
      22A     -0.615741    23A     -0.601493    24A     -0.596664
      25A     -0.576683    26A     -0.559556    27A     -0.545378
      28A     -0.526739    29A     -0.504762    30A     -0.498887
      31A     -0.482673    32A     -0.471332    33A     -0.455381
      34A     -0.394468    35A     -0.362071

  @DF-RHF Final Energy:  -402.09147577505280

   => Energetics <=

    Nuclear Repulsion Energy =            486.7602267826920865
    One-Electron Energy =               -1511.4368381351068820
    Two-Electron Energy =                 622.5851355773619389
    Total Energy =                       -402.0914757750527997
  Basis Set: (AUG-CC-PVTZ AUX)
    Blend: AUG-CC-PVTZ-RI
    Molecular point group: c1

    Geometry (in Angstrom), charge = 0, multiplicity = 1:

       Center              X                  Y                   Z               Mass
    ------------   -----------------  -----------------  -----------------  -----------------
         O            1.736870640885     1.566748194824    -0.294570322237    15.994914619570
         N            0.953544640885    -0.525570805176     0.202397677763    14.003074004430
         C           -2.265789359115    -0.284587805176    -0.179965322237    12.000000000000
         C           -1.310142359115    -1.468673805176    -0.318735322237    12.000000000000
         C           -1.636034359115     1.090697194824    -0.399050322237    12.000000000000
         C           -0.121240359115    -1.409512805176     0.642192677763    12.000000000000
         C           -0.495587359115     1.426818194824     0.574786677763    12.000000000000
         C            0.760634340885     0.780743694824     0.171896277763    12.000000000000
         C            2.154776640885    -1.152322805176    -0.329418322237    12.000000000000
         H           -2.707022359115    -0.310146805176     0.826306677763     1.007825032230
         H           -3.097969359115    -0.412689805176    -0.883123322237     1.007825032230
         H           -1.869274359115    -2.394207805176    -0.128982322237     1.007825032230
         H           -0.925822359115    -1.534114805176    -1.344423322237     1.007825032230
         H           -2.420577359115     1.849225194824    -0.292798322237     1.007825032230
         H           -1.261715359115     1.175461194824    -1.427287322237     1.007825032230
         H           -0.461545359115    -1.123603805176     1.645781677763     1.007825032230
         H            0.324906640885    -2.403689805176     0.741516677763     1.007825032230
         H           -0.758982359115     1.106493194824     1.590989677763     1.007825032230
         H           -0.328152359115     2.505921194824     0.603044677763     1.007825032230
         H            1.911507640885    -1.791430805176    -1.185998322237     1.007825032230
         H            2.639181640885    -1.762371805176     0.440016677763     1.007825032230
         H            2.830334640885    -0.360493805176    -0.647592322237     1.007825032230

  Basis Set: AUG-CC-PVTZ
    Blend: AUG-CC-PVTZ
  Basis Set: (AUG-CC-PVTZ AUX)
    Blend: AUG-CC-PVTZ-JKFIT
	 Reference Energy          =    -402.0914757750527997 [Eh]
	 Singles Energy            =      -0.0000000000000000 [Eh]
	 Same-Spin Energy          =      -0.4239539495520497 [Eh]
	 Opposite-Spin Energy      =      -1.4093714538726392 [Eh]
	 Correlation Energy        =      -1.8333254034246889 [Eh]
	 Total Energy              =    -403.9248011784774803 [Eh]

	 ================> DF-SCS-MP2 Energies <==================
	-----------------------------------------------------------
	 SCS Same-Spin Scale       =       0.3333333333333333 [-]
	 SCS Opposite-Spin Scale   =       1.2000000000000000 [-]
	 SCS Same-Spin Energy      =      -0.1413179831840166 [Eh]
	 SCS Opposite-Spin Energy  =      -1.6912457446471669 [Eh]
	 SCS Correlation Energy    =      -1.8325637278311835 [Eh]
	 SCS Total Energy          =    -403.9240395028839998 [Eh]
	-----------------------------------------------------------

  Dipole Moment: [D]
     X:    -2.9657      Y:    -3.7282      Z:     0.9404     Total:     4.8558

*** Psi4 exiting successfully. Buy a developer a beer!
