                               Psi4 1.3.2 release

  ==> Input File <==

--------------------------------------------------------------------------
#psi4
#
memory 32 gb

molecule  {
0 1
  O        1.7739800     1.6003060    -0.2911220
  N        0.9906540    -0.4920130     0.2058460
  C       -2.2286800    -0.2510300    -0.1765170
  C       -1.2730330    -1.4351160    -0.3152870
  C       -1.6527739     1.0831303    -0.3124379
  C       -0.0841310    -1.3759550     0.6456410
  C       -0.4584780     1.4603760     0.5782350
  C        0.8707430     0.8730760     0.1404640
  C        2.1918860    -1.1187650    -0.3259700
  H       -2.6699130    -0.2765890     0.8297550
  H       -3.0608600    -0.3791320    -0.8796750
  H       -1.8321650    -2.3606500    -0.1255340
  H       -0.8887130    -1.5005570    -1.3409750
  H       -2.3834680     1.8827830    -0.2893500
  H       -1.2246060     1.2090190    -1.4238390
  H       -0.4244360    -1.0900460     1.6492300
  H        0.3620160    -2.3701320     0.7449650
  H       -0.7218730     1.1400510     1.5944380
  H       -0.2910430     2.5394790     0.6064930
  H        1.9486170    -1.7578730    -1.1825500
  H        2.6762910    -1.7288140     0.4434650
  H        2.8674440    -0.3269360    -0.6441440
units angstrom
no_reorient  #important for SAPT in psi4, default
symmetry c1  #important for SAPT in psi4, default
}

set PROPERTIES_ORIGIN ["COM"]
properties('MP2/aug-cc-pvtz', properties = ['dipole'])
--------------------------------------------------------------------------

    Molecular point group: c1
  Charge       = 0
  Multiplicity = 1
  Basis Set: AUG-CC-PVTZ
    Blend: AUG-CC-PVTZ
  Basis Set: (AUG-CC-PVTZ AUX)
    Blend: AUG-CC-PVTZ-JKFIT

    Orbital Energies [Eh]
    ---------------------

    Doubly Occupied:

       1A    -20.506618     2A    -15.580928     3A    -11.341086
       4A    -11.273019     5A    -11.250812     6A    -11.239565
       7A    -11.235093     8A    -11.234935     9A    -11.229764
      10A     -1.362453    11A     -1.241755    12A     -1.106039
      13A     -1.038148    14A     -0.980474    15A     -0.915596
      16A     -0.880542    17A     -0.787423    18A     -0.725714
      19A     -0.691387    20A     -0.672543    21A     -0.633515
      22A     -0.611359    23A     -0.604586    24A     -0.596316
      25A     -0.584892    26A     -0.559734    27A     -0.547062
      28A     -0.527384    29A     -0.510527    30A     -0.504296
      31A     -0.485022    32A     -0.466515    33A     -0.451466
      34A     -0.408436    35A     -0.365516

  @DF-RHF Final Energy:  -402.09975978626107

   => Energetics <=

    Nuclear Repulsion Energy =            486.7310193555857722
    One-Electron Energy =               -1511.3605205604599178
    Two-Electron Energy =                 622.5297414186129572
    Total Energy =                       -402.0997597862610746
  Basis Set: (AUG-CC-PVTZ AUX)
    Blend: AUG-CC-PVTZ-RI
    Molecular point group: c1

    Geometry (in Angstrom), charge = 0, multiplicity = 1:

       Center              X                  Y                   Z               Mass
    ------------   -----------------  -----------------  -----------------  -----------------
         O            1.735062573875     1.565081805552    -0.299128963492    15.994914619570
         N            0.951736573875    -0.527237194448     0.197839036508    14.003074004430
         C           -2.267597426125    -0.286254194448    -0.184523963492    12.000000000000
         C           -1.311950426125    -1.470340194448    -0.323293963492    12.000000000000
         C           -1.691691326125     1.047906105552    -0.320444863492    12.000000000000
         C           -0.123048426125    -1.411179194448     0.637634036508    12.000000000000
         C           -0.497395426125     1.425151805552     0.570228036508    12.000000000000
         C            0.831825573875     0.837851805552     0.132457036508    12.000000000000
         C            2.152968573875    -1.153989194448    -0.333976963492    12.000000000000
         H           -2.708830426125    -0.311813194448     0.821748036508     1.007825032230
         H           -3.099777426125    -0.414356194448    -0.887681963492     1.007825032230
         H           -1.871082426125    -2.395874194448    -0.133540963492     1.007825032230
         H           -0.927630426125    -1.535781194448    -1.348981963492     1.007825032230
         H           -2.422385426125     1.847558805552    -0.297356963492     1.007825032230
         H           -1.263523426125     1.173794805552    -1.431845963492     1.007825032230
         H           -0.463353426125    -1.125270194448     1.641223036508     1.007825032230
         H            0.323098573875    -2.405356194448     0.736958036508     1.007825032230
         H           -0.760790426125     1.104826805552     1.586431036508     1.007825032230
         H           -0.329960426125     2.504254805552     0.598486036508     1.007825032230
         H            1.909699573875    -1.793097194448    -1.190556963492     1.007825032230
         H            2.637373573875    -1.764038194448     0.435458036508     1.007825032230
         H            2.828526573875    -0.362160194448    -0.652150963492     1.007825032230

  Basis Set: AUG-CC-PVTZ
    Blend: AUG-CC-PVTZ
  Basis Set: (AUG-CC-PVTZ AUX)
    Blend: AUG-CC-PVTZ-JKFIT
	 Reference Energy          =    -402.0997597862610746 [Eh]
	 Singles Energy            =      -0.0000000000000000 [Eh]
	 Same-Spin Energy          =      -0.4225663287512402 [Eh]
	 Opposite-Spin Energy      =      -1.4063679090627965 [Eh]
	 Correlation Energy        =      -1.8289342378140367 [Eh]
	 Total Energy              =    -403.9286940240751278 [Eh]

	 ================> DF-SCS-MP2 Energies <==================
	-----------------------------------------------------------
	 SCS Same-Spin Scale       =       0.3333333333333333 [-]
	 SCS Opposite-Spin Scale   =       1.2000000000000000 [-]
	 SCS Same-Spin Energy      =      -0.1408554429170801 [Eh]
	 SCS Opposite-Spin Energy  =      -1.6876414908753559 [Eh]
	 SCS Correlation Energy    =      -1.8284969337924359 [Eh]
	 SCS Total Energy          =    -403.9282567200535254 [Eh]
	-----------------------------------------------------------

  Dipole Moment: [D]
     X:    -2.5964      Y:    -3.1363      Z:     0.8445     Total:     4.1582

*** Psi4 exiting successfully. Buy a developer a beer!
