                               Psi4 1.4a3.dev225

  ==> Input File <==

--------------------------------------------------------------------------
#psi4
#
memory 32 gb

molecule  {
0 1
  O        1.7739800     1.6003060    -0.2911220
  N        0.9906540    -0.4920130     0.2058460
  C       -2.2286800    -0.2510300    -0.1765170
  C       -1.2730330    -1.4351160    -0.3152870
  C       -1.5989250     1.1242550    -0.3956020
  C       -0.0841310    -1.3759550     0.6456410
  C       -0.4584780     1.4603760     0.5782350
  C        0.8707430     0.8730760     0.1404640
  C        2.1918860    -1.1187650    -0.3259700
  H       -2.6699130    -0.2765890     0.8297550
  H       -3.0608600    -0.3791320    -0.8796750
  H       -1.8321650    -2.3606500    -0.1255340
  H       -0.8887130    -1.5005570    -1.3409750
  H       -2.3476909     1.8481922    -0.2941954
  H       -1.2246060     1.2090190    -1.4238390
  H       -0.4244360    -1.0900460     1.6492300
  H        0.3620160    -2.3701320     0.7449650
  H       -0.7218730     1.1400510     1.5944380
  H       -0.2910430     2.5394790     0.6064930
  H        1.9486170    -1.7578730    -1.1825500
  H        2.6762910    -1.7288140     0.4434650
  H        2.8674440    -0.3269360    -0.6441440
units angstrom
no_reorient  #important for SAPT in psi4, default
symmetry c1  #important for SAPT in psi4, default
}

set PROPERTIES_ORIGIN ["COM"]
properties('MP2/aug-cc-pvtz', properties = ['dipole'])
--------------------------------------------------------------------------

    Molecular point group: c1
  Charge       = 0
  Multiplicity = 1
  Basis Set: AUG-CC-PVTZ
    Blend: AUG-CC-PVTZ
  Basis Set: (AUG-CC-PVTZ AUX)
    Blend: AUG-CC-PVTZ-JKFIT

    Orbital Energies [Eh]
    ---------------------

    Doubly Occupied:

       1A    -20.505406     2A    -15.580290     3A    -11.339627
       4A    -11.271973     5A    -11.250386     6A    -11.233220
       7A    -11.233051     8A    -11.231194     9A    -11.228285
      10A     -1.361564    11A     -1.240919    12A     -1.098491
      13A     -1.038470    14A     -0.975932    15A     -0.913826
      16A     -0.880445    17A     -0.794191    18A     -0.725101
      19A     -0.690851    20A     -0.669465    21A     -0.633025
      22A     -0.609768    23A     -0.601598    24A     -0.597040
      25A     -0.583727    26A     -0.558093    27A     -0.544607
      28A     -0.526907    29A     -0.510057    30A     -0.508866
      31A     -0.479395    32A     -0.468235    33A     -0.466474
      34A     -0.407413    35A     -0.364866

  @DF-RHF Final Energy:  -402.11124587243694

   => Energetics <=

    Nuclear Repulsion Energy =            486.5708017503212091
    One-Electron Energy =               -1511.1185770217562094
    Two-Electron Energy =                 622.4365293989981183
    Total Energy =                       -402.1112458724369390
  Basis Set: (AUG-CC-PVTZ AUX)
    Blend: AUG-CC-PVTZ-RI
    Molecular point group: c1

    Geometry (in Angstrom), charge = 0, multiplicity = 1:

       Center              X                  Y                   Z               Mass
    ------------   -----------------  -----------------  -----------------  -----------------
         O            1.729694789517     1.561473340109    -0.291238682047    15.994914619570
         N            0.946368789517    -0.530845659891     0.205729317953    14.003074004430
         C           -2.272965210483    -0.289862659891    -0.176633682047    12.000000000000
         C           -1.317318210483    -1.473948659891    -0.315403682047    12.000000000000
         C           -1.643210210483     1.085422340109    -0.395718682047    12.000000000000
         C           -0.128416210483    -1.414787659891     0.645524317953    12.000000000000
         C           -0.502763210483     1.421543340109     0.578118317953    12.000000000000
         C            0.826457789517     0.834243340109     0.140347317953    12.000000000000
         C            2.147600789517    -1.157597659891    -0.326086682047    12.000000000000
         H           -2.714198210483    -0.315421659891     0.829638317953     1.007825032230
         H           -3.105145210483    -0.417964659891    -0.879791682047     1.007825032230
         H           -1.876450210483    -2.399482659891    -0.125650682047     1.007825032230
         H           -0.932998210483    -1.539389659891    -1.341091682047     1.007825032230
         H           -2.391976110483     1.809359540109    -0.294312082047     1.007825032230
         H           -1.268891210483     1.170186340109    -1.423955682047     1.007825032230
         H           -0.468721210483    -1.128878659891     1.649113317953     1.007825032230
         H            0.317730789517    -2.408964659891     0.744848317953     1.007825032230
         H           -0.766158210483     1.101218340109     1.594321317953     1.007825032230
         H           -0.335328210483     2.500646340109     0.606376317953     1.007825032230
         H            1.904331789517    -1.796705659891    -1.182666682047     1.007825032230
         H            2.632005789517    -1.767646659891     0.443348317953     1.007825032230
         H            2.823158789517    -0.365768659891    -0.644260682047     1.007825032230

  Basis Set: AUG-CC-PVTZ
    Blend: AUG-CC-PVTZ
  Basis Set: (AUG-CC-PVTZ AUX)
    Blend: AUG-CC-PVTZ-JKFIT
	 Reference Energy          =    -402.1112458724369390 [Eh]
	 Singles Energy            =      -0.0000000000000000 [Eh]
	 Same-Spin Energy          =      -0.4217587051126230 [Eh]
	 Opposite-Spin Energy      =      -1.4048701013731144 [Eh]
	 Correlation Energy        =      -1.8266288064857374 [Eh]
	 Total Energy              =    -403.9378746789226966 [Eh]

	 ================> DF-SCS-MP2 Energies <==================
	-----------------------------------------------------------
	 SCS Same-Spin Scale       =       0.3333333333333333 [-]
	 SCS Opposite-Spin Scale   =       1.2000000000000000 [-]
	 SCS Same-Spin Energy      =      -0.1405862350375410 [Eh]
	 SCS Opposite-Spin Energy  =      -1.6858441216477373 [Eh]
	 SCS Correlation Energy    =      -1.8264303566852784 [Eh]
	 SCS Total Energy          =    -403.9376762291221894 [Eh]
	-----------------------------------------------------------

  Dipole Moment: [D]
     X:    -2.6073      Y:    -3.0775      Z:     0.7905     Total:     4.1102

*** Psi4 exiting successfully. Buy a developer a beer!
