                               Psi4 1.3.2 release

  ==> Input File <==

--------------------------------------------------------------------------
#psi4
#
memory 32 gb

molecule  {
0 1
  O        1.7739800     1.6003060    -0.2911220
  N        0.9906540    -0.4920130     0.2058460
  C       -2.2286800    -0.2510300    -0.1765170
  C       -1.2730330    -1.4351160    -0.3152870
  C       -1.5989250     1.1242550    -0.3956020
  C       -0.0841310    -1.3759550     0.6456410
  C       -0.4584780     1.4603760     0.5782350
  C        0.8279942     0.8695002     0.1617439
  C        2.1918860    -1.1187650    -0.3259700
  H       -2.6699130    -0.2765890     0.8297550
  H       -3.0608600    -0.3791320    -0.8796750
  H       -1.8321650    -2.3606500    -0.1255340
  H       -0.8887130    -1.5005570    -1.3409750
  H       -2.3834680     1.8827830    -0.2893500
  H       -1.2246060     1.2090190    -1.4238390
  H       -0.4244360    -1.0900460     1.6492300
  H        0.3620160    -2.3701320     0.7449650
  H       -0.7218730     1.1400510     1.5944380
  H       -0.2910430     2.5394790     0.6064930
  H        1.9486170    -1.7578730    -1.1825500
  H        2.6762910    -1.7288140     0.4434650
  H        2.8674440    -0.3269360    -0.6441440
units angstrom
no_reorient  #important for SAPT in psi4, default
symmetry c1  #important for SAPT in psi4, default
}

set PROPERTIES_ORIGIN ["COM"]
properties('MP2/aug-cc-pvtz', properties = ['dipole'])
--------------------------------------------------------------------------

    Molecular point group: c1
  Charge       = 0
  Multiplicity = 1
  Basis Set: AUG-CC-PVTZ
    Blend: AUG-CC-PVTZ
  Basis Set: (AUG-CC-PVTZ AUX)
    Blend: AUG-CC-PVTZ-JKFIT

    Orbital Energies [Eh]
    ---------------------

    Doubly Occupied:

       1A    -20.499705     2A    -15.583993     3A    -11.342495
       4A    -11.272259     5A    -11.251915     6A    -11.237422
       7A    -11.235488     8A    -11.234536     9A    -11.233188
      10A     -1.340643    11A     -1.236024    12A     -1.101192
      13A     -1.043295    14A     -0.979379    15A     -0.915782
      16A     -0.882371    17A     -0.794955    18A     -0.726414
      19A     -0.692797    20A     -0.669044    21A     -0.632523
      22A     -0.610728    23A     -0.599259    24A     -0.594304
      25A     -0.583063    26A     -0.558356    27A     -0.545059
      28A     -0.525999    29A     -0.507245    30A     -0.504711
      31A     -0.481008    32A     -0.469255    33A     -0.461552
      34A     -0.406905    35A     -0.362574

  @DF-RHF Final Energy:  -402.10503530815038

   => Energetics <=

    Nuclear Repulsion Energy =            486.3057869274338714
    One-Electron Energy =               -1510.5907700567274787
    Two-Electron Energy =                 622.1799478211431733
    Total Energy =                       -402.1050353081503772
  Basis Set: (AUG-CC-PVTZ AUX)
    Blend: AUG-CC-PVTZ-RI
    Molecular point group: c1

    Geometry (in Angstrom), charge = 0, multiplicity = 1:

       Center              X                  Y                   Z               Mass
    ------------   -----------------  -----------------  -----------------  -----------------
         O            1.734014568370     1.561536661463    -0.293286224934    15.994914619570
         N            0.950688568370    -0.530782338537     0.203681775066    14.003074004430
         C           -2.268645431630    -0.289799338537    -0.178681224934    12.000000000000
         C           -1.312998431630    -1.473885338537    -0.317451224934    12.000000000000
         C           -1.638890431630     1.085485661463    -0.397766224934    12.000000000000
         C           -0.124096431630    -1.414724338537     0.643476775066    12.000000000000
         C           -0.498443431630     1.421606661463     0.576070775066    12.000000000000
         C            0.788028768370     0.830730861463     0.159579675066    12.000000000000
         C            2.151920568370    -1.157534338537    -0.328134224934    12.000000000000
         H           -2.709878431630    -0.315358338537     0.827590775066     1.007825032230
         H           -3.100825431630    -0.417901338537    -0.881839224934     1.007825032230
         H           -1.872130431630    -2.399419338537    -0.127698224934     1.007825032230
         H           -0.928678431630    -1.539326338537    -1.343139224934     1.007825032230
         H           -2.423433431630     1.844013661463    -0.291514224934     1.007825032230
         H           -1.264571431630     1.170249661463    -1.426003224934     1.007825032230
         H           -0.464401431630    -1.128815338537     1.647065775066     1.007825032230
         H            0.322050568370    -2.408901338537     0.742800775066     1.007825032230
         H           -0.761838431630     1.101281661463     1.592273775066     1.007825032230
         H           -0.331008431630     2.500709661463     0.604328775066     1.007825032230
         H            1.908651568370    -1.796642338537    -1.184714224934     1.007825032230
         H            2.636325568370    -1.767583338537     0.441300775066     1.007825032230
         H            2.827478568370    -0.365705338537    -0.646308224934     1.007825032230

  Basis Set: AUG-CC-PVTZ
    Blend: AUG-CC-PVTZ
  Basis Set: (AUG-CC-PVTZ AUX)
    Blend: AUG-CC-PVTZ-JKFIT
	 Reference Energy          =    -402.1050353081503772 [Eh]
	 Singles Energy            =      -0.0000000000000000 [Eh]
	 Same-Spin Energy          =      -0.4229552370490471 [Eh]
	 Opposite-Spin Energy      =      -1.4073768671652465 [Eh]
	 Correlation Energy        =      -1.8303321042142935 [Eh]
	 Total Energy              =    -403.9353674123646556 [Eh]

	 ================> DF-SCS-MP2 Energies <==================
	-----------------------------------------------------------
	 SCS Same-Spin Scale       =       0.3333333333333333 [-]
	 SCS Opposite-Spin Scale   =       1.2000000000000000 [-]
	 SCS Same-Spin Energy      =      -0.1409850790163490 [Eh]
	 SCS Opposite-Spin Energy  =      -1.6888522405982958 [Eh]
	 SCS Correlation Energy    =      -1.8298373196146447 [Eh]
	 SCS Total Energy          =    -403.9348726277650030 [Eh]
	-----------------------------------------------------------

  Dipole Moment: [D]
     X:    -2.7854      Y:    -3.2105      Z:     0.8563     Total:     4.3358

*** Psi4 exiting successfully. Buy a developer a beer!
