                               Psi4 1.3.2 release

  ==> Input File <==

--------------------------------------------------------------------------
#psi4
#
memory 32 gb

molecule  {
0 1
  O        1.7739800     1.6003060    -0.2911220
  N        0.9906540    -0.4920130     0.2058460
  C       -2.2286800    -0.2510300    -0.1765170
  C       -1.2730330    -1.4351160    -0.3152870
  C       -1.5989250     1.1242550    -0.3956020
  C       -0.1577752    -1.4365226     0.6757757
  C       -0.4584780     1.4603760     0.5782350
  C        0.8707430     0.8730760     0.1404640
  C        2.1918860    -1.1187650    -0.3259700
  H       -2.6699130    -0.2765890     0.8297550
  H       -3.0608600    -0.3791320    -0.8796750
  H       -1.8321650    -2.3606500    -0.1255340
  H       -0.8887130    -1.5005570    -1.3409750
  H       -2.3834680     1.8827830    -0.2893500
  H       -1.2246060     1.2090190    -1.4238390
  H       -0.4244360    -1.0900460     1.6492300
  H        0.3620160    -2.3701320     0.7449650
  H       -0.7218730     1.1400510     1.5944380
  H       -0.2910430     2.5394790     0.6064930
  H        1.9486170    -1.7578730    -1.1825500
  H        2.6762910    -1.7288140     0.4434650
  H        2.8674440    -0.3269360    -0.6441440
units angstrom
no_reorient  #important for SAPT in psi4, default
symmetry c1  #important for SAPT in psi4, default
}

set PROPERTIES_ORIGIN ["COM"]
properties('MP2/aug-cc-pvtz', properties = ['dipole'])
--------------------------------------------------------------------------

    Molecular point group: c1
  Charge       = 0
  Multiplicity = 1
  Basis Set: AUG-CC-PVTZ
    Blend: AUG-CC-PVTZ
  Basis Set: (AUG-CC-PVTZ AUX)
    Blend: AUG-CC-PVTZ-JKFIT

    Orbital Energies [Eh]
    ---------------------

    Doubly Occupied:

       1A    -20.501112     2A    -15.576087     3A    -11.335512
       4A    -11.275680     5A    -11.247386     6A    -11.235388
       7A    -11.234613     8A    -11.233543     9A    -11.232084
      10A     -1.356222    11A     -1.222196    12A     -1.100200
      13A     -1.043671    14A     -0.973735    15A     -0.913139
      16A     -0.873879    17A     -0.794514    18A     -0.717978
      19A     -0.687543    20A     -0.666385    21A     -0.629196
      22A     -0.613455    23A     -0.600495    24A     -0.593010
      25A     -0.585886    26A     -0.560975    27A     -0.545101
      28A     -0.527143    29A     -0.510812    30A     -0.500330
      31A     -0.481194    32A     -0.469347    33A     -0.464589
      34A     -0.403602    35A     -0.363598

  @DF-RHF Final Energy:  -402.10375335278189

   => Energetics <=

    Nuclear Repulsion Energy =            484.9546049174226710
    One-Electron Energy =               -1507.9775151482842830
    Two-Electron Energy =                 620.9191568780797752
    Total Energy =                       -402.1037533527818368
  Basis Set: (AUG-CC-PVTZ AUX)
    Blend: AUG-CC-PVTZ-RI
    Molecular point group: c1

    Geometry (in Angstrom), charge = 0, multiplicity = 1:

       Center              X                  Y                   Z               Mass
    ------------   -----------------  -----------------  -----------------  -----------------
         O            1.736931528512     1.566917488675    -0.294122242551    15.994914619570
         N            0.953605528512    -0.525401511325     0.202845757449    14.003074004430
         C           -2.265728471488    -0.284418511325    -0.179517242551    12.000000000000
         C           -1.310081471488    -1.468504511325    -0.318287242551    12.000000000000
         C           -1.635973471488     1.090866488675    -0.398602242551    12.000000000000
         C           -0.194823671488    -1.469911111325     0.672775457449    12.000000000000
         C           -0.495526471488     1.426987488675     0.575234757449    12.000000000000
         C            0.833694528512     0.839687488675     0.137463757449    12.000000000000
         C            2.154837528512    -1.152153511325    -0.328970242551    12.000000000000
         H           -2.706961471488    -0.309977511325     0.826754757449     1.007825032230
         H           -3.097908471488    -0.412520511325    -0.882675242551     1.007825032230
         H           -1.869213471488    -2.394038511325    -0.128534242551     1.007825032230
         H           -0.925761471488    -1.533945511325    -1.343975242551     1.007825032230
         H           -2.420516471488     1.849394488675    -0.292350242551     1.007825032230
         H           -1.261654471488     1.175630488675    -1.426839242551     1.007825032230
         H           -0.461484471488    -1.123434511325     1.646229757449     1.007825032230
         H            0.324967528512    -2.403520511325     0.741964757449     1.007825032230
         H           -0.758921471488     1.106662488675     1.591437757449     1.007825032230
         H           -0.328091471488     2.506090488675     0.603492757449     1.007825032230
         H            1.911568528512    -1.791261511325    -1.185550242551     1.007825032230
         H            2.639242528512    -1.762202511325     0.440464757449     1.007825032230
         H            2.830395528512    -0.360324511325    -0.647144242551     1.007825032230

  Basis Set: AUG-CC-PVTZ
    Blend: AUG-CC-PVTZ
  Basis Set: (AUG-CC-PVTZ AUX)
    Blend: AUG-CC-PVTZ-JKFIT
	 Reference Energy          =    -402.1037533527818937 [Eh]
	 Singles Energy            =      -0.0000000000000000 [Eh]
	 Same-Spin Energy          =      -0.4217633640639567 [Eh]
	 Opposite-Spin Energy      =      -1.4058662659444743 [Eh]
	 Correlation Energy        =      -1.8276296300084309 [Eh]
	 Total Energy              =    -403.9313829827902964 [Eh]

	 ================> DF-SCS-MP2 Energies <==================
	-----------------------------------------------------------
	 SCS Same-Spin Scale       =       0.3333333333333333 [-]
	 SCS Opposite-Spin Scale   =       1.2000000000000000 [-]
	 SCS Same-Spin Energy      =      -0.1405877880213189 [Eh]
	 SCS Opposite-Spin Energy  =      -1.6870395191333691 [Eh]
	 SCS Correlation Energy    =      -1.8276273071546880 [Eh]
	 SCS Total Energy          =    -403.9313806599365648 [Eh]
	-----------------------------------------------------------

  Dipole Moment: [D]
     X:    -2.8031      Y:    -3.2913      Z:     0.8526     Total:     4.4065

*** Psi4 exiting successfully. Buy a developer a beer!
