                               Psi4 1.4a3.dev225

  ==> Input File <==

--------------------------------------------------------------------------
#psi4
#
memory 32 gb

molecule  {
0 1
  O        1.7739800     1.6003060    -0.2911220
  N        0.9906540    -0.4920130     0.2058460
  C       -2.2286800    -0.2510300    -0.1765170
  C       -1.2730330    -1.4351160    -0.3152870
  C       -1.5989250     1.1242550    -0.3956020
  C       -0.0841310    -1.3759550     0.6456410
  C       -0.4584780     1.4603760     0.5782350
  C        0.8707430     0.8730760     0.1404640
  C        2.1918860    -1.1187650    -0.3259700
  H       -2.6699130    -0.2765890     0.8297550
  H       -3.0608600    -0.3791320    -0.8796750
  H       -1.8321650    -2.3606500    -0.1255340
  H       -0.8887130    -1.5005570    -1.3409750
  H       -2.3834680     1.8827830    -0.2893500
  H       -1.2246060     1.2090190    -1.4238390
  H       -0.4306369    -1.0848363     1.6675168
  H        0.3620160    -2.3701320     0.7449650
  H       -0.7218730     1.1400510     1.5944380
  H       -0.2910430     2.5394790     0.6064930
  H        1.9486170    -1.7578730    -1.1825500
  H        2.6762910    -1.7288140     0.4434650
  H        2.8674440    -0.3269360    -0.6441440
units angstrom
no_reorient  #important for SAPT in psi4, default
symmetry c1  #important for SAPT in psi4, default
}

set PROPERTIES_ORIGIN ["COM"]
properties('MP2/aug-cc-pvtz', properties = ['dipole'])
--------------------------------------------------------------------------

    Molecular point group: c1
  Charge       = 0
  Multiplicity = 1
  Basis Set: AUG-CC-PVTZ
    Blend: AUG-CC-PVTZ
  Basis Set: (AUG-CC-PVTZ AUX)
    Blend: AUG-CC-PVTZ-JKFIT

    Orbital Energies [Eh]
    ---------------------

    Doubly Occupied:

       1A    -20.505819     2A    -15.580841     3A    -11.340018
       4A    -11.274631     5A    -11.250760     6A    -11.234658
       7A    -11.233625     8A    -11.233455     9A    -11.231511
      10A     -1.361950    11A     -1.241235    12A     -1.097517
      13A     -1.037865    14A     -0.975233    15A     -0.913687
      16A     -0.877905    17A     -0.792237    18A     -0.723886
      19A     -0.690502    20A     -0.668944    21A     -0.633157
      22A     -0.608181    23A     -0.601768    24A     -0.594181
      25A     -0.582797    26A     -0.557972    27A     -0.544522
      28A     -0.527127    29A     -0.509189    30A     -0.508646
      31A     -0.479359    32A     -0.467457    33A     -0.465265
      34A     -0.407520    35A     -0.365091

  @DF-RHF Final Energy:  -402.11148487916182

   => Energetics <=

    Nuclear Repulsion Energy =            486.2041688955820860
    One-Electron Energy =               -1510.3942839328321952
    Two-Electron Energy =                 622.0786301580882309
    Total Energy =                       -402.1114848791618215
  Basis Set: (AUG-CC-PVTZ AUX)
    Blend: AUG-CC-PVTZ-RI
    Molecular point group: c1

    Geometry (in Angstrom), charge = 0, multiplicity = 1:

       Center              X                  Y                   Z               Mass
    ------------   -----------------  -----------------  -----------------  -----------------
         O            1.730027650055     1.561157745849    -0.291422106616    15.994914619570
         N            0.946701650055    -0.531161254151     0.205545893384    14.003074004430
         C           -2.272632349945    -0.290178254151    -0.176817106616    12.000000000000
         C           -1.316985349945    -1.474264254151    -0.315587106616    12.000000000000
         C           -1.642877349945     1.085106745849    -0.395902106616    12.000000000000
         C           -0.128083349945    -1.415103254151     0.645340893384    12.000000000000
         C           -0.502430349945     1.421227745849     0.577934893384    12.000000000000
         C            0.826790650055     0.833927745849     0.140163893384    12.000000000000
         C            2.147933650055    -1.157913254151    -0.326270106616    12.000000000000
         H           -2.713865349945    -0.315737254151     0.829454893384     1.007825032230
         H           -3.104812349945    -0.418280254151    -0.879975106616     1.007825032230
         H           -1.876117349945    -2.399798254151    -0.125834106616     1.007825032230
         H           -0.932665349945    -1.539705254151    -1.341275106616     1.007825032230
         H           -2.427420349945     1.843634745849    -0.289650106616     1.007825032230
         H           -1.268558349945     1.169870745849    -1.424139106616     1.007825032230
         H           -0.474589249945    -1.123984554151     1.667216693384     1.007825032230
         H            0.318063650055    -2.409280254151     0.744664893384     1.007825032230
         H           -0.765825349945     1.100902745849     1.594137893384     1.007825032230
         H           -0.334995349945     2.500330745849     0.606192893384     1.007825032230
         H            1.904664650055    -1.797021254151    -1.182850106616     1.007825032230
         H            2.632338650055    -1.767962254151     0.443164893384     1.007825032230
         H            2.823491650055    -0.366084254151    -0.644444106616     1.007825032230

  Basis Set: AUG-CC-PVTZ
    Blend: AUG-CC-PVTZ
  Basis Set: (AUG-CC-PVTZ AUX)
    Blend: AUG-CC-PVTZ-JKFIT
	 Reference Energy          =    -402.1114848791618215 [Eh]
	 Singles Energy            =      -0.0000000000000000 [Eh]
	 Same-Spin Energy          =      -0.4218203054547154 [Eh]
	 Opposite-Spin Energy      =      -1.4053699782890874 [Eh]
	 Correlation Energy        =      -1.8271902837438028 [Eh]
	 Total Energy              =    -403.9386751629056107 [Eh]

	 ================> DF-SCS-MP2 Energies <==================
	-----------------------------------------------------------
	 SCS Same-Spin Scale       =       0.3333333333333333 [-]
	 SCS Opposite-Spin Scale   =       1.2000000000000000 [-]
	 SCS Same-Spin Energy      =      -0.1406067684849051 [Eh]
	 SCS Opposite-Spin Energy  =      -1.6864439739469048 [Eh]
	 SCS Correlation Energy    =      -1.8270507424318099 [Eh]
	 SCS Total Energy          =    -403.9385356215936440 [Eh]
	-----------------------------------------------------------

  Dipole Moment: [D]
     X:    -2.5735      Y:    -3.1015      Z:     0.7802     Total:     4.1049

*** Psi4 exiting successfully. Buy a developer a beer!
