                               Psi4 1.3.2 release

  ==> Input File <==

--------------------------------------------------------------------------
#psi4
#
memory 32 gb

molecule  {
0 1
  O        1.7739800     1.6003060    -0.2911220
  N        0.9906540    -0.4920130     0.2058460
  C       -2.2286800    -0.2510300    -0.1765170
  C       -1.2524778    -1.4020862    -0.4145863
  C       -1.5989250     1.1242550    -0.3956020
  C       -0.0841310    -1.3759550     0.6456410
  C       -0.4584780     1.4603760     0.5782350
  C        0.8707430     0.8730760     0.1404640
  C        2.1918860    -1.1187650    -0.3259700
  H       -2.6699130    -0.2765890     0.8297550
  H       -3.0608600    -0.3791320    -0.8796750
  H       -1.8321650    -2.3606500    -0.1255340
  H       -0.8887130    -1.5005570    -1.3409750
  H       -2.3834680     1.8827830    -0.2893500
  H       -1.2246060     1.2090190    -1.4238390
  H       -0.4244360    -1.0900460     1.6492300
  H        0.3620160    -2.3701320     0.7449650
  H       -0.7218730     1.1400510     1.5944380
  H       -0.2910430     2.5394790     0.6064930
  H        1.9486170    -1.7578730    -1.1825500
  H        2.6762910    -1.7288140     0.4434650
  H        2.8674440    -0.3269360    -0.6441440
units angstrom
no_reorient  #important for SAPT in psi4, default
symmetry c1  #important for SAPT in psi4, default
}

set PROPERTIES_ORIGIN ["COM"]
properties('MP2/aug-cc-pvtz', properties = ['dipole'])
--------------------------------------------------------------------------

    Molecular point group: c1
  Charge       = 0
  Multiplicity = 1
  Basis Set: AUG-CC-PVTZ
    Blend: AUG-CC-PVTZ
  Basis Set: (AUG-CC-PVTZ AUX)
    Blend: AUG-CC-PVTZ-JKFIT

    Orbital Energies [Eh]
    ---------------------

    Doubly Occupied:

       1A    -20.505077     2A    -15.579096     3A    -11.339273
       4A    -11.274160     5A    -11.250371     6A    -11.233781
       7A    -11.233199     8A    -11.233063     9A    -11.232244
      10A     -1.361286    11A     -1.240228    12A     -1.097017
      13A     -1.034180    14A     -0.974105    15A     -0.912434
      16A     -0.880043    17A     -0.799143    18A     -0.724853
      19A     -0.688967    20A     -0.665342    21A     -0.634718
      22A     -0.612719    23A     -0.602266    24A     -0.593320
      25A     -0.579452    26A     -0.554941    27A     -0.542420
      28A     -0.531989    29A     -0.515825    30A     -0.506334
      31A     -0.491088    32A     -0.461775    33A     -0.456940
      34A     -0.406853    35A     -0.361198

  @DF-RHF Final Energy:  -402.09856862042921

   => Energetics <=

    Nuclear Repulsion Energy =            486.2535204454447921
    One-Electron Energy =               -1510.4847736418798831
    Two-Electron Energy =                 622.1326845760058859
    Total Energy =                       -402.0985686204292051
  Basis Set: (AUG-CC-PVTZ AUX)
    Blend: AUG-CC-PVTZ-RI
    Molecular point group: c1

    Geometry (in Angstrom), charge = 0, multiplicity = 1:

       Center              X                  Y                   Z               Mass
    ------------   -----------------  -----------------  -----------------  -----------------
         O            1.728037780729     1.558080578156    -0.281901853137    15.994914619570
         N            0.944711780729    -0.534238421844     0.215066146863    14.003074004430
         C           -2.274622219271    -0.293255421844    -0.167296853137    12.000000000000
         C           -1.298420019271    -1.444311621844    -0.405366153137    12.000000000000
         C           -1.644867219271     1.082029578156    -0.386381853137    12.000000000000
         C           -0.130073219271    -1.418180421844     0.654861146863    12.000000000000
         C           -0.504420219271     1.418150578156     0.587455146863    12.000000000000
         C            0.824800780729     0.830850578156     0.149684146863    12.000000000000
         C            2.145943780729    -1.160990421844    -0.316749853137    12.000000000000
         H           -2.715855219271    -0.318814421844     0.838975146863     1.007825032230
         H           -3.106802219271    -0.421357421844    -0.870454853137     1.007825032230
         H           -1.878107219271    -2.402875421844    -0.116313853137     1.007825032230
         H           -0.934655219271    -1.542782421844    -1.331754853137     1.007825032230
         H           -2.429410219271     1.840557578156    -0.280129853137     1.007825032230
         H           -1.270548219271     1.166793578156    -1.414618853137     1.007825032230
         H           -0.470378219271    -1.132271421844     1.658450146863     1.007825032230
         H            0.316073780729    -2.412357421844     0.754185146863     1.007825032230
         H           -0.767815219271     1.097825578156     1.603658146863     1.007825032230
         H           -0.336985219271     2.497253578156     0.615713146863     1.007825032230
         H            1.902674780729    -1.800098421844    -1.173329853137     1.007825032230
         H            2.630348780729    -1.771039421844     0.452685146863     1.007825032230
         H            2.821501780729    -0.369161421844    -0.634923853137     1.007825032230

  Basis Set: AUG-CC-PVTZ
    Blend: AUG-CC-PVTZ
  Basis Set: (AUG-CC-PVTZ AUX)
    Blend: AUG-CC-PVTZ-JKFIT
	 Reference Energy          =    -402.0985686204292051 [Eh]
	 Singles Energy            =      -0.0000000000000000 [Eh]
	 Same-Spin Energy          =      -0.4218084690362954 [Eh]
	 Opposite-Spin Energy      =      -1.4057924359290852 [Eh]
	 Correlation Energy        =      -1.8276009049653807 [Eh]
	 Total Energy              =    -403.9261695253945845 [Eh]

	 ================> DF-SCS-MP2 Energies <==================
	-----------------------------------------------------------
	 SCS Same-Spin Scale       =       0.3333333333333333 [-]
	 SCS Opposite-Spin Scale   =       1.2000000000000000 [-]
	 SCS Same-Spin Energy      =      -0.1406028230120985 [Eh]
	 SCS Opposite-Spin Energy  =      -1.6869509231149022 [Eh]
	 SCS Correlation Energy    =      -1.8275537461270006 [Eh]
	 SCS Total Energy          =    -403.9261223665562284 [Eh]
	-----------------------------------------------------------

  Dipole Moment: [D]
     X:    -2.5581      Y:    -3.0895      Z:     0.7911     Total:     4.0883

*** Psi4 exiting successfully. Buy a developer a beer!
