                               Psi4 1.4a3.dev225

  ==> Input File <==

--------------------------------------------------------------------------
#psi4
#
memory 32 gb

molecule  {
0 1
  O        1.7739800     1.6003060    -0.2911220
  N        0.9906540    -0.4920130     0.2058460
  C       -2.2286800    -0.2510300    -0.1765170
  C       -1.2730330    -1.4351160    -0.3152870
  C       -1.5989250     1.1242550    -0.3956020
  C       -0.0841310    -1.3759550     0.6456410
  C       -0.4584780     1.4603760     0.5782350
  C        0.8689949     0.8929766     0.1395108
  C        2.1918860    -1.1187650    -0.3259700
  H       -2.6699130    -0.2765890     0.8297550
  H       -3.0608600    -0.3791320    -0.8796750
  H       -1.8321650    -2.3606500    -0.1255340
  H       -0.8887130    -1.5005570    -1.3409750
  H       -2.3834680     1.8827830    -0.2893500
  H       -1.2246060     1.2090190    -1.4238390
  H       -0.4244360    -1.0900460     1.6492300
  H        0.3620160    -2.3701320     0.7449650
  H       -0.7218730     1.1400510     1.5944380
  H       -0.2910430     2.5394790     0.6064930
  H        1.9486170    -1.7578730    -1.1825500
  H        2.6762910    -1.7288140     0.4434650
  H        2.8674440    -0.3269360    -0.6441440
units angstrom
no_reorient  #important for SAPT in psi4, default
symmetry c1  #important for SAPT in psi4, default
}

set PROPERTIES_ORIGIN ["COM"]
properties('MP2/aug-cc-pvtz', properties = ['dipole'])
--------------------------------------------------------------------------

    Molecular point group: c1
  Charge       = 0
  Multiplicity = 1
  Basis Set: AUG-CC-PVTZ
    Blend: AUG-CC-PVTZ
  Basis Set: (AUG-CC-PVTZ AUX)
    Blend: AUG-CC-PVTZ-JKFIT

    Orbital Energies [Eh]
    ---------------------

    Doubly Occupied:

       1A    -20.509759     2A    -15.576918     3A    -11.341224
       4A    -11.270248     5A    -11.248842     6A    -11.235330
       7A    -11.233966     8A    -11.232239     9A    -11.231234
      10A     -1.368677    11A     -1.236825    12A     -1.097332
      13A     -1.038343    14A     -0.974383    15A     -0.909113
      16A     -0.878453    17A     -0.791954    18A     -0.723524
      19A     -0.691687    20A     -0.668475    21A     -0.631813
      22A     -0.607421    23A     -0.603207    24A     -0.593472
      25A     -0.584192    26A     -0.557827    27A     -0.546907
      28A     -0.525611    29A     -0.510317    30A     -0.508907
      31A     -0.479100    32A     -0.468246    33A     -0.465344
      34A     -0.410461    35A     -0.362969

  @DF-RHF Final Energy:  -402.11180954480358

   => Energetics <=

    Nuclear Repulsion Energy =            486.1733149507352323
    One-Electron Energy =               -1510.3416053787004785
    Two-Electron Energy =                 622.0564808831617256
    Total Energy =                       -402.1118095448035774
  Basis Set: (AUG-CC-PVTZ AUX)
    Blend: AUG-CC-PVTZ-RI
    Molecular point group: c1

    Geometry (in Angstrom), charge = 0, multiplicity = 1:

       Center              X                  Y                   Z               Mass
    ------------   -----------------  -----------------  -----------------  -----------------
         O            1.730143525829     1.559320159229    -0.291187107701    15.994914619570
         N            0.946817525829    -0.532998840771     0.205780892299    14.003074004430
         C           -2.272516474171    -0.292015840771    -0.176582107701    12.000000000000
         C           -1.316869474171    -1.476101840771    -0.315352107701    12.000000000000
         C           -1.642761474171     1.083269159229    -0.395667107701    12.000000000000
         C           -0.127967474171    -1.416940840771     0.645575892299    12.000000000000
         C           -0.502314474171     1.419390159229     0.578169892299    12.000000000000
         C            0.825158425829     0.851990759229     0.139445692299    12.000000000000
         C            2.148049525829    -1.159750840771    -0.326035107701    12.000000000000
         H           -2.713749474171    -0.317574840771     0.829689892299     1.007825032230
         H           -3.104696474171    -0.420117840771    -0.879740107701     1.007825032230
         H           -1.876001474171    -2.401635840771    -0.125599107701     1.007825032230
         H           -0.932549474171    -1.541542840771    -1.341040107701     1.007825032230
         H           -2.427304474171     1.841797159229    -0.289415107701     1.007825032230
         H           -1.268442474171     1.168033159229    -1.423904107701     1.007825032230
         H           -0.468272474171    -1.131031840771     1.649164892299     1.007825032230
         H            0.318179525829    -2.411117840771     0.744899892299     1.007825032230
         H           -0.765709474171     1.099065159229     1.594372892299     1.007825032230
         H           -0.334879474171     2.498493159229     0.606427892299     1.007825032230
         H            1.904780525829    -1.798858840771    -1.182615107701     1.007825032230
         H            2.632454525829    -1.769799840771     0.443399892299     1.007825032230
         H            2.823607525829    -0.367921840771    -0.644209107701     1.007825032230

  Basis Set: AUG-CC-PVTZ
    Blend: AUG-CC-PVTZ
  Basis Set: (AUG-CC-PVTZ AUX)
    Blend: AUG-CC-PVTZ-JKFIT
	 Reference Energy          =    -402.1118095448035774 [Eh]
	 Singles Energy            =      -0.0000000000000000 [Eh]
	 Same-Spin Energy          =      -0.4217081317154160 [Eh]
	 Opposite-Spin Energy      =      -1.4050227883960145 [Eh]
	 Correlation Energy        =      -1.8267309201114306 [Eh]
	 Total Energy              =    -403.9385404649150360 [Eh]

	 ================> DF-SCS-MP2 Energies <==================
	-----------------------------------------------------------
	 SCS Same-Spin Scale       =       0.3333333333333333 [-]
	 SCS Opposite-Spin Scale   =       1.2000000000000000 [-]
	 SCS Same-Spin Energy      =      -0.1405693772384720 [Eh]
	 SCS Opposite-Spin Energy  =      -1.6860273460752173 [Eh]
	 SCS Correlation Energy    =      -1.8265967233136893 [Eh]
	 SCS Total Energy          =    -403.9384062681172622 [Eh]
	-----------------------------------------------------------

  Dipole Moment: [D]
     X:    -2.5681      Y:    -2.9252      Z:     0.7766     Total:     3.9693

*** Psi4 exiting successfully. Buy a developer a beer!
