                               Psi4 1.3.2 release

  ==> Input File <==

--------------------------------------------------------------------------
#psi4
#
memory 32 gb

molecule  {
0 1
  O        1.7739800     1.6003060    -0.2911220
  N        0.9906540    -0.4920130     0.2058460
  C       -2.2286800    -0.2510300    -0.1765170
  C       -1.2730330    -1.4351160    -0.3152870
  C       -1.5989250     1.1242550    -0.3956020
  C       -0.0841310    -1.3759550     0.6456410
  C       -0.4584780     1.4603760     0.5782350
  C        0.8707430     0.8730760     0.1404640
  C        2.1918860    -1.1187650    -0.3259700
  H       -2.6699130    -0.2765890     0.8297550
  H       -3.0608600    -0.3791320    -0.8796750
  H       -1.8321650    -2.3606500    -0.1255340
  H       -0.8887130    -1.5005570    -1.3409750
  H       -2.3834680     1.8827830    -0.2893500
  H       -1.2246060     1.2090190    -1.4238390
  H       -0.4244360    -1.0900460     1.6492300
  H        0.3620160    -2.3701320     0.7449650
  H       -0.7184585     1.1763967     1.6060577
  H       -0.2910430     2.5394790     0.6064930
  H        1.9486170    -1.7578730    -1.1825500
  H        2.6762910    -1.7288140     0.4434650
  H        2.8674440    -0.3269360    -0.6441440
units angstrom
no_reorient  #important for SAPT in psi4, default
symmetry c1  #important for SAPT in psi4, default
}

set PROPERTIES_ORIGIN ["COM"]
properties('MP2/aug-cc-pvtz', properties = ['dipole'])
--------------------------------------------------------------------------

    Molecular point group: c1
  Charge       = 0
  Multiplicity = 1
  Basis Set: AUG-CC-PVTZ
    Blend: AUG-CC-PVTZ
  Basis Set: (AUG-CC-PVTZ AUX)
    Blend: AUG-CC-PVTZ-JKFIT

    Orbital Energies [Eh]
    ---------------------

    Doubly Occupied:

       1A    -20.505818     2A    -15.580570     3A    -11.340183
       4A    -11.272066     5A    -11.250557     6A    -11.234814
       7A    -11.233373     8A    -11.233278     9A    -11.231362
      10A     -1.361903    11A     -1.241141    12A     -1.097318
      13A     -1.037992    14A     -0.975513    15A     -0.913998
      16A     -0.878241    17A     -0.792450    18A     -0.725613
      19A     -0.690843    20A     -0.668354    21A     -0.633183
      22A     -0.608517    23A     -0.601333    24A     -0.594433
      25A     -0.583006    26A     -0.557551    27A     -0.544392
      28A     -0.527131    29A     -0.509905    30A     -0.508665
      31A     -0.479186    32A     -0.467761    33A     -0.465120
      34A     -0.407632    35A     -0.365043

  @DF-RHF Final Energy:  -402.11189775980392

   => Energetics <=

    Nuclear Repulsion Energy =            486.2235952174945055
    One-Electron Energy =               -1510.4344912183012184
    Two-Electron Energy =                 622.0989982410028460
    Total Energy =                       -402.1118977598039237
  Basis Set: (AUG-CC-PVTZ AUX)
    Blend: AUG-CC-PVTZ-RI
    Molecular point group: c1

    Geometry (in Angstrom), charge = 0, multiplicity = 1:

       Center              X                  Y                   Z               Mass
    ------------   -----------------  -----------------  -----------------  -----------------
         O            1.729951405659     1.560910855914    -0.291369240484    15.994914619570
         N            0.946625405659    -0.531408144086     0.205598759516    14.003074004430
         C           -2.272708594341    -0.290425144086    -0.176764240484    12.000000000000
         C           -1.317061594341    -1.474511144086    -0.315534240484    12.000000000000
         C           -1.642953594341     1.084859855914    -0.395849240484    12.000000000000
         C           -0.128159594341    -1.415350144086     0.645393759516    12.000000000000
         C           -0.502506594341     1.420980855914     0.577987759516    12.000000000000
         C            0.826714405659     0.833680855914     0.140216759516    12.000000000000
         C            2.147857405659    -1.158160144086    -0.326217240484    12.000000000000
         H           -2.713941594341    -0.315984144086     0.829507759516     1.007825032230
         H           -3.104888594341    -0.418527144086    -0.879922240484     1.007825032230
         H           -1.876193594341    -2.400045144086    -0.125781240484     1.007825032230
         H           -0.932741594341    -1.539952144086    -1.341222240484     1.007825032230
         H           -2.427496594341     1.843387855914    -0.289597240484     1.007825032230
         H           -1.268634594341     1.169623855914    -1.424086240484     1.007825032230
         H           -0.468464594341    -1.129441144086     1.648982759516     1.007825032230
         H            0.317987405659    -2.409527144086     0.744717759516     1.007825032230
         H           -0.762487094341     1.137001555914     1.605810459516     1.007825032230
         H           -0.335071594341     2.500083855914     0.606245759516     1.007825032230
         H            1.904588405659    -1.797268144086    -1.182797240484     1.007825032230
         H            2.632262405659    -1.768209144086     0.443217759516     1.007825032230
         H            2.823415405659    -0.366331144086    -0.644391240484     1.007825032230

  Basis Set: AUG-CC-PVTZ
    Blend: AUG-CC-PVTZ
  Basis Set: (AUG-CC-PVTZ AUX)
    Blend: AUG-CC-PVTZ-JKFIT
	 Reference Energy          =    -402.1118977598039237 [Eh]
	 Singles Energy            =      -0.0000000000000000 [Eh]
	 Same-Spin Energy          =      -0.4217546195725771 [Eh]
	 Opposite-Spin Energy      =      -1.4051709680968014 [Eh]
	 Correlation Energy        =      -1.8269255876693786 [Eh]
	 Total Energy              =    -403.9388233474733170 [Eh]

	 ================> DF-SCS-MP2 Energies <==================
	-----------------------------------------------------------
	 SCS Same-Spin Scale       =       0.3333333333333333 [-]
	 SCS Opposite-Spin Scale   =       1.2000000000000000 [-]
	 SCS Same-Spin Energy      =      -0.1405848731908590 [Eh]
	 SCS Opposite-Spin Energy  =      -1.6862051617161617 [Eh]
	 SCS Correlation Energy    =      -1.8267900349070207 [Eh]
	 SCS Total Energy          =    -403.9386877947109724 [Eh]
	-----------------------------------------------------------

  Dipole Moment: [D]
     X:    -2.5767      Y:    -3.0912      Z:     0.8029     Total:     4.1036

*** Psi4 exiting successfully. Buy a developer a beer!
