                               Psi4 1.4a3.dev225

  ==> Input File <==

--------------------------------------------------------------------------
#psi4
#
memory 32 gb

molecule  {
0 1
  O        1.7739800     1.6003060    -0.2911220
  N        0.9906540    -0.4920130     0.2058460
  C       -2.2286800    -0.2510300    -0.1765170
  C       -1.2730330    -1.4351160    -0.3152870
  C       -1.5989250     1.1242550    -0.3956020
  C       -0.0841310    -1.3759550     0.6456410
  C       -0.4584780     1.4603760     0.5782350
  C        0.8707430     0.8730760     0.1404640
  C        2.1918860    -1.1187650    -0.3259700
  H       -2.6779423    -0.2770541     0.8480666
  H       -3.0608600    -0.3791320    -0.8796750
  H       -1.8321650    -2.3606500    -0.1255340
  H       -0.8887130    -1.5005570    -1.3409750
  H       -2.3834680     1.8827830    -0.2893500
  H       -1.2246060     1.2090190    -1.4238390
  H       -0.4244360    -1.0900460     1.6492300
  H        0.3620160    -2.3701320     0.7449650
  H       -0.7218730     1.1400510     1.5944380
  H       -0.2910430     2.5394790     0.6064930
  H        1.9486170    -1.7578730    -1.1825500
  H        2.6762910    -1.7288140     0.4434650
  H        2.8674440    -0.3269360    -0.6441440
units angstrom
no_reorient  #important for SAPT in psi4, default
symmetry c1  #important for SAPT in psi4, default
}

set PROPERTIES_ORIGIN ["COM"]
properties('MP2/aug-cc-pvtz', properties = ['dipole'])
--------------------------------------------------------------------------

    Molecular point group: c1
  Charge       = 0
  Multiplicity = 1
  Basis Set: AUG-CC-PVTZ
    Blend: AUG-CC-PVTZ
  Basis Set: (AUG-CC-PVTZ AUX)
    Blend: AUG-CC-PVTZ-JKFIT

    Orbital Energies [Eh]
    ---------------------

    Doubly Occupied:

       1A    -20.505750     2A    -15.580620     3A    -11.339971
       4A    -11.272241     5A    -11.250630     6A    -11.234979
       7A    -11.234168     8A    -11.233545     9A    -11.233422
      10A     -1.361890    11A     -1.241239    12A     -1.097190
      13A     -1.038187    14A     -0.975337    15A     -0.913648
      16A     -0.878303    17A     -0.791018    18A     -0.725342
      19A     -0.690587    20A     -0.668900    21A     -0.632748
      22A     -0.608415    23A     -0.601867    24A     -0.593740
      25A     -0.583151    26A     -0.558055    27A     -0.544536
      28A     -0.527160    29A     -0.509820    30A     -0.508936
      31A     -0.477787    32A     -0.467549    33A     -0.465550
      34A     -0.407498    35A     -0.365157

  @DF-RHF Final Energy:  -402.11155689973941

   => Energetics <=

    Nuclear Repulsion Energy =            486.2063687435364159
    One-Electron Energy =               -1510.3979818488710407
    Two-Electron Energy =                 622.0800562055952696
    Total Energy =                       -402.1115568997394121
  Basis Set: (AUG-CC-PVTZ AUX)
    Blend: AUG-CC-PVTZ-RI
    Molecular point group: c1

    Geometry (in Angstrom), charge = 0, multiplicity = 1:

       Center              X                  Y                   Z               Mass
    ------------   -----------------  -----------------  -----------------  -----------------
         O            1.730042148178     1.561202743634    -0.291422303265    15.994914619570
         N            0.946716148178    -0.531116256366     0.205545696735    14.003074004430
         C           -2.272617851822    -0.290133256366    -0.176817303265    12.000000000000
         C           -1.316970851822    -1.474219256366    -0.315587303265    12.000000000000
         C           -1.642862851822     1.085151743634    -0.395902303265    12.000000000000
         C           -0.128068851822    -1.415058256366     0.645340696735    12.000000000000
         C           -0.502415851822     1.421272743634     0.577934696735    12.000000000000
         C            0.826805148178     0.833972743634     0.140163696735    12.000000000000
         C            2.147948148178    -1.157868256366    -0.326270303265    12.000000000000
         H           -2.721880151822    -0.316157356366     0.847766296735     1.007825032230
         H           -3.104797851822    -0.418235256366    -0.879975303265     1.007825032230
         H           -1.876102851822    -2.399753256366    -0.125834303265     1.007825032230
         H           -0.932650851822    -1.539660256366    -1.341275303265     1.007825032230
         H           -2.427405851822     1.843679743634    -0.289650303265     1.007825032230
         H           -1.268543851822     1.169915743634    -1.424139303265     1.007825032230
         H           -0.468373851822    -1.129149256366     1.648929696735     1.007825032230
         H            0.318078148178    -2.409235256366     0.744664696735     1.007825032230
         H           -0.765810851822     1.100947743634     1.594137696735     1.007825032230
         H           -0.334980851822     2.500375743634     0.606192696735     1.007825032230
         H            1.904679148178    -1.796976256366    -1.182850303265     1.007825032230
         H            2.632353148178    -1.767917256366     0.443164696735     1.007825032230
         H            2.823506148178    -0.366039256366    -0.644444303265     1.007825032230

  Basis Set: AUG-CC-PVTZ
    Blend: AUG-CC-PVTZ
  Basis Set: (AUG-CC-PVTZ AUX)
    Blend: AUG-CC-PVTZ-JKFIT
	 Reference Energy          =    -402.1115568997394121 [Eh]
	 Singles Energy            =      -0.0000000000000000 [Eh]
	 Same-Spin Energy          =      -0.4217860706966144 [Eh]
	 Opposite-Spin Energy      =      -1.4053375474007610 [Eh]
	 Correlation Energy        =      -1.8271236180973753 [Eh]
	 Total Energy              =    -403.9386805178368149 [Eh]

	 ================> DF-SCS-MP2 Energies <==================
	-----------------------------------------------------------
	 SCS Same-Spin Scale       =       0.3333333333333333 [-]
	 SCS Opposite-Spin Scale   =       1.2000000000000000 [-]
	 SCS Same-Spin Energy      =      -0.1405953568988715 [Eh]
	 SCS Opposite-Spin Energy  =      -1.6864050568809132 [Eh]
	 SCS Correlation Energy    =      -1.8270004137797846 [Eh]
	 SCS Total Energy          =    -403.9385573135191976 [Eh]
	-----------------------------------------------------------

  Dipole Moment: [D]
     X:    -2.5712      Y:    -3.1029      Z:     0.7806     Total:     4.1047

*** Psi4 exiting successfully. Buy a developer a beer!
