                               Psi4 1.3.2 release

  ==> Input File <==

--------------------------------------------------------------------------
#psi4
#
memory 32 gb

molecule  {
0 1
  O        1.7739800     1.6003060    -0.2911220
  N        0.9906540    -0.4920130     0.2058460
  C       -2.2286800    -0.2510300    -0.1765170
  C       -1.2730330    -1.4351160    -0.3152870
  C       -1.5989250     1.1242550    -0.3956020
  C       -0.0841310    -1.3759550     0.6456410
  C       -0.4584780     1.4603760     0.5782350
  C        0.8707430     0.8730760     0.1404640
  C        2.1918860    -1.1187650    -0.3259700
  H       -2.6699130    -0.2765890     0.8297550
  H       -3.0608600    -0.3791320    -0.8796750
  H       -1.8321650    -2.3606500    -0.1255340
  H       -0.8887130    -1.5005570    -1.3409750
  H       -2.4550222     1.9519645    -0.2796593
  H       -1.2246060     1.2090190    -1.4238390
  H       -0.4244360    -1.0900460     1.6492300
  H        0.3620160    -2.3701320     0.7449650
  H       -0.7218730     1.1400510     1.5944380
  H       -0.2910430     2.5394790     0.6064930
  H        1.9486170    -1.7578730    -1.1825500
  H        2.6762910    -1.7288140     0.4434650
  H        2.8674440    -0.3269360    -0.6441440
units angstrom
no_reorient  #important for SAPT in psi4, default
symmetry c1  #important for SAPT in psi4, default
}

set PROPERTIES_ORIGIN ["COM"]
properties('MP2/aug-cc-pvtz', properties = ['dipole'])
--------------------------------------------------------------------------

    Molecular point group: c1
  Charge       = 0
  Multiplicity = 1
  Basis Set: AUG-CC-PVTZ
    Blend: AUG-CC-PVTZ
  Basis Set: (AUG-CC-PVTZ AUX)
    Blend: AUG-CC-PVTZ-JKFIT

    Orbital Energies [Eh]
    ---------------------

    Doubly Occupied:

       1A    -20.506454     2A    -15.581295     3A    -11.340726
       4A    -11.272836     5A    -11.251099     6A    -11.246516
       7A    -11.234544     8A    -11.234261     9A    -11.232454
      10A     -1.362556    11A     -1.241891    12A     -1.096551
      13A     -1.037947    14A     -0.975391    15A     -0.914327
      16A     -0.874880    17A     -0.790022    18A     -0.725834
      19A     -0.690558    20A     -0.667990    21A     -0.633934
      22A     -0.607357    23A     -0.602621    24A     -0.590114
      25A     -0.579977    26A     -0.558905    27A     -0.544167
      28A     -0.527589    29A     -0.509838    30A     -0.509144
      31A     -0.479928    32A     -0.468250    33A     -0.459370
      34A     -0.407511    35A     -0.365709

  @DF-RHF Final Energy:  -402.10544920988843

   => Energetics <=

    Nuclear Repulsion Energy =            485.8044440948596616
    One-Electron Energy =               -1509.5746942370383294
    Two-Electron Energy =                 621.6648009322901771
    Total Energy =                       -402.1054492098884339
  Basis Set: (AUG-CC-PVTZ AUX)
    Blend: AUG-CC-PVTZ-RI
    Molecular point group: c1

    Geometry (in Angstrom), charge = 0, multiplicity = 1:

       Center              X                  Y                   Z               Mass
    ------------   -----------------  -----------------  -----------------  -----------------
         O            1.730545862799     1.560650487577    -0.291353944663    15.994914619570
         N            0.947219862799    -0.531668512423     0.205614055337    14.003074004430
         C           -2.272114137201    -0.290685512423    -0.176748944663    12.000000000000
         C           -1.316467137201    -1.474771512423    -0.315518944663    12.000000000000
         C           -1.642359137201     1.084599487577    -0.395833944663    12.000000000000
         C           -0.127565137201    -1.415610512423     0.645409055337    12.000000000000
         C           -0.501912137201     1.420720487577     0.578003055337    12.000000000000
         C            0.827308862799     0.833420487577     0.140232055337    12.000000000000
         C            2.148451862799    -1.158420512423    -0.326201944663    12.000000000000
         H           -2.713347137201    -0.316244512423     0.829523055337     1.007825032230
         H           -3.104294137201    -0.418787512423    -0.879906944663     1.007825032230
         H           -1.875599137201    -2.400305512423    -0.125765944663     1.007825032230
         H           -0.932147137201    -1.540212512423    -1.341206944663     1.007825032230
         H           -2.498456337201     1.912308987577    -0.279891244663     1.007825032230
         H           -1.268040137201     1.169363487577    -1.424070944663     1.007825032230
         H           -0.467870137201    -1.129701512423     1.648998055337     1.007825032230
         H            0.318581862799    -2.409787512423     0.744733055337     1.007825032230
         H           -0.765307137201     1.100395487577     1.594206055337     1.007825032230
         H           -0.334477137201     2.499823487577     0.606261055337     1.007825032230
         H            1.905182862799    -1.797528512423    -1.182781944663     1.007825032230
         H            2.632856862799    -1.768469512423     0.443233055337     1.007825032230
         H            2.824009862799    -0.366591512423    -0.644375944663     1.007825032230

  Basis Set: AUG-CC-PVTZ
    Blend: AUG-CC-PVTZ
  Basis Set: (AUG-CC-PVTZ AUX)
    Blend: AUG-CC-PVTZ-JKFIT
	 Reference Energy          =    -402.1054492098884339 [Eh]
	 Singles Energy            =      -0.0000000000000000 [Eh]
	 Same-Spin Energy          =      -0.4218384872917902 [Eh]
	 Opposite-Spin Energy      =      -1.4060419945652964 [Eh]
	 Correlation Energy        =      -1.8278804818570866 [Eh]
	 Total Energy              =    -403.9333296917455414 [Eh]

	 ================> DF-SCS-MP2 Energies <==================
	-----------------------------------------------------------
	 SCS Same-Spin Scale       =       0.3333333333333333 [-]
	 SCS Opposite-Spin Scale   =       1.2000000000000000 [-]
	 SCS Same-Spin Energy      =      -0.1406128290972634 [Eh]
	 SCS Opposite-Spin Energy  =      -1.6872503934783556 [Eh]
	 SCS Correlation Energy    =      -1.8278632225756191 [Eh]
	 SCS Total Energy          =    -403.9333124324640494 [Eh]
	-----------------------------------------------------------

  Dipole Moment: [D]
     X:    -2.5116      Y:    -3.1695      Z:     0.7994     Total:     4.1222

*** Psi4 exiting successfully. Buy a developer a beer!
