                               Psi4 1.3.2 release

  ==> Input File <==

--------------------------------------------------------------------------
#psi4
#
memory 32 gb

molecule  {
0 1
  O        1.7739800     1.6003060    -0.2911220
  N        0.9906540    -0.4920130     0.2058460
  C       -2.2286800    -0.2510300    -0.1765170
  C       -1.2730330    -1.4351160    -0.3152870
  C       -1.5989250     1.1242550    -0.3956020
  C       -0.0841310    -1.3759550     0.6456410
  C       -0.4584780     1.4603760     0.5782350
  C        0.7854437     0.8642656     0.1830775
  C        2.1918860    -1.1187650    -0.3259700
  H       -2.6699130    -0.2765890     0.8297550
  H       -3.0608600    -0.3791320    -0.8796750
  H       -1.8321650    -2.3606500    -0.1255340
  H       -0.8887130    -1.5005570    -1.3409750
  H       -2.3834680     1.8827830    -0.2893500
  H       -1.2246060     1.2090190    -1.4238390
  H       -0.4244360    -1.0900460     1.6492300
  H        0.3620160    -2.3701320     0.7449650
  H       -0.7218730     1.1400510     1.5944380
  H       -0.2910430     2.5394790     0.6064930
  H        1.9486170    -1.7578730    -1.1825500
  H        2.6762910    -1.7288140     0.4434650
  H        2.8674440    -0.3269360    -0.6441440
units angstrom
no_reorient  #important for SAPT in psi4, default
symmetry c1  #important for SAPT in psi4, default
}

set PROPERTIES_ORIGIN ["COM"]
properties('MP2/aug-cc-pvtz', properties = ['dipole'])
--------------------------------------------------------------------------

    Molecular point group: c1
  Charge       = 0
  Multiplicity = 1
  Basis Set: AUG-CC-PVTZ
    Blend: AUG-CC-PVTZ
  Basis Set: (AUG-CC-PVTZ AUX)
    Blend: AUG-CC-PVTZ-JKFIT

    Orbital Energies [Eh]
    ---------------------

    Doubly Occupied:

       1A    -20.493503     2A    -15.587767     3A    -11.344959
       4A    -11.272403     5A    -11.253395     6A    -11.240197
       7A    -11.236753     8A    -11.235747     9A    -11.234837
      10A     -1.323974    11A     -1.228126    12A     -1.105483
      13A     -1.048527    14A     -0.983047    15A     -0.917980
      16A     -0.886309    17A     -0.797364    18A     -0.727940
      19A     -0.695533    20A     -0.669724    21A     -0.632609
      22A     -0.613547    23A     -0.599779    24A     -0.594846
      25A     -0.581060    26A     -0.558067    27A     -0.547641
      28A     -0.525207    29A     -0.503309    30A     -0.501000
      31A     -0.482598    32A     -0.472056    33A     -0.454871
      34A     -0.403277    35A     -0.359544

  @DF-RHF Final Energy:  -402.09150478345867

   => Energetics <=

    Nuclear Repulsion Energy =            486.3576298917897134
    One-Electron Energy =               -1510.6723070058560552
    Two-Electron Energy =                 622.2231723306076674
    Total Energy =                       -402.0915047834587313
  Basis Set: (AUG-CC-PVTZ AUX)
    Blend: AUG-CC-PVTZ-RI
    Molecular point group: c1

    Geometry (in Angstrom), charge = 0, multiplicity = 1:

       Center              X                  Y                   Z               Mass
    ------------   -----------------  -----------------  -----------------  -----------------
         O            1.738031933820     1.562030881300    -0.295300416720    15.994914619570
         N            0.954705933820    -0.530288118700     0.201667583280    14.003074004430
         C           -2.264628066180    -0.289305118700    -0.180695416720    12.000000000000
         C           -1.308981066180    -1.473391118700    -0.319465416720    12.000000000000
         C           -1.634873066180     1.085979881300    -0.399780416720    12.000000000000
         C           -0.120079066180    -1.414230118700     0.641462583280    12.000000000000
         C           -0.494426066180     1.422100881300     0.574056583280    12.000000000000
         C            0.749495633820     0.825990481300     0.178899083280    12.000000000000
         C            2.155937933820    -1.157040118700    -0.330148416720    12.000000000000
         H           -2.705861066180    -0.314864118700     0.825576583280     1.007825032230
         H           -3.096808066180    -0.417407118700    -0.883853416720     1.007825032230
         H           -1.868113066180    -2.398925118700    -0.129712416720     1.007825032230
         H           -0.924661066180    -1.538832118700    -1.345153416720     1.007825032230
         H           -2.419416066180     1.844507881300    -0.293528416720     1.007825032230
         H           -1.260554066180     1.170743881300    -1.428017416720     1.007825032230
         H           -0.460384066180    -1.128321118700     1.645051583280     1.007825032230
         H            0.326067933820    -2.408407118700     0.740786583280     1.007825032230
         H           -0.757821066180     1.101775881300     1.590259583280     1.007825032230
         H           -0.326991066180     2.501203881300     0.602314583280     1.007825032230
         H            1.912668933820    -1.796148118700    -1.186728416720     1.007825032230
         H            2.640342933820    -1.767089118700     0.439286583280     1.007825032230
         H            2.831495933820    -0.365211118700    -0.648322416720     1.007825032230

  Basis Set: AUG-CC-PVTZ
    Blend: AUG-CC-PVTZ
  Basis Set: (AUG-CC-PVTZ AUX)
    Blend: AUG-CC-PVTZ-JKFIT
	 Reference Energy          =    -402.0915047834586744 [Eh]
	 Singles Energy            =      -0.0000000000000000 [Eh]
	 Same-Spin Energy          =      -0.4243189235531994 [Eh]
	 Opposite-Spin Energy      =      -1.4098899338086155 [Eh]
	 Correlation Energy        =      -1.8342088573618149 [Eh]
	 Total Energy              =    -403.9257136408205042 [Eh]

	 ================> DF-SCS-MP2 Energies <==================
	-----------------------------------------------------------
	 SCS Same-Spin Scale       =       0.3333333333333333 [-]
	 SCS Opposite-Spin Scale   =       1.2000000000000000 [-]
	 SCS Same-Spin Energy      =      -0.1414396411843998 [Eh]
	 SCS Opposite-Spin Energy  =      -1.6918679205703386 [Eh]
	 SCS Correlation Energy    =      -1.8333075617547385 [Eh]
	 SCS Total Energy          =    -403.9248123452134109 [Eh]
	-----------------------------------------------------------

  Dipole Moment: [D]
     X:    -2.9753      Y:    -3.3230      Z:     0.9127     Total:     4.5528

*** Psi4 exiting successfully. Buy a developer a beer!
