                               Psi4 1.4a3.dev225

  ==> Input File <==

--------------------------------------------------------------------------
#psi4
#
memory 32 gb

molecule  {
0 1
  O        1.7739800     1.6003060    -0.2911220
  N        0.9906540    -0.4920130     0.2058460
  C       -2.2286800    -0.2510300    -0.1765170
  C       -1.2730330    -1.4351160    -0.3152870
  C       -1.5989250     1.1242550    -0.3956020
  C       -0.0841310    -1.3759550     0.6456410
  C       -0.4436368     1.4647501     0.5909080
  C        0.8707430     0.8730760     0.1404640
  C        2.1918860    -1.1187650    -0.3259700
  H       -2.6699130    -0.2765890     0.8297550
  H       -3.0608600    -0.3791320    -0.8796750
  H       -1.8321650    -2.3606500    -0.1255340
  H       -0.8887130    -1.5005570    -1.3409750
  H       -2.3834680     1.8827830    -0.2893500
  H       -1.2246060     1.2090190    -1.4238390
  H       -0.4244360    -1.0900460     1.6492300
  H        0.3620160    -2.3701320     0.7449650
  H       -0.7218730     1.1400510     1.5944380
  H       -0.2910430     2.5394790     0.6064930
  H        1.9486170    -1.7578730    -1.1825500
  H        2.6762910    -1.7288140     0.4434650
  H        2.8674440    -0.3269360    -0.6441440
units angstrom
no_reorient  #important for SAPT in psi4, default
symmetry c1  #important for SAPT in psi4, default
}

set PROPERTIES_ORIGIN ["COM"]
properties('MP2/aug-cc-pvtz', properties = ['dipole'])
--------------------------------------------------------------------------

    Molecular point group: c1
  Charge       = 0
  Multiplicity = 1
  Basis Set: AUG-CC-PVTZ
    Blend: AUG-CC-PVTZ
  Basis Set: (AUG-CC-PVTZ AUX)
    Blend: AUG-CC-PVTZ-JKFIT

    Orbital Energies [Eh]
    ---------------------

    Doubly Occupied:

       1A    -20.505263     2A    -15.580520     3A    -11.339556
       4A    -11.272246     5A    -11.250575     6A    -11.235763
       7A    -11.233361     8A    -11.232874     9A    -11.231583
      10A     -1.361847    11A     -1.241135    12A     -1.096147
      13A     -1.037479    14A     -0.976071    15A     -0.913644
      16A     -0.878775    17A     -0.792311    18A     -0.725675
      19A     -0.691235    20A     -0.668681    21A     -0.633265
      22A     -0.607837    23A     -0.601736    24A     -0.594475
      25A     -0.583074    26A     -0.559069    27A     -0.543875
      28A     -0.527025    29A     -0.510484    30A     -0.509163
      31A     -0.479486    32A     -0.467759    33A     -0.463556
      34A     -0.407858    35A     -0.365047

  @DF-RHF Final Energy:  -402.11202627797451

   => Energetics <=

    Nuclear Repulsion Energy =            486.1884745345976171
    One-Electron Energy =               -1510.3640988188703886
    Two-Electron Energy =                 622.0635980062983208
    Total Energy =                       -402.1120262779744507
  Basis Set: (AUG-CC-PVTZ AUX)
    Blend: AUG-CC-PVTZ-RI
    Molecular point group: c1

    Geometry (in Angstrom), charge = 0, multiplicity = 1:

       Center              X                  Y                   Z               Mass
    ------------   -----------------  -----------------  -----------------  -----------------
         O            1.728577262667     1.560786079129    -0.292473612563    15.994914619570
         N            0.945251262667    -0.531532920871     0.204494387437    14.003074004430
         C           -2.274082737333    -0.290549920871    -0.177868612563    12.000000000000
         C           -1.318435737333    -1.474635920871    -0.316638612563    12.000000000000
         C           -1.644327737333     1.084735079129    -0.396953612563    12.000000000000
         C           -0.129533737333    -1.415474920871     0.644289387437    12.000000000000
         C           -0.489039537333     1.425230179129     0.589556387437    12.000000000000
         C            0.825340262667     0.833556079129     0.139112387437    12.000000000000
         C            2.146483262667    -1.158284920871    -0.327321612563    12.000000000000
         H           -2.715315737333    -0.316108920871     0.828403387437     1.007825032230
         H           -3.106262737333    -0.418651920871    -0.881026612563     1.007825032230
         H           -1.877567737333    -2.400169920871    -0.126885612563     1.007825032230
         H           -0.934115737333    -1.540076920871    -1.342326612563     1.007825032230
         H           -2.428870737333     1.843263079129    -0.290701612563     1.007825032230
         H           -1.270008737333     1.169499079129    -1.425190612563     1.007825032230
         H           -0.469838737333    -1.129565920871     1.647878387437     1.007825032230
         H            0.316613262667    -2.409651920871     0.743613387437     1.007825032230
         H           -0.767275737333     1.100531079129     1.593086387437     1.007825032230
         H           -0.336445737333     2.499959079129     0.605141387437     1.007825032230
         H            1.903214262667    -1.797392920871    -1.183901612563     1.007825032230
         H            2.630888262667    -1.768333920871     0.442113387437     1.007825032230
         H            2.822041262667    -0.366455920871    -0.645495612563     1.007825032230

  Basis Set: AUG-CC-PVTZ
    Blend: AUG-CC-PVTZ
  Basis Set: (AUG-CC-PVTZ AUX)
    Blend: AUG-CC-PVTZ-JKFIT
	 Reference Energy          =    -402.1120262779745076 [Eh]
	 Singles Energy            =      -0.0000000000000000 [Eh]
	 Same-Spin Energy          =      -0.4216765490009908 [Eh]
	 Opposite-Spin Energy      =      -1.4050843567724240 [Eh]
	 Correlation Energy        =      -1.8267609057734149 [Eh]
	 Total Energy              =    -403.9387871837479338 [Eh]

	 ================> DF-SCS-MP2 Energies <==================
	-----------------------------------------------------------
	 SCS Same-Spin Scale       =       0.3333333333333333 [-]
	 SCS Opposite-Spin Scale   =       1.2000000000000000 [-]
	 SCS Same-Spin Energy      =      -0.1405588496669969 [Eh]
	 SCS Opposite-Spin Energy  =      -1.6861012281269088 [Eh]
	 SCS Correlation Energy    =      -1.8266600777939057 [Eh]
	 SCS Total Energy          =    -403.9386863557684251 [Eh]
	-----------------------------------------------------------

  Dipole Moment: [D]
     X:    -2.5937      Y:    -3.0998      Z:     0.8013     Total:     4.1205

*** Psi4 exiting successfully. Buy a developer a beer!
