                               Psi4 1.3.2 release

  ==> Input File <==

--------------------------------------------------------------------------
#psi4
#
memory 32 gb

molecule  {
0 1
  O        1.7739800     1.6003060    -0.2911220
  N        0.9906540    -0.4920130     0.2058460
  C       -2.2286800    -0.2510300    -0.1765170
  C       -1.2730330    -1.4351160    -0.3152870
  C       -1.5989250     1.1242550    -0.3956020
  C       -0.1374468    -1.2928282     0.6706250
  C       -0.4584780     1.4603760     0.5782350
  C        0.8707430     0.8730760     0.1404640
  C        2.1918860    -1.1187650    -0.3259700
  H       -2.6699130    -0.2765890     0.8297550
  H       -3.0608600    -0.3791320    -0.8796750
  H       -1.8321650    -2.3606500    -0.1255340
  H       -0.8887130    -1.5005570    -1.3409750
  H       -2.3834680     1.8827830    -0.2893500
  H       -1.2246060     1.2090190    -1.4238390
  H       -0.4244360    -1.0900460     1.6492300
  H        0.3620160    -2.3701320     0.7449650
  H       -0.7218730     1.1400510     1.5944380
  H       -0.2910430     2.5394790     0.6064930
  H        1.9486170    -1.7578730    -1.1825500
  H        2.6762910    -1.7288140     0.4434650
  H        2.8674440    -0.3269360    -0.6441440
units angstrom
no_reorient  #important for SAPT in psi4, default
symmetry c1  #important for SAPT in psi4, default
}

set PROPERTIES_ORIGIN ["COM"]
properties('MP2/aug-cc-pvtz', properties = ['dipole'])
--------------------------------------------------------------------------

    Molecular point group: c1
  Charge       = 0
  Multiplicity = 1
  Basis Set: AUG-CC-PVTZ
    Blend: AUG-CC-PVTZ
  Basis Set: (AUG-CC-PVTZ AUX)
    Blend: AUG-CC-PVTZ-JKFIT

    Orbital Energies [Eh]
    ---------------------

    Doubly Occupied:

       1A    -20.505033     2A    -15.581441     3A    -11.338086
       4A    -11.274157     5A    -11.252195     6A    -11.235010
       7A    -11.233957     8A    -11.233295     9A    -11.230219
      10A     -1.361579    11A     -1.241679    12A     -1.100105
      13A     -1.038921    14A     -0.978128    15A     -0.910457
      16A     -0.877399    17A     -0.794371    18A     -0.730581
      19A     -0.692015    20A     -0.666181    21A     -0.635446
      22A     -0.609042    23A     -0.602594    24A     -0.594552
      25A     -0.571652    26A     -0.562429    27A     -0.544050
      28A     -0.529778    29A     -0.516759    30A     -0.504980
      31A     -0.480400    32A     -0.469159    33A     -0.453735
      34A     -0.405877    35A     -0.367481

  @DF-RHF Final Energy:  -402.09992676576229

   => Energetics <=

    Nuclear Repulsion Energy =            487.1145264859749773
    One-Electron Energy =               -1512.1834188449340672
    Two-Electron Energy =                 622.9689655931969128
    Total Energy =                       -402.0999267657622340
  Basis Set: (AUG-CC-PVTZ AUX)
    Blend: AUG-CC-PVTZ-RI
    Molecular point group: c1

    Geometry (in Angstrom), charge = 0, multiplicity = 1:

       Center              X                  Y                   Z               Mass
    ------------   -----------------  -----------------  -----------------  -----------------
         O            1.735012241739     1.553350717003    -0.293635944053    15.994914619570
         N            0.951686241739    -0.538968282997     0.203332055947    14.003074004430
         C           -2.267647758261    -0.297985282997    -0.179030944053    12.000000000000
         C           -1.312000758261    -1.482071282997    -0.317800944053    12.000000000000
         C           -1.637892758261     1.077299717003    -0.398115944053    12.000000000000
         C           -0.176414558261    -1.339783482997     0.668111055947    12.000000000000
         C           -0.497445758261     1.413420717003     0.575721055947    12.000000000000
         C            0.831775241739     0.826120717003     0.137950055947    12.000000000000
         C            2.152918241739    -1.165720282997    -0.328483944053    12.000000000000
         H           -2.708880758261    -0.323544282997     0.827241055947     1.007825032230
         H           -3.099827758261    -0.426087282997    -0.882188944053     1.007825032230
         H           -1.871132758261    -2.407605282997    -0.128047944053     1.007825032230
         H           -0.927680758261    -1.547512282997    -1.343488944053     1.007825032230
         H           -2.422435758261     1.835827717003    -0.291863944053     1.007825032230
         H           -1.263573758261     1.162063717003    -1.426352944053     1.007825032230
         H           -0.463403758261    -1.137001282997     1.646716055947     1.007825032230
         H            0.323048241739    -2.417087282997     0.742451055947     1.007825032230
         H           -0.760840758261     1.093095717003     1.591924055947     1.007825032230
         H           -0.330010758261     2.492523717003     0.603979055947     1.007825032230
         H            1.909649241739    -1.804828282997    -1.185063944053     1.007825032230
         H            2.637323241739    -1.775769282997     0.440951055947     1.007825032230
         H            2.828476241739    -0.373891282997    -0.646657944053     1.007825032230

  Basis Set: AUG-CC-PVTZ
    Blend: AUG-CC-PVTZ
  Basis Set: (AUG-CC-PVTZ AUX)
    Blend: AUG-CC-PVTZ-JKFIT
	 Reference Energy          =    -402.0999267657622909 [Eh]
	 Singles Energy            =      -0.0000000000000000 [Eh]
	 Same-Spin Energy          =      -0.4223442272405079 [Eh]
	 Opposite-Spin Energy      =      -1.4063262395046889 [Eh]
	 Correlation Energy        =      -1.8286704667451970 [Eh]
	 Total Energy              =    -403.9285972325075136 [Eh]

	 ================> DF-SCS-MP2 Energies <==================
	-----------------------------------------------------------
	 SCS Same-Spin Scale       =       0.3333333333333333 [-]
	 SCS Opposite-Spin Scale   =       1.2000000000000000 [-]
	 SCS Same-Spin Energy      =      -0.1407814090801693 [Eh]
	 SCS Opposite-Spin Energy  =      -1.6875914874056266 [Eh]
	 SCS Correlation Energy    =      -1.8283728964857959 [Eh]
	 SCS Total Energy          =    -403.9282996622480937 [Eh]
	-----------------------------------------------------------

  Dipole Moment: [D]
     X:    -2.5950      Y:    -3.0404      Z:     0.7940     Total:     4.0754

*** Psi4 exiting successfully. Buy a developer a beer!
