                               Psi4 1.4a3.dev225

  ==> Input File <==

--------------------------------------------------------------------------
#psi4
#
memory 32 gb

molecule  {
0 1
  O        1.7739800     1.6003060    -0.2911220
  N        0.9906540    -0.4920130     0.2058460
  C       -2.2286800    -0.2510300    -0.1765170
  C       -1.2730330    -1.4351160    -0.3152870
  C       -1.5906843     1.1422514    -0.3984689
  C       -0.0841310    -1.3759550     0.6456410
  C       -0.4584780     1.4603760     0.5782350
  C        0.8707430     0.8730760     0.1404640
  C        2.1918860    -1.1187650    -0.3259700
  H       -2.6699130    -0.2765890     0.8297550
  H       -3.0608600    -0.3791320    -0.8796750
  H       -1.8321650    -2.3606500    -0.1255340
  H       -0.8887130    -1.5005570    -1.3409750
  H       -2.3834680     1.8827830    -0.2893500
  H       -1.2246060     1.2090190    -1.4238390
  H       -0.4244360    -1.0900460     1.6492300
  H        0.3620160    -2.3701320     0.7449650
  H       -0.7218730     1.1400510     1.5944380
  H       -0.2910430     2.5394790     0.6064930
  H        1.9486170    -1.7578730    -1.1825500
  H        2.6762910    -1.7288140     0.4434650
  H        2.8674440    -0.3269360    -0.6441440
units angstrom
no_reorient  #important for SAPT in psi4, default
symmetry c1  #important for SAPT in psi4, default
}

set PROPERTIES_ORIGIN ["COM"]
properties('MP2/aug-cc-pvtz', properties = ['dipole'])
--------------------------------------------------------------------------

    Molecular point group: c1
  Charge       = 0
  Multiplicity = 1
  Basis Set: AUG-CC-PVTZ
    Blend: AUG-CC-PVTZ
  Basis Set: (AUG-CC-PVTZ AUX)
    Blend: AUG-CC-PVTZ-JKFIT

    Orbital Energies [Eh]
    ---------------------

    Doubly Occupied:

       1A    -20.505791     2A    -15.580699     3A    -11.340097
       4A    -11.272135     5A    -11.250637     6A    -11.234070
       7A    -11.233293     8A    -11.233120     9A    -11.232004
      10A     -1.361947    11A     -1.241232    12A     -1.096020
      13A     -1.038958    14A     -0.974496    15A     -0.914040
      16A     -0.877772    17A     -0.793132    18A     -0.725381
      19A     -0.690920    20A     -0.668457    21A     -0.633141
      22A     -0.608416    23A     -0.600845    24A     -0.594181
      25A     -0.583499    26A     -0.558285    27A     -0.545323
      28A     -0.527204    29A     -0.510461    30A     -0.508976
      31A     -0.480006    32A     -0.467997    33A     -0.462806
      34A     -0.407588    35A     -0.365144

  @DF-RHF Final Energy:  -402.11182624170635

   => Energetics <=

    Nuclear Repulsion Energy =            486.1707794632270634
    One-Electron Energy =               -1510.3290676112048914
    Two-Electron Energy =                 622.0464619062714746
    Total Energy =                       -402.1118262417063534
  Basis Set: (AUG-CC-PVTZ AUX)
    Blend: AUG-CC-PVTZ-RI
    Molecular point group: c1

    Geometry (in Angstrom), charge = 0, multiplicity = 1:

       Center              X                  Y                   Z               Mass
    ------------   -----------------  -----------------  -----------------  -----------------
         O            1.729200442668     1.559499942482    -0.291006427515    15.994914619570
         N            0.945874442668    -0.532819057518     0.205961572485    14.003074004430
         C           -2.273459557332    -0.291836057518    -0.176401427515    12.000000000000
         C           -1.317812557332    -1.475922057518    -0.315171427515    12.000000000000
         C           -1.635463857332     1.101445342482    -0.398353327515    12.000000000000
         C           -0.128910557332    -1.416761057518     0.645756572485    12.000000000000
         C           -0.503257557332     1.419569942482     0.578350572485    12.000000000000
         C            0.825963442668     0.832269942482     0.140579572485    12.000000000000
         C            2.147106442668    -1.159571057518    -0.325854427515    12.000000000000
         H           -2.714692557332    -0.317395057518     0.829870572485     1.007825032230
         H           -3.105639557332    -0.419938057518    -0.879559427515     1.007825032230
         H           -1.876944557332    -2.401456057518    -0.125418427515     1.007825032230
         H           -0.933492557332    -1.541363057518    -1.340859427515     1.007825032230
         H           -2.428247557332     1.841976942482    -0.289234427515     1.007825032230
         H           -1.269385557332     1.168212942482    -1.423723427515     1.007825032230
         H           -0.469215557332    -1.130852057518     1.649345572485     1.007825032230
         H            0.317236442668    -2.410938057518     0.745080572485     1.007825032230
         H           -0.766652557332     1.099244942482     1.594553572485     1.007825032230
         H           -0.335822557332     2.498672942482     0.606608572485     1.007825032230
         H            1.903837442668    -1.798679057518    -1.182434427515     1.007825032230
         H            2.631511442668    -1.769620057518     0.443580572485     1.007825032230
         H            2.822664442668    -0.367742057518    -0.644028427515     1.007825032230

  Basis Set: AUG-CC-PVTZ
    Blend: AUG-CC-PVTZ
  Basis Set: (AUG-CC-PVTZ AUX)
    Blend: AUG-CC-PVTZ-JKFIT
	 Reference Energy          =    -402.1118262417063534 [Eh]
	 Singles Energy            =      -0.0000000000000000 [Eh]
	 Same-Spin Energy          =      -0.4217119272796205 [Eh]
	 Opposite-Spin Energy      =      -1.4051694095565923 [Eh]
	 Correlation Energy        =      -1.8268813368362129 [Eh]
	 Total Energy              =    -403.9387075785425623 [Eh]

	 ================> DF-SCS-MP2 Energies <==================
	-----------------------------------------------------------
	 SCS Same-Spin Scale       =       0.3333333333333333 [-]
	 SCS Opposite-Spin Scale   =       1.2000000000000000 [-]
	 SCS Same-Spin Energy      =      -0.1405706424265402 [Eh]
	 SCS Opposite-Spin Energy  =      -1.6862032914679108 [Eh]
	 SCS Correlation Energy    =      -1.8267739338944511 [Eh]
	 SCS Total Energy          =    -403.9386001756008113 [Eh]
	-----------------------------------------------------------

  Dipole Moment: [D]
     X:    -2.5711      Y:    -3.0989      Z:     0.7917     Total:     4.1037

*** Psi4 exiting successfully. Buy a developer a beer!
