                               Psi4 1.3.2 release

  ==> Input File <==

--------------------------------------------------------------------------
#psi4
#
memory 32 gb

molecule  {
0 1
  O        1.7739800     1.6003060    -0.2911220
  N        0.9906540    -0.4920130     0.2058460
  C       -2.2286800    -0.2510300    -0.1765170
  C       -1.2730330    -1.4351160    -0.3152870
  C       -1.5989250     1.1242550    -0.3956020
  C       -0.0255790    -1.4547753     0.6185144
  C       -0.4584780     1.4603760     0.5782350
  C        0.8707430     0.8730760     0.1404640
  C        2.1918860    -1.1187650    -0.3259700
  H       -2.6699130    -0.2765890     0.8297550
  H       -3.0608600    -0.3791320    -0.8796750
  H       -1.8321650    -2.3606500    -0.1255340
  H       -0.8887130    -1.5005570    -1.3409750
  H       -2.3834680     1.8827830    -0.2893500
  H       -1.2246060     1.2090190    -1.4238390
  H       -0.4244360    -1.0900460     1.6492300
  H        0.3620160    -2.3701320     0.7449650
  H       -0.7218730     1.1400510     1.5944380
  H       -0.2910430     2.5394790     0.6064930
  H        1.9486170    -1.7578730    -1.1825500
  H        2.6762910    -1.7288140     0.4434650
  H        2.8674440    -0.3269360    -0.6441440
units angstrom
no_reorient  #important for SAPT in psi4, default
symmetry c1  #important for SAPT in psi4, default
}

set PROPERTIES_ORIGIN ["COM"]
properties('MP2/aug-cc-pvtz', properties = ['dipole'])
--------------------------------------------------------------------------

    Molecular point group: c1
  Charge       = 0
  Multiplicity = 1
  Basis Set: AUG-CC-PVTZ
    Blend: AUG-CC-PVTZ
  Basis Set: (AUG-CC-PVTZ AUX)
    Blend: AUG-CC-PVTZ-JKFIT

    Orbital Energies [Eh]
    ---------------------

    Doubly Occupied:

       1A    -20.506872     2A    -15.581082     3A    -11.342466
       4A    -11.273144     5A    -11.249482     6A    -11.235183
       7A    -11.234723     8A    -11.233511     9A    -11.233183
      10A     -1.362701    11A     -1.241768    12A     -1.095732
      13A     -1.037606    14A     -0.973899    15A     -0.919918
      16A     -0.879216    17A     -0.792095    18A     -0.724460
      19A     -0.689569    20A     -0.675981    21A     -0.632358
      22A     -0.611726    23A     -0.602886    24A     -0.599502
      25A     -0.585966    26A     -0.553842    27A     -0.544770
      28A     -0.524645    29A     -0.511409    30A     -0.500657
      31A     -0.477518    32A     -0.471666    33A     -0.465092
      34A     -0.409031    35A     -0.361865

  @DF-RHF Final Energy:  -402.09910840781288

   => Energetics <=

    Nuclear Repulsion Energy =            485.5211909116683273
    One-Electron Energy =               -1508.9695514886466299
    Two-Electron Energy =                 621.3492521691654247
    Total Energy =                       -402.0991084078128779
  Basis Set: (AUG-CC-PVTZ AUX)
    Blend: AUG-CC-PVTZ-RI
    Molecular point group: c1

    Geometry (in Angstrom), charge = 0, multiplicity = 1:

       Center              X                  Y                   Z               Mass
    ------------   -----------------  -----------------  -----------------  -----------------
         O            1.724450348582     1.568640800184    -0.288715970749    15.994914619570
         N            0.941124348582    -0.523678199816     0.208252029251    14.003074004430
         C           -2.278209651418    -0.282695199816    -0.174110970749    12.000000000000
         C           -1.322562651418    -1.466781199816    -0.312880970749    12.000000000000
         C           -1.648454651418     1.092589800184    -0.393195970749    12.000000000000
         C           -0.075108651418    -1.486440499816     0.620920429251    12.000000000000
         C           -0.508007651418     1.428710800184     0.580641029251    12.000000000000
         C            0.821213348582     0.841410800184     0.142870029251    12.000000000000
         C            2.142356348582    -1.150430199816    -0.323563970749    12.000000000000
         H           -2.719442651418    -0.308254199816     0.832161029251     1.007825032230
         H           -3.110389651418    -0.410797199816    -0.877268970749     1.007825032230
         H           -1.881694651418    -2.392315199816    -0.123127970749     1.007825032230
         H           -0.938242651418    -1.532222199816    -1.338568970749     1.007825032230
         H           -2.432997651418     1.851117800184    -0.286943970749     1.007825032230
         H           -1.274135651418     1.177353800184    -1.421432970749     1.007825032230
         H           -0.473965651418    -1.121711199816     1.651636029251     1.007825032230
         H            0.312486348582    -2.401797199816     0.747371029251     1.007825032230
         H           -0.771402651418     1.108385800184     1.596844029251     1.007825032230
         H           -0.340572651418     2.507813800184     0.608899029251     1.007825032230
         H            1.899087348582    -1.789538199816    -1.180143970749     1.007825032230
         H            2.626761348582    -1.760479199816     0.445871029251     1.007825032230
         H            2.817914348582    -0.358601199816    -0.641737970749     1.007825032230

  Basis Set: AUG-CC-PVTZ
    Blend: AUG-CC-PVTZ
  Basis Set: (AUG-CC-PVTZ AUX)
    Blend: AUG-CC-PVTZ-JKFIT
	 Reference Energy          =    -402.0991084078128779 [Eh]
	 Singles Energy            =      -0.0000000000000000 [Eh]
	 Same-Spin Energy          =      -0.4217988687532057 [Eh]
	 Opposite-Spin Energy      =      -1.4056296768882399 [Eh]
	 Correlation Energy        =      -1.8274285456414456 [Eh]
	 Total Energy              =    -403.9265369534543311 [Eh]

	 ================> DF-SCS-MP2 Energies <==================
	-----------------------------------------------------------
	 SCS Same-Spin Scale       =       0.3333333333333333 [-]
	 SCS Opposite-Spin Scale   =       1.2000000000000000 [-]
	 SCS Same-Spin Energy      =      -0.1405996229177352 [Eh]
	 SCS Opposite-Spin Energy  =      -1.6867556122658878 [Eh]
	 SCS Correlation Energy    =      -1.8273552351836231 [Eh]
	 SCS Total Energy          =    -403.9264636429965094 [Eh]
	-----------------------------------------------------------

  Dipole Moment: [D]
     X:    -2.5598      Y:    -3.1236      Z:     0.7602     Total:     4.1094

*** Psi4 exiting successfully. Buy a developer a beer!
