                               Psi4 1.3.2 release

  ==> Input File <==

--------------------------------------------------------------------------
#psi4
#
memory 32 gb

molecule  {
0 1
  O        1.7739800     1.6003060    -0.2911220
  N        0.9906540    -0.4920130     0.2058460
  C       -2.2286800    -0.2510300    -0.1765170
  C       -1.2730330    -1.4351160    -0.3152870
  C       -1.5989250     1.1242550    -0.3956020
  C       -0.0841310    -1.3759550     0.6456410
  C       -0.4584780     1.4603760     0.5782350
  C        0.9136378     0.8749886     0.1192638
  C        2.1918860    -1.1187650    -0.3259700
  H       -2.6699130    -0.2765890     0.8297550
  H       -3.0608600    -0.3791320    -0.8796750
  H       -1.8321650    -2.3606500    -0.1255340
  H       -0.8887130    -1.5005570    -1.3409750
  H       -2.3834680     1.8827830    -0.2893500
  H       -1.2246060     1.2090190    -1.4238390
  H       -0.4244360    -1.0900460     1.6492300
  H        0.3620160    -2.3701320     0.7449650
  H       -0.7218730     1.1400510     1.5944380
  H       -0.2910430     2.5394790     0.6064930
  H        1.9486170    -1.7578730    -1.1825500
  H        2.6762910    -1.7288140     0.4434650
  H        2.8674440    -0.3269360    -0.6441440
units angstrom
no_reorient  #important for SAPT in psi4, default
symmetry c1  #important for SAPT in psi4, default
}

set PROPERTIES_ORIGIN ["COM"]
properties('MP2/aug-cc-pvtz', properties = ['dipole'])
--------------------------------------------------------------------------

    Molecular point group: c1
  Charge       = 0
  Multiplicity = 1
  Basis Set: AUG-CC-PVTZ
    Blend: AUG-CC-PVTZ
  Basis Set: (AUG-CC-PVTZ AUX)
    Blend: AUG-CC-PVTZ-JKFIT

    Orbital Energies [Eh]
    ---------------------

    Doubly Occupied:

       1A    -20.511676     2A    -15.577657     3A    -11.337559
       4A    -11.272318     5A    -11.249500     6A    -11.232306
       7A    -11.231803     8A    -11.230664     9A    -11.229757
      10A     -1.386550    11A     -1.244526    12A     -1.094436
      13A     -1.033239    14A     -0.971859    15A     -0.912326
      16A     -0.873835    17A     -0.790064    18A     -0.724684
      19A     -0.689418    20A     -0.669227    21A     -0.635011
      22A     -0.609146    23A     -0.604173    24A     -0.593933
      25A     -0.581918    26A     -0.557927    27A     -0.546794
      28A     -0.528113    29A     -0.516058    30A     -0.509986
      31A     -0.477759    32A     -0.469330    33A     -0.463175
      34A     -0.404076    35A     -0.367262

  @DF-RHF Final Energy:  -402.11210467310781

   => Energetics <=

    Nuclear Repulsion Energy =            486.3433410114470803
    One-Electron Energy =               -1510.6547576902878518
    Two-Electron Energy =                 622.1993120057329634
    Total Energy =                       -402.1121046731077513
  Basis Set: (AUG-CC-PVTZ AUX)
    Blend: AUG-CC-PVTZ-RI
    Molecular point group: c1

    Geometry (in Angstrom), charge = 0, multiplicity = 1:

       Center              X                  Y                   Z               Mass
    ------------   -----------------  -----------------  -----------------  -----------------
         O            1.725928608399     1.561018479337    -0.289275506233    15.994914619570
         N            0.942602608399    -0.531300520663     0.207692493767    14.003074004430
         C           -2.276731391601    -0.290317520663    -0.174670506233    12.000000000000
         C           -1.321084391601    -1.474403520663    -0.313440506233    12.000000000000
         C           -1.646976391601     1.084967479337    -0.393755506233    12.000000000000
         C           -0.132182391601    -1.415242520663     0.647487493767    12.000000000000
         C           -0.506529391601     1.421088479337     0.580081493767    12.000000000000
         C            0.865586408399     0.835701079337     0.121110293767    12.000000000000
         C            2.143834608399    -1.158052520663    -0.324123506233    12.000000000000
         H           -2.717964391601    -0.315876520663     0.831601493767     1.007825032230
         H           -3.108911391601    -0.418419520663    -0.877828506233     1.007825032230
         H           -1.880216391601    -2.399937520663    -0.123687506233     1.007825032230
         H           -0.936764391601    -1.539844520663    -1.339128506233     1.007825032230
         H           -2.431519391601     1.843495479337    -0.287503506233     1.007825032230
         H           -1.272657391601     1.169731479337    -1.421992506233     1.007825032230
         H           -0.472487391601    -1.129333520663     1.651076493767     1.007825032230
         H            0.313964608399    -2.409419520663     0.746811493767     1.007825032230
         H           -0.769924391601     1.100763479337     1.596284493767     1.007825032230
         H           -0.339094391601     2.500191479337     0.608339493767     1.007825032230
         H            1.900565608399    -1.797160520663    -1.180703506233     1.007825032230
         H            2.628239608399    -1.768101520663     0.445311493767     1.007825032230
         H            2.819392608399    -0.366223520663    -0.642297506233     1.007825032230

  Basis Set: AUG-CC-PVTZ
    Blend: AUG-CC-PVTZ
  Basis Set: (AUG-CC-PVTZ AUX)
    Blend: AUG-CC-PVTZ-JKFIT
	 Reference Energy          =    -402.1121046731078081 [Eh]
	 Singles Energy            =      -0.0000000000000000 [Eh]
	 Same-Spin Energy          =      -0.4208229643226664 [Eh]
	 Opposite-Spin Energy      =      -1.4034441798086399 [Eh]
	 Correlation Energy        =      -1.8242671441313063 [Eh]
	 Total Energy              =    -403.9363718172390918 [Eh]

	 ================> DF-SCS-MP2 Energies <==================
	-----------------------------------------------------------
	 SCS Same-Spin Scale       =       0.3333333333333333 [-]
	 SCS Opposite-Spin Scale   =       1.2000000000000000 [-]
	 SCS Same-Spin Energy      =      -0.1402743214408888 [Eh]
	 SCS Opposite-Spin Energy  =      -1.6841330157703678 [Eh]
	 SCS Correlation Energy    =      -1.8244073372112566 [Eh]
	 SCS Total Energy          =    -403.9365120103190634 [Eh]
	-----------------------------------------------------------

  Dipole Moment: [D]
     X:    -2.3529      Y:    -3.0058      Z:     0.7223     Total:     3.8850

*** Psi4 exiting successfully. Buy a developer a beer!
