                               Psi4 1.4a3.dev225

  ==> Input File <==

--------------------------------------------------------------------------
#psi4
#
memory 32 gb

molecule  {
0 1
  O        1.7739800     1.6003060    -0.2911220
  N        0.9906540    -0.4920130     0.2058460
  C       -2.2286800    -0.2510300    -0.1765170
  C       -1.2730330    -1.4351160    -0.3152870
  C       -1.5989250     1.1242550    -0.3956020
  C       -0.0685880    -1.3751816     0.6582036
  C       -0.4584780     1.4603760     0.5782350
  C        0.8707430     0.8730760     0.1404640
  C        2.1918860    -1.1187650    -0.3259700
  H       -2.6699130    -0.2765890     0.8297550
  H       -3.0608600    -0.3791320    -0.8796750
  H       -1.8321650    -2.3606500    -0.1255340
  H       -0.8887130    -1.5005570    -1.3409750
  H       -2.3834680     1.8827830    -0.2893500
  H       -1.2246060     1.2090190    -1.4238390
  H       -0.4244360    -1.0900460     1.6492300
  H        0.3620160    -2.3701320     0.7449650
  H       -0.7218730     1.1400510     1.5944380
  H       -0.2910430     2.5394790     0.6064930
  H        1.9486170    -1.7578730    -1.1825500
  H        2.6762910    -1.7288140     0.4434650
  H        2.8674440    -0.3269360    -0.6441440
units angstrom
no_reorient  #important for SAPT in psi4, default
symmetry c1  #important for SAPT in psi4, default
}

set PROPERTIES_ORIGIN ["COM"]
properties('MP2/aug-cc-pvtz', properties = ['dipole'])
--------------------------------------------------------------------------

    Molecular point group: c1
  Charge       = 0
  Multiplicity = 1
  Basis Set: AUG-CC-PVTZ
    Blend: AUG-CC-PVTZ
  Basis Set: (AUG-CC-PVTZ AUX)
    Blend: AUG-CC-PVTZ-JKFIT

    Orbital Energies [Eh]
    ---------------------

    Doubly Occupied:

       1A    -20.506077     2A    -15.580820     3A    -11.340393
       4A    -11.271441     5A    -11.250787     6A    -11.234550
       7A    -11.233633     8A    -11.233606     9A    -11.231243
      10A     -1.362310    11A     -1.242706    12A     -1.096522
      13A     -1.036243    14A     -0.975721    15A     -0.914350
      16A     -0.878706    17A     -0.791956    18A     -0.726759
      19A     -0.690762    20A     -0.668866    21A     -0.633572
      22A     -0.607798    23A     -0.601770    24A     -0.595152
      25A     -0.583868    26A     -0.557545    27A     -0.543864
      28A     -0.526709    29A     -0.511546    30A     -0.508599
      31A     -0.479360    32A     -0.466875    33A     -0.465407
      34A     -0.407833    35A     -0.364199

  @DF-RHF Final Energy:  -402.11194008885974

   => Energetics <=

    Nuclear Repulsion Energy =            486.2081921639270945
    One-Electron Energy =               -1510.3971625344088352
    Two-Electron Energy =                 622.0770302816220010
    Total Energy =                       -402.1119400888596829
  Basis Set: (AUG-CC-PVTZ AUX)
    Blend: AUG-CC-PVTZ-RI
    Molecular point group: c1

    Geometry (in Angstrom), charge = 0, multiplicity = 1:

       Center              X                  Y                   Z               Mass
    ------------   -----------------  -----------------  -----------------  -----------------
         O            1.728511002880     1.561126035834    -0.292463189251    15.994914619570
         N            0.945185002880    -0.531192964166     0.204504810749    14.003074004430
         C           -2.274148997120    -0.290209964166    -0.177858189251    12.000000000000
         C           -1.318501997120    -1.474295964166    -0.316628189251    12.000000000000
         C           -1.644393997120     1.085075035834    -0.396943189251    12.000000000000
         C           -0.114056997120    -1.414361564166     0.656862410749    12.000000000000
         C           -0.503946997120     1.421196035834     0.576893810749    12.000000000000
         C            0.825274002880     0.833896035834     0.139122810749    12.000000000000
         C            2.146417002880    -1.157944964166    -0.327311189251    12.000000000000
         H           -2.715381997120    -0.315768964166     0.828413810749     1.007825032230
         H           -3.106328997120    -0.418311964166    -0.881016189251     1.007825032230
         H           -1.877633997120    -2.399829964166    -0.126875189251     1.007825032230
         H           -0.934181997120    -1.539736964166    -1.342316189251     1.007825032230
         H           -2.428936997120     1.843603035834    -0.290691189251     1.007825032230
         H           -1.270074997120     1.169839035834    -1.425180189251     1.007825032230
         H           -0.469904997120    -1.129225964166     1.647888810749     1.007825032230
         H            0.316547002880    -2.409311964166     0.743623810749     1.007825032230
         H           -0.767341997120     1.100871035834     1.593096810749     1.007825032230
         H           -0.336511997120     2.500299035834     0.605151810749     1.007825032230
         H            1.903148002880    -1.797052964166    -1.183891189251     1.007825032230
         H            2.630822002880    -1.767993964166     0.442123810749     1.007825032230
         H            2.821975002880    -0.366115964166    -0.645485189251     1.007825032230

  Basis Set: AUG-CC-PVTZ
    Blend: AUG-CC-PVTZ
  Basis Set: (AUG-CC-PVTZ AUX)
    Blend: AUG-CC-PVTZ-JKFIT
	 Reference Energy          =    -402.1119400888597397 [Eh]
	 Singles Energy            =      -0.0000000000000000 [Eh]
	 Same-Spin Energy          =      -0.4216977642271190 [Eh]
	 Opposite-Spin Energy      =      -1.4051027997239744 [Eh]
	 Correlation Energy        =      -1.8268005639510934 [Eh]
	 Total Energy              =    -403.9387406528108500 [Eh]

	 ================> DF-SCS-MP2 Energies <==================
	-----------------------------------------------------------
	 SCS Same-Spin Scale       =       0.3333333333333333 [-]
	 SCS Opposite-Spin Scale   =       1.2000000000000000 [-]
	 SCS Same-Spin Energy      =      -0.1405659214090396 [Eh]
	 SCS Opposite-Spin Energy  =      -1.6861233596687693 [Eh]
	 SCS Correlation Energy    =      -1.8266892810778088 [Eh]
	 SCS Total Energy          =    -403.9386293699375301 [Eh]
	-----------------------------------------------------------

  Dipole Moment: [D]
     X:    -2.5506      Y:    -3.0906      Z:     0.8069     Total:     4.0876

*** Psi4 exiting successfully. Buy a developer a beer!
