                               Psi4 1.3.2 release

  ==> Input File <==

--------------------------------------------------------------------------
#psi4
#
memory 32 gb

molecule  {
0 1
  O        1.7739800     1.6003060    -0.2911220
  N        0.9906540    -0.4920130     0.2058460
  C       -2.2286800    -0.2510300    -0.1765170
  C       -1.2730330    -1.4351160    -0.3152870
  C       -1.5989250     1.1242550    -0.3956020
  C       -0.1618458    -1.3798222     0.5828281
  C       -0.4584780     1.4603760     0.5782350
  C        0.8707430     0.8730760     0.1404640
  C        2.1918860    -1.1187650    -0.3259700
  H       -2.6699130    -0.2765890     0.8297550
  H       -3.0608600    -0.3791320    -0.8796750
  H       -1.8321650    -2.3606500    -0.1255340
  H       -0.8887130    -1.5005570    -1.3409750
  H       -2.3834680     1.8827830    -0.2893500
  H       -1.2246060     1.2090190    -1.4238390
  H       -0.4244360    -1.0900460     1.6492300
  H        0.3620160    -2.3701320     0.7449650
  H       -0.7218730     1.1400510     1.5944380
  H       -0.2910430     2.5394790     0.6064930
  H        1.9486170    -1.7578730    -1.1825500
  H        2.6762910    -1.7288140     0.4434650
  H        2.8674440    -0.3269360    -0.6441440
units angstrom
no_reorient  #important for SAPT in psi4, default
symmetry c1  #important for SAPT in psi4, default
}

set PROPERTIES_ORIGIN ["COM"]
properties('MP2/aug-cc-pvtz', properties = ['dipole'])
--------------------------------------------------------------------------

    Molecular point group: c1
  Charge       = 0
  Multiplicity = 1
  Basis Set: AUG-CC-PVTZ
    Blend: AUG-CC-PVTZ
  Basis Set: (AUG-CC-PVTZ AUX)
    Blend: AUG-CC-PVTZ-JKFIT

    Orbital Energies [Eh]
    ---------------------

    Doubly Occupied:

       1A    -20.504003     2A    -15.579474     3A    -11.337657
       4A    -11.277468     5A    -11.249570     6A    -11.235380
       7A    -11.233151     8A    -11.232860     9A    -11.231269
      10A     -1.359663    11A     -1.234058    12A     -1.105197
      13A     -1.048651    14A     -0.975279    15A     -0.912619
      16A     -0.873930    17A     -0.795260    18A     -0.719260
      19A     -0.690371    20A     -0.669867    21A     -0.632925
      22A     -0.611568    23A     -0.602943    24A     -0.590634
      25A     -0.581093    26A     -0.563686    27A     -0.547583
      28A     -0.528635    29A     -0.508887    30A     -0.500063
      31A     -0.478666    32A     -0.470718    33A     -0.460571
      34A     -0.405520    35A     -0.367724

  @DF-RHF Final Energy:  -402.10014748257402

   => Energetics <=

    Nuclear Repulsion Energy =            486.7940987828479251
    One-Electron Energy =               -1511.5560799844874964
    Two-Electron Energy =                 622.6618337190656121
    Total Energy =                       -402.1001474825740161
  Basis Set: (AUG-CC-PVTZ AUX)
    Blend: AUG-CC-PVTZ-RI
    Molecular point group: c1

    Geometry (in Angstrom), charge = 0, multiplicity = 1:

       Center              X                  Y                   Z               Mass
    ------------   -----------------  -----------------  -----------------  -----------------
         O            1.737315850384     1.561564173720    -0.285346682288    15.994914619570
         N            0.953989850384    -0.530754826280     0.211621317712    14.003074004430
         C           -2.265344149616    -0.289771826280    -0.170741682288    12.000000000000
         C           -1.309697149616    -1.473857826280    -0.309511682288    12.000000000000
         C           -1.635589149616     1.085513173720    -0.389826682288    12.000000000000
         C           -0.198509949616    -1.418564026280     0.588603417712    12.000000000000
         C           -0.495142149616     1.421634173720     0.584010317712    12.000000000000
         C            0.834078850384     0.834334173720     0.146239317712    12.000000000000
         C            2.155221850384    -1.157506826280    -0.320194682288    12.000000000000
         H           -2.706577149616    -0.315330826280     0.835530317712     1.007825032230
         H           -3.097524149616    -0.417873826280    -0.873899682288     1.007825032230
         H           -1.868829149616    -2.399391826280    -0.119758682288     1.007825032230
         H           -0.925377149616    -1.539298826280    -1.335199682288     1.007825032230
         H           -2.420132149616     1.844041173720    -0.283574682288     1.007825032230
         H           -1.261270149616     1.170277173720    -1.418063682288     1.007825032230
         H           -0.461100149616    -1.128787826280     1.655005317712     1.007825032230
         H            0.325351850384    -2.408873826280     0.750740317712     1.007825032230
         H           -0.758537149616     1.101309173720     1.600213317712     1.007825032230
         H           -0.327707149616     2.500737173720     0.612268317712     1.007825032230
         H            1.911952850384    -1.796614826280    -1.176774682288     1.007825032230
         H            2.639626850384    -1.767555826280     0.449240317712     1.007825032230
         H            2.830779850384    -0.365677826280    -0.638368682288     1.007825032230

  Basis Set: AUG-CC-PVTZ
    Blend: AUG-CC-PVTZ
  Basis Set: (AUG-CC-PVTZ AUX)
    Blend: AUG-CC-PVTZ-JKFIT
	 Reference Energy          =    -402.1001474825740161 [Eh]
	 Singles Energy            =      -0.0000000000000000 [Eh]
	 Same-Spin Energy          =      -0.4227568130003758 [Eh]
	 Opposite-Spin Energy      =      -1.4066458065004603 [Eh]
	 Correlation Energy        =      -1.8294026195008362 [Eh]
	 Total Energy              =    -403.9295501020748702 [Eh]

	 ================> DF-SCS-MP2 Energies <==================
	-----------------------------------------------------------
	 SCS Same-Spin Scale       =       0.3333333333333333 [-]
	 SCS Opposite-Spin Scale   =       1.2000000000000000 [-]
	 SCS Same-Spin Energy      =      -0.1409189376667919 [Eh]
	 SCS Opposite-Spin Energy  =      -1.6879749678005525 [Eh]
	 SCS Correlation Energy    =      -1.8288939054673443 [Eh]
	 SCS Total Energy          =    -403.9290413880413553 [Eh]
	-----------------------------------------------------------

  Dipole Moment: [D]
     X:    -2.7333      Y:    -3.1622      Z:     0.7128     Total:     4.2401

*** Psi4 exiting successfully. Buy a developer a beer!
