                               Psi4 1.3.2 release

  ==> Input File <==

--------------------------------------------------------------------------
#psi4
#
memory 32 gb

molecule  {
0 1
  O        1.7739800     1.6003060    -0.2911220
  N        0.9906540    -0.4920130     0.2058460
  C       -2.2286800    -0.2510300    -0.1765170
  C       -1.2730330    -1.4351160    -0.3152870
  C       -1.5989250     1.1242550    -0.3956020
  C       -0.0841310    -1.3759550     0.6456410
  C       -0.4584780     1.4603760     0.5782350
  C        1.0167416     0.9906250     0.0707027
  C        2.1918860    -1.1187650    -0.3259700
  H       -2.6699130    -0.2765890     0.8297550
  H       -3.0608600    -0.3791320    -0.8796750
  H       -1.8321650    -2.3606500    -0.1255340
  H       -0.8887130    -1.5005570    -1.3409750
  H       -2.3834680     1.8827830    -0.2893500
  H       -1.2246060     1.2090190    -1.4238390
  H       -0.4244360    -1.0900460     1.6492300
  H        0.3620160    -2.3701320     0.7449650
  H       -0.7218730     1.1400510     1.5944380
  H       -0.2910430     2.5394790     0.6064930
  H        1.9486170    -1.7578730    -1.1825500
  H        2.6762910    -1.7288140     0.4434650
  H        2.8674440    -0.3269360    -0.6441440
units angstrom
no_reorient  #important for SAPT in psi4, default
symmetry c1  #important for SAPT in psi4, default
}

set PROPERTIES_ORIGIN ["COM"]
properties('MP2/aug-cc-pvtz', properties = ['dipole'])
--------------------------------------------------------------------------

    Molecular point group: c1
  Charge       = 0
  Multiplicity = 1
  Basis Set: AUG-CC-PVTZ
    Blend: AUG-CC-PVTZ
  Basis Set: (AUG-CC-PVTZ AUX)
    Blend: AUG-CC-PVTZ-JKFIT

    Orbital Energies [Eh]
    ---------------------

    Doubly Occupied:

       1A    -20.549928     2A    -15.548529     3A    -11.335523
       4A    -11.260573     5A    -11.237630     6A    -11.227679
       7A    -11.224948     8A    -11.223736     9A    -11.222391
      10A     -1.526127    11A     -1.212676    12A     -1.084414
      13A     -1.019706    14A     -0.955814    15A     -0.882088
      16A     -0.863115    17A     -0.782391    18A     -0.728793
      19A     -0.713543    20A     -0.673310    21A     -0.649666
      22A     -0.633596    23A     -0.602700    24A     -0.594661
      25A     -0.575272    26A     -0.572883    27A     -0.554206
      28A     -0.545585    29A     -0.516842    30A     -0.502947
      31A     -0.471274    32A     -0.468119    33A     -0.456778
      34A     -0.383507    35A     -0.350606

  @DF-RHF Final Energy:  -402.03731871213080

   => Energetics <=

    Nuclear Repulsion Energy =            486.2683571065922479
    One-Electron Energy =               -1510.3082415758760817
    Two-Electron Energy =                 622.0025657571529791
    Total Energy =                       -402.0373187121308547
  Basis Set: (AUG-CC-PVTZ AUX)
    Blend: AUG-CC-PVTZ-RI
    Molecular point group: c1

    Geometry (in Angstrom), charge = 0, multiplicity = 1:

       Center              X                  Y                   Z               Mass
    ------------   -----------------  -----------------  -----------------  -----------------
         O            1.716194160062     1.550100777354    -0.284690655635    15.994914619570
         N            0.932868160062    -0.542218222646     0.212277344365    14.003074004430
         C           -2.286465839938    -0.301235222646    -0.170085655635    12.000000000000
         C           -1.330818839938    -1.485321222646    -0.308855655635    12.000000000000
         C           -1.656710839938     1.074049777354    -0.389170655635    12.000000000000
         C           -0.141916839938    -1.426160222646     0.652072344365    12.000000000000
         C           -0.516263839938     1.410170777354     0.584666344365    12.000000000000
         C            0.958955760062     0.940419777354     0.077134044365    12.000000000000
         C            2.134100160062    -1.168970222646    -0.319538655635    12.000000000000
         H           -2.727698839938    -0.326794222646     0.836186344365     1.007825032230
         H           -3.118645839938    -0.429337222646    -0.873243655635     1.007825032230
         H           -1.889950839938    -2.410855222646    -0.119102655635     1.007825032230
         H           -0.946498839938    -1.550762222646    -1.334543655635     1.007825032230
         H           -2.441253839938     1.832577777354    -0.282918655635     1.007825032230
         H           -1.282391839938     1.158813777354    -1.417407655635     1.007825032230
         H           -0.482221839938    -1.140251222646     1.655661344365     1.007825032230
         H            0.304230160062    -2.420337222646     0.751396344365     1.007825032230
         H           -0.779658839938     1.089845777354     1.600869344365     1.007825032230
         H           -0.348828839938     2.489273777354     0.612924344365     1.007825032230
         H            1.890831160062    -1.808078222646    -1.176118655635     1.007825032230
         H            2.618505160062    -1.779019222646     0.449896344365     1.007825032230
         H            2.809658160062    -0.377141222646    -0.637712655635     1.007825032230

  Basis Set: AUG-CC-PVTZ
    Blend: AUG-CC-PVTZ
  Basis Set: (AUG-CC-PVTZ AUX)
    Blend: AUG-CC-PVTZ-JKFIT
	 Reference Energy          =    -402.0373187121307978 [Eh]
	 Singles Energy            =      -0.0000000000000000 [Eh]
	 Same-Spin Energy          =      -0.4183583816232113 [Eh]
	 Opposite-Spin Energy      =      -1.3985793711270256 [Eh]
	 Correlation Energy        =      -1.8169377527502368 [Eh]
	 Total Energy              =    -403.8542564648810185 [Eh]

	 ================> DF-SCS-MP2 Energies <==================
	-----------------------------------------------------------
	 SCS Same-Spin Scale       =       0.3333333333333333 [-]
	 SCS Opposite-Spin Scale   =       1.2000000000000000 [-]
	 SCS Same-Spin Energy      =      -0.1394527938744037 [Eh]
	 SCS Opposite-Spin Energy  =      -1.6782952453524307 [Eh]
	 SCS Correlation Energy    =      -1.8177480392268344 [Eh]
	 SCS Total Energy          =    -403.8550667513576400 [Eh]
	-----------------------------------------------------------

  Dipole Moment: [D]
     X:    -1.5790      Y:    -1.6325      Z:     0.3952     Total:     2.3053

*** Psi4 exiting successfully. Buy a developer a beer!
