                               Psi4 1.3.2 release

  ==> Input File <==

--------------------------------------------------------------------------
#psi4
#
memory 32 gb

molecule  {
0 1
  O        1.7739800     1.6003060    -0.2911220
  N        0.9906540    -0.4920130     0.2058460
  C       -2.2286800    -0.2510300    -0.1765170
  C       -1.3981232    -1.2801241    -0.2971226
  C       -1.5989250     1.1242550    -0.3956020
  C       -0.0841310    -1.3759550     0.6456410
  C       -0.4584780     1.4603760     0.5782350
  C        0.8707430     0.8730760     0.1404640
  C        2.1918860    -1.1187650    -0.3259700
  H       -2.6699130    -0.2765890     0.8297550
  H       -3.0608600    -0.3791320    -0.8796750
  H       -1.8321650    -2.3606500    -0.1255340
  H       -0.8887130    -1.5005570    -1.3409750
  H       -2.3834680     1.8827830    -0.2893500
  H       -1.2246060     1.2090190    -1.4238390
  H       -0.4244360    -1.0900460     1.6492300
  H        0.3620160    -2.3701320     0.7449650
  H       -0.7218730     1.1400510     1.5944380
  H       -0.2910430     2.5394790     0.6064930
  H        1.9486170    -1.7578730    -1.1825500
  H        2.6762910    -1.7288140     0.4434650
  H        2.8674440    -0.3269360    -0.6441440
units angstrom
no_reorient  #important for SAPT in psi4, default
symmetry c1  #important for SAPT in psi4, default
}

set PROPERTIES_ORIGIN ["COM"]
properties('MP2/aug-cc-pvtz', properties = ['dipole'])
--------------------------------------------------------------------------

    Molecular point group: c1
  Charge       = 0
  Multiplicity = 1
  Basis Set: AUG-CC-PVTZ
    Blend: AUG-CC-PVTZ
  Basis Set: (AUG-CC-PVTZ AUX)
    Blend: AUG-CC-PVTZ-JKFIT

    Orbital Energies [Eh]
    ---------------------

    Doubly Occupied:

       1A    -20.505929     2A    -15.579925     3A    -11.340096
       4A    -11.277166     5A    -11.250439     6A    -11.243896
       7A    -11.236773     8A    -11.235095     9A    -11.222942
      10A     -1.361924    11A     -1.240087    12A     -1.125971
      13A     -1.039985    14A     -0.976181    15A     -0.919522
      16A     -0.879508    17A     -0.784763    18A     -0.723571
      19A     -0.692755    20A     -0.673041    21A     -0.634748
      22A     -0.625525    23A     -0.604983    24A     -0.600851
      25A     -0.581003    26A     -0.554871    27A     -0.547152
      28A     -0.529269    29A     -0.515046    30A     -0.506006
      31A     -0.490148    32A     -0.452609    33A     -0.445920
      34A     -0.407708    35A     -0.356748

  @DF-RHF Final Energy:  -402.06222147984801

   => Energetics <=

    Nuclear Repulsion Energy =            487.7373365438526776
    One-Electron Energy =               -1513.2748050730840532
    Two-Electron Energy =                 623.4752470493833698
    Total Energy =                       -402.0622214798479490
  Basis Set: (AUG-CC-PVTZ AUX)
    Blend: AUG-CC-PVTZ-RI
    Molecular point group: c1

    Geometry (in Angstrom), charge = 0, multiplicity = 1:

       Center              X                  Y                   Z               Mass
    ------------   -----------------  -----------------  -----------------  -----------------
         O            1.741788754232     1.546565641155    -0.292992077931    15.994914619570
         N            0.958462754232    -0.545753358845     0.203975922069    14.003074004430
         C           -2.260871245768    -0.304770358845    -0.178387077931    12.000000000000
         C           -1.430314445768    -1.333864458845    -0.298992677931    12.000000000000
         C           -1.631116245768     1.070514641155    -0.397472077931    12.000000000000
         C           -0.116322245768    -1.429695358845     0.643770922069    12.000000000000
         C           -0.490669245768     1.406635641155     0.576364922069    12.000000000000
         C            0.838551754232     0.819335641155     0.138593922069    12.000000000000
         C            2.159694754232    -1.172505358845    -0.327840077931    12.000000000000
         H           -2.702104245768    -0.330329358845     0.827884922069     1.007825032230
         H           -3.093051245768    -0.432872358845    -0.881545077931     1.007825032230
         H           -1.864356245768    -2.414390358845    -0.127404077931     1.007825032230
         H           -0.920904245768    -1.554297358845    -1.342845077931     1.007825032230
         H           -2.415659245768     1.829042641155    -0.291220077931     1.007825032230
         H           -1.256797245768     1.155278641155    -1.425709077931     1.007825032230
         H           -0.456627245768    -1.143786358845     1.647359922069     1.007825032230
         H            0.329824754232    -2.423872358845     0.743094922069     1.007825032230
         H           -0.754064245768     1.086310641155     1.592567922069     1.007825032230
         H           -0.323234245768     2.485738641155     0.604622922069     1.007825032230
         H            1.916425754232    -1.811613358845    -1.184420077931     1.007825032230
         H            2.644099754232    -1.782554358845     0.441594922069     1.007825032230
         H            2.835252754232    -0.380676358845    -0.646014077931     1.007825032230

  Basis Set: AUG-CC-PVTZ
    Blend: AUG-CC-PVTZ
  Basis Set: (AUG-CC-PVTZ AUX)
    Blend: AUG-CC-PVTZ-JKFIT
	 Reference Energy          =    -402.0622214798480059 [Eh]
	 Singles Energy            =      -0.0000000000000000 [Eh]
	 Same-Spin Energy          =      -0.4245905428999469 [Eh]
	 Opposite-Spin Energy      =      -1.4092812464060680 [Eh]
	 Correlation Energy        =      -1.8338717893060150 [Eh]
	 Total Energy              =    -403.8960932691539938 [Eh]

	 ================> DF-SCS-MP2 Energies <==================
	-----------------------------------------------------------
	 SCS Same-Spin Scale       =       0.3333333333333333 [-]
	 SCS Opposite-Spin Scale   =       1.2000000000000000 [-]
	 SCS Same-Spin Energy      =      -0.1415301809666490 [Eh]
	 SCS Opposite-Spin Energy  =      -1.6911374956872816 [Eh]
	 SCS Correlation Energy    =      -1.8326676766539305 [Eh]
	 SCS Total Energy          =    -403.8948891565019608 [Eh]
	-----------------------------------------------------------

  Dipole Moment: [D]
     X:    -2.6174      Y:    -2.9902      Z:     0.8352     Total:     4.0607

*** Psi4 exiting successfully. Buy a developer a beer!
