                               Psi4 1.4a3.dev225

  ==> Input File <==

--------------------------------------------------------------------------
#psi4
#
memory 32 gb

molecule  {
0 1
  O        1.7739800     1.6003060    -0.2911220
  N        0.9906540    -0.4920130     0.2058460
  C       -2.2286800    -0.2510300    -0.1765170
  C       -1.2730330    -1.4351160    -0.3152870
  C       -1.5989250     1.1242550    -0.3956020
  C       -0.0841310    -1.3759550     0.6456410
  C       -0.4584780     1.4603760     0.5782350
  C        0.8663728     0.9228276     0.1380811
  C        2.1918860    -1.1187650    -0.3259700
  H       -2.6699130    -0.2765890     0.8297550
  H       -3.0608600    -0.3791320    -0.8796750
  H       -1.8321650    -2.3606500    -0.1255340
  H       -0.8887130    -1.5005570    -1.3409750
  H       -2.3834680     1.8827830    -0.2893500
  H       -1.2246060     1.2090190    -1.4238390
  H       -0.4244360    -1.0900460     1.6492300
  H        0.3620160    -2.3701320     0.7449650
  H       -0.7218730     1.1400510     1.5944380
  H       -0.2910430     2.5394790     0.6064930
  H        1.9486170    -1.7578730    -1.1825500
  H        2.6762910    -1.7288140     0.4434650
  H        2.8674440    -0.3269360    -0.6441440
units angstrom
no_reorient  #important for SAPT in psi4, default
symmetry c1  #important for SAPT in psi4, default
}

set PROPERTIES_ORIGIN ["COM"]
properties('MP2/aug-cc-pvtz', properties = ['dipole'])
--------------------------------------------------------------------------

    Molecular point group: c1
  Charge       = 0
  Multiplicity = 1
  Basis Set: AUG-CC-PVTZ
    Blend: AUG-CC-PVTZ
  Basis Set: (AUG-CC-PVTZ AUX)
    Blend: AUG-CC-PVTZ-JKFIT

    Orbital Energies [Eh]
    ---------------------

    Doubly Occupied:

       1A    -20.515777     2A    -15.571272     3A    -11.343071
       4A    -11.267280     5A    -11.246225     6A    -11.236381
       7A    -11.234783     8A    -11.231151     9A    -11.230234
      10A     -1.379932    11A     -1.229739    12A     -1.097174
      13A     -1.038778    14A     -0.972730    15A     -0.902033
      16A     -0.878771    17A     -0.791038    18A     -0.721237
      19A     -0.693677    20A     -0.667798    21A     -0.630257
      22A     -0.607335    23A     -0.604823    24A     -0.592031
      25A     -0.584972    26A     -0.557483    27A     -0.550080
      28A     -0.524106    29A     -0.511147    30A     -0.508203
      31A     -0.478624    32A     -0.469486    33A     -0.465143
      34A     -0.414174    35A     -0.359313

  @DF-RHF Final Energy:  -402.10969672108558

   => Energetics <=

    Nuclear Repulsion Energy =            485.9913454600230693
    One-Electron Energy =               -1509.9895680492884367
    Two-Electron Energy =                 621.8885258681798405
    Total Energy =                       -402.1096967210855837
  Basis Set: (AUG-CC-PVTZ AUX)
    Blend: AUG-CC-PVTZ-RI
    Molecular point group: c1

    Geometry (in Angstrom), charge = 0, multiplicity = 1:

       Center              X                  Y                   Z               Mass
    ------------   -----------------  -----------------  -----------------  -----------------
         O            1.730391088935     1.556501805131    -0.291052123920    15.994914619570
         N            0.947065088935    -0.535817194869     0.205915876080    14.003074004430
         C           -2.272268911065    -0.294834194869    -0.176447123920    12.000000000000
         C           -1.316621911065    -1.478920194869    -0.315217123920    12.000000000000
         C           -1.642513911065     1.080450805131    -0.395532123920    12.000000000000
         C           -0.127719911065    -1.419759194869     0.645710876080    12.000000000000
         C           -0.502066911065     1.416571805131     0.578304876080    12.000000000000
         C            0.822783888935     0.879023405131     0.138150976080    12.000000000000
         C            2.148297088935    -1.162569194869    -0.325900123920    12.000000000000
         H           -2.713501911065    -0.320393194869     0.829824876080     1.007825032230
         H           -3.104448911065    -0.422936194869    -0.879605123920     1.007825032230
         H           -1.875753911065    -2.404454194869    -0.125464123920     1.007825032230
         H           -0.932301911065    -1.544361194869    -1.340905123920     1.007825032230
         H           -2.427056911065     1.838978805131    -0.289280123920     1.007825032230
         H           -1.268194911065     1.165214805131    -1.423769123920     1.007825032230
         H           -0.468024911065    -1.133850194869     1.649299876080     1.007825032230
         H            0.318427088935    -2.413936194869     0.745034876080     1.007825032230
         H           -0.765461911065     1.096246805131     1.594507876080     1.007825032230
         H           -0.334631911065     2.495674805131     0.606562876080     1.007825032230
         H            1.905028088935    -1.801677194869    -1.182480123920     1.007825032230
         H            2.632702088935    -1.772618194869     0.443534876080     1.007825032230
         H            2.823855088935    -0.370740194869    -0.644074123920     1.007825032230

  Basis Set: AUG-CC-PVTZ
    Blend: AUG-CC-PVTZ
  Basis Set: (AUG-CC-PVTZ AUX)
    Blend: AUG-CC-PVTZ-JKFIT
	 Reference Energy          =    -402.1096967210855837 [Eh]
	 Singles Energy            =      -0.0000000000000000 [Eh]
	 Same-Spin Energy          =      -0.4216298037149458 [Eh]
	 Opposite-Spin Energy      =      -1.4048062470634277 [Eh]
	 Correlation Energy        =      -1.8264360507783737 [Eh]
	 Total Energy              =    -403.9361327718639814 [Eh]

	 ================> DF-SCS-MP2 Energies <==================
	-----------------------------------------------------------
	 SCS Same-Spin Scale       =       0.3333333333333333 [-]
	 SCS Opposite-Spin Scale   =       1.2000000000000000 [-]
	 SCS Same-Spin Energy      =      -0.1405432679049819 [Eh]
	 SCS Opposite-Spin Energy  =      -1.6857674964761131 [Eh]
	 SCS Correlation Energy    =      -1.8263107643810950 [Eh]
	 SCS Total Energy          =    -403.9360074854666891 [Eh]
	-----------------------------------------------------------

  Dipole Moment: [D]
     X:    -2.5540      Y:    -2.6529      Z:     0.7517     Total:     3.7585

*** Psi4 exiting successfully. Buy a developer a beer!
