                               Psi4 1.4a3.dev225

  ==> Input File <==

--------------------------------------------------------------------------
#psi4
#
memory 32 gb

molecule  {
0 1
  O        1.7739800     1.6003060    -0.2911220
  N        0.9906540    -0.4920130     0.2058460
  C       -2.2286800    -0.2510300    -0.1765170
  C       -1.2730330    -1.4351160    -0.3152870
  C       -1.5989250     1.1242550    -0.3956020
  C       -0.0841310    -1.3759550     0.6456410
  C       -0.4584780     1.4603760     0.5782350
  C        0.9145338     0.8537276     0.1260418
  C        2.1918860    -1.1187650    -0.3259700
  H       -2.6699130    -0.2765890     0.8297550
  H       -3.0608600    -0.3791320    -0.8796750
  H       -1.8321650    -2.3606500    -0.1255340
  H       -0.8887130    -1.5005570    -1.3409750
  H       -2.3834680     1.8827830    -0.2893500
  H       -1.2246060     1.2090190    -1.4238390
  H       -0.4244360    -1.0900460     1.6492300
  H        0.3620160    -2.3701320     0.7449650
  H       -0.7218730     1.1400510     1.5944380
  H       -0.2910430     2.5394790     0.6064930
  H        1.9486170    -1.7578730    -1.1825500
  H        2.6762910    -1.7288140     0.4434650
  H        2.8674440    -0.3269360    -0.6441440
units angstrom
no_reorient  #important for SAPT in psi4, default
symmetry c1  #important for SAPT in psi4, default
}

set PROPERTIES_ORIGIN ["COM"]
properties('MP2/aug-cc-pvtz', properties = ['dipole'])
--------------------------------------------------------------------------

    Molecular point group: c1
  Charge       = 0
  Multiplicity = 1
  Basis Set: AUG-CC-PVTZ
    Blend: AUG-CC-PVTZ
  Basis Set: (AUG-CC-PVTZ AUX)
    Blend: AUG-CC-PVTZ-JKFIT

    Orbital Energies [Eh]
    ---------------------

    Doubly Occupied:

       1A    -20.506923     2A    -15.581760     3A    -11.336530
       4A    -11.274484     5A    -11.251473     6A    -11.233674
       7A    -11.231399     8A    -11.230385     9A    -11.230084
      10A     -1.376357    11A     -1.249788    12A     -1.095132
      13A     -1.033649    14A     -0.973666    15A     -0.917619
      16A     -0.873832    17A     -0.790740    18A     -0.726821
      19A     -0.688106    20A     -0.669265    21A     -0.636473
      22A     -0.609329    23A     -0.602827    24A     -0.594907
      25A     -0.581300    26A     -0.558591    27A     -0.543281
      28A     -0.529633    29A     -0.514420    30A     -0.510368
      31A     -0.478193    32A     -0.468398    33A     -0.463481
      34A     -0.401095    35A     -0.369566

  @DF-RHF Final Energy:  -402.11186597198491

   => Energetics <=

    Nuclear Repulsion Energy =            486.4530907603739251
    One-Electron Energy =               -1510.8628238017695367
    Two-Electron Energy =                 622.2978670694106995
    Total Energy =                       -402.1118659719849120
  Basis Set: (AUG-CC-PVTZ AUX)
    Blend: AUG-CC-PVTZ-RI
    Molecular point group: c1

    Geometry (in Angstrom), charge = 0, multiplicity = 1:

       Center              X                  Y                   Z               Mass
    ------------   -----------------  -----------------  -----------------  -----------------
         O            1.725844013402     1.563025816662    -0.289915444730    15.994914619570
         N            0.942518013402    -0.529293183338     0.207052555270    14.003074004430
         C           -2.276815986598    -0.288310183338    -0.175310444730    12.000000000000
         C           -1.321168986598    -1.472396183338    -0.314080444730    12.000000000000
         C           -1.647060986598     1.086974816662    -0.394395444730    12.000000000000
         C           -0.132266986598    -1.413235183338     0.646847555270    12.000000000000
         C           -0.506613986598     1.423095816662     0.579441555270    12.000000000000
         C            0.866397813402     0.816447416662     0.127248355270    12.000000000000
         C            2.143750013402    -1.156045183338    -0.324763444730    12.000000000000
         H           -2.718048986598    -0.313869183338     0.830961555270     1.007825032230
         H           -3.108995986598    -0.416412183338    -0.878468444730     1.007825032230
         H           -1.880300986598    -2.397930183338    -0.124327444730     1.007825032230
         H           -0.936848986598    -1.537837183338    -1.339768444730     1.007825032230
         H           -2.431603986598     1.845502816662    -0.288143444730     1.007825032230
         H           -1.272741986598     1.171738816662    -1.422632444730     1.007825032230
         H           -0.472571986598    -1.127326183338     1.650436555270     1.007825032230
         H            0.313880013402    -2.407412183338     0.746171555270     1.007825032230
         H           -0.770008986598     1.102770816662     1.595644555270     1.007825032230
         H           -0.339178986598     2.502198816662     0.607699555270     1.007825032230
         H            1.900481013402    -1.795153183338    -1.181343444730     1.007825032230
         H            2.628155013402    -1.766094183338     0.444671555270     1.007825032230
         H            2.819308013402    -0.364216183338    -0.642937444730     1.007825032230

  Basis Set: AUG-CC-PVTZ
    Blend: AUG-CC-PVTZ
  Basis Set: (AUG-CC-PVTZ AUX)
    Blend: AUG-CC-PVTZ-JKFIT
	 Reference Energy          =    -402.1118659719849120 [Eh]
	 Singles Energy            =      -0.0000000000000000 [Eh]
	 Same-Spin Energy          =      -0.4210228945062072 [Eh]
	 Opposite-Spin Energy      =      -1.4038737873546043 [Eh]
	 Correlation Energy        =      -1.8248966818608114 [Eh]
	 Total Energy              =    -403.9367626538457330 [Eh]

	 ================> DF-SCS-MP2 Energies <==================
	-----------------------------------------------------------
	 SCS Same-Spin Scale       =       0.3333333333333333 [-]
	 SCS Opposite-Spin Scale   =       1.2000000000000000 [-]
	 SCS Same-Spin Energy      =      -0.1403409648354024 [Eh]
	 SCS Opposite-Spin Energy  =      -1.6846485448255251 [Eh]
	 SCS Correlation Energy    =      -1.8249895096609274 [Eh]
	 SCS Total Energy          =    -403.9368554816458641 [Eh]
	-----------------------------------------------------------

  Dipole Moment: [D]
     X:    -2.3840      Y:    -3.2074      Z:     0.7481     Total:     4.0658

*** Psi4 exiting successfully. Buy a developer a beer!
