                               Psi4 1.3.2 release

  ==> Input File <==

--------------------------------------------------------------------------
#psi4
#
memory 32 gb

molecule  {
0 1
  O        1.7739800     1.6003060    -0.2911220
  N        0.9906540    -0.4920130     0.2058460
  C       -2.2286800    -0.2510300    -0.1765170
  C       -1.2730330    -1.4351160    -0.3152870
  C       -1.6265610     1.1034752    -0.3545882
  C       -0.0841310    -1.3759550     0.6456410
  C       -0.4584780     1.4603760     0.5782350
  C        0.8707430     0.8730760     0.1404640
  C        2.1918860    -1.1187650    -0.3259700
  H       -2.6699130    -0.2765890     0.8297550
  H       -3.0608600    -0.3791320    -0.8796750
  H       -1.8321650    -2.3606500    -0.1255340
  H       -0.8887130    -1.5005570    -1.3409750
  H       -2.3834680     1.8827830    -0.2893500
  H       -1.2246060     1.2090190    -1.4238390
  H       -0.4244360    -1.0900460     1.6492300
  H        0.3620160    -2.3701320     0.7449650
  H       -0.7218730     1.1400510     1.5944380
  H       -0.2910430     2.5394790     0.6064930
  H        1.9486170    -1.7578730    -1.1825500
  H        2.6762910    -1.7288140     0.4434650
  H        2.8674440    -0.3269360    -0.6441440
units angstrom
no_reorient  #important for SAPT in psi4, default
symmetry c1  #important for SAPT in psi4, default
}

set PROPERTIES_ORIGIN ["COM"]
properties('MP2/aug-cc-pvtz', properties = ['dipole'])
--------------------------------------------------------------------------

    Molecular point group: c1
  Charge       = 0
  Multiplicity = 1
  Basis Set: AUG-CC-PVTZ
    Blend: AUG-CC-PVTZ
  Basis Set: (AUG-CC-PVTZ AUX)
    Blend: AUG-CC-PVTZ-JKFIT

    Orbital Energies [Eh]
    ---------------------

    Doubly Occupied:

       1A    -20.506147     2A    -15.580734     3A    -11.340475
       4A    -11.272587     5A    -11.250690     6A    -11.236693
       7A    -11.234112     8A    -11.234102     9A    -11.230513
      10A     -1.362130    11A     -1.241453    12A     -1.101517
      13A     -1.038046    14A     -0.977939    15A     -0.914673
      16A     -0.879212    17A     -0.789755    18A     -0.725428
      19A     -0.690848    20A     -0.670554    21A     -0.633196
      22A     -0.609284    23A     -0.603504    24A     -0.595388
      25A     -0.584214    26A     -0.558660    27A     -0.545684
      28A     -0.526982    29A     -0.509750    30A     -0.506057
      31A     -0.477852    32A     -0.469061    33A     -0.462906
      34A     -0.408154    35A     -0.365291

  @DF-RHF Final Energy:  -402.10864622451697

   => Energetics <=

    Nuclear Repulsion Energy =            486.5155959194797219
    One-Electron Energy =               -1510.9813043147228200
    Two-Electron Energy =                 622.3570621707261807
    Total Energy =                       -402.1086462245169741
  Basis Set: (AUG-CC-PVTZ AUX)
    Blend: AUG-CC-PVTZ-RI
    Molecular point group: c1

    Geometry (in Angstrom), charge = 0, multiplicity = 1:

       Center              X                  Y                   Z               Mass
    ------------   -----------------  -----------------  -----------------  -----------------
         O            1.732587707567     1.563160960947    -0.295149382548    15.994914619570
         N            0.949261707567    -0.529158039053     0.201818617452    14.003074004430
         C           -2.270072292433    -0.288175039053    -0.180544382548    12.000000000000
         C           -1.314425292433    -1.472261039053    -0.319314382548    12.000000000000
         C           -1.667953292433     1.066330160947    -0.358615582548    12.000000000000
         C           -0.125523292433    -1.413100039053     0.641613617452    12.000000000000
         C           -0.499870292433     1.423230960947     0.574207617452    12.000000000000
         C            0.829350707567     0.835930960947     0.136436617452    12.000000000000
         C            2.150493707567    -1.155910039053    -0.329997382548    12.000000000000
         H           -2.711305292433    -0.313734039053     0.825727617452     1.007825032230
         H           -3.102252292433    -0.416277039053    -0.883702382548     1.007825032230
         H           -1.873557292433    -2.397795039053    -0.129561382548     1.007825032230
         H           -0.930105292433    -1.537702039053    -1.345002382548     1.007825032230
         H           -2.424860292433     1.845637960947    -0.293377382548     1.007825032230
         H           -1.265998292433     1.171873960947    -1.427866382548     1.007825032230
         H           -0.465828292433    -1.127191039053     1.645202617452     1.007825032230
         H            0.320623707567    -2.407277039053     0.740937617452     1.007825032230
         H           -0.763265292433     1.102905960947     1.590410617452     1.007825032230
         H           -0.332435292433     2.502333960947     0.602465617452     1.007825032230
         H            1.907224707567    -1.795018039053    -1.186577382548     1.007825032230
         H            2.634898707567    -1.765959039053     0.439437617452     1.007825032230
         H            2.826051707567    -0.364081039053    -0.648171382548     1.007825032230

  Basis Set: AUG-CC-PVTZ
    Blend: AUG-CC-PVTZ
  Basis Set: (AUG-CC-PVTZ AUX)
    Blend: AUG-CC-PVTZ-JKFIT
	 Reference Energy          =    -402.1086462245169741 [Eh]
	 Singles Energy            =      -0.0000000000000000 [Eh]
	 Same-Spin Energy          =      -0.4221008135305894 [Eh]
	 Opposite-Spin Energy      =      -1.4056227068474736 [Eh]
	 Correlation Energy        =      -1.8277235203780631 [Eh]
	 Total Energy              =    -403.9363697448950461 [Eh]

	 ================> DF-SCS-MP2 Energies <==================
	-----------------------------------------------------------
	 SCS Same-Spin Scale       =       0.3333333333333333 [-]
	 SCS Opposite-Spin Scale   =       1.2000000000000000 [-]
	 SCS Same-Spin Energy      =      -0.1407002711768631 [Eh]
	 SCS Opposite-Spin Energy  =      -1.6867472482169683 [Eh]
	 SCS Correlation Energy    =      -1.8274475193938313 [Eh]
	 SCS Total Energy          =    -403.9360937439108170 [Eh]
	-----------------------------------------------------------

  Dipole Moment: [D]
     X:    -2.5881      Y:    -3.1176      Z:     0.8139     Total:     4.1328

*** Psi4 exiting successfully. Buy a developer a beer!
