                               Psi4 1.3.2 release

  ==> Input File <==

--------------------------------------------------------------------------
#psi4
#
memory 32 gb

molecule  {
0 1
  O        1.7739800     1.6003060    -0.2911220
  N        0.9906540    -0.4920130     0.2058460
  C       -2.3060740    -0.3209160    -0.1541576
  C       -1.2730330    -1.4351160    -0.3152870
  C       -1.5989250     1.1242550    -0.3956020
  C       -0.0841310    -1.3759550     0.6456410
  C       -0.4584780     1.4603760     0.5782350
  C        0.8707430     0.8730760     0.1404640
  C        2.1918860    -1.1187650    -0.3259700
  H       -2.6699130    -0.2765890     0.8297550
  H       -3.0608600    -0.3791320    -0.8796750
  H       -1.8321650    -2.3606500    -0.1255340
  H       -0.8887130    -1.5005570    -1.3409750
  H       -2.3834680     1.8827830    -0.2893500
  H       -1.2246060     1.2090190    -1.4238390
  H       -0.4244360    -1.0900460     1.6492300
  H        0.3620160    -2.3701320     0.7449650
  H       -0.7218730     1.1400510     1.5944380
  H       -0.2910430     2.5394790     0.6064930
  H        1.9486170    -1.7578730    -1.1825500
  H        2.6762910    -1.7288140     0.4434650
  H        2.8674440    -0.3269360    -0.6441440
units angstrom
no_reorient  #important for SAPT in psi4, default
symmetry c1  #important for SAPT in psi4, default
}

set PROPERTIES_ORIGIN ["COM"]
properties('MP2/aug-cc-pvtz', properties = ['dipole'])
--------------------------------------------------------------------------

    Molecular point group: c1
  Charge       = 0
  Multiplicity = 1
  Basis Set: AUG-CC-PVTZ
    Blend: AUG-CC-PVTZ
  Basis Set: (AUG-CC-PVTZ AUX)
    Blend: AUG-CC-PVTZ-JKFIT

    Orbital Energies [Eh]
    ---------------------

    Doubly Occupied:

       1A    -20.505419     2A    -15.580305     3A    -11.339466
       4A    -11.273219     5A    -11.250548     6A    -11.236464
       7A    -11.233414     8A    -11.233061     9A    -11.228541
      10A     -1.361507    11A     -1.240844    12A     -1.089163
      13A     -1.037497    14A     -0.973373    15A     -0.915858
      16A     -0.872648    17A     -0.800025    18A     -0.725122
      19A     -0.689851    20A     -0.666519    21A     -0.636202
      22A     -0.612745    23A     -0.598172    24A     -0.592554
      25A     -0.581051    26A     -0.560584    27A     -0.542432
      28A     -0.525765    29A     -0.514645    30A     -0.509033
      31A     -0.490077    32A     -0.474182    33A     -0.440806
      34A     -0.406720    35A     -0.365125

  @DF-RHF Final Energy:  -402.10290178786863

   => Energetics <=

    Nuclear Repulsion Energy =            484.8121128904146531
    One-Electron Energy =               -1507.6241555054559740
    Two-Electron Energy =                 620.7091408271726323
    Total Energy =                       -402.1029017878686318
  Basis Set: (AUG-CC-PVTZ AUX)
    Blend: AUG-CC-PVTZ-RI
    Molecular point group: c1

    Geometry (in Angstrom), charge = 0, multiplicity = 1:

       Center              X                  Y                   Z               Mass
    ------------   -----------------  -----------------  -----------------  -----------------
         O            1.737285562354     1.567797276650    -0.293388144912    15.994914619570
         N            0.953959562354    -0.524521723350     0.203579855088    14.003074004430
         C           -2.342768437646    -0.353424723350    -0.156423744912    12.000000000000
         C           -1.309727437646    -1.467624723350    -0.317553144912    12.000000000000
         C           -1.635619437646     1.091746276650    -0.397868144912    12.000000000000
         C           -0.120825437646    -1.408463723350     0.643374855088    12.000000000000
         C           -0.495172437646     1.427867276650     0.575968855088    12.000000000000
         C            0.834048562354     0.840567276650     0.138197855088    12.000000000000
         C            2.155191562354    -1.151273723350    -0.328236144912    12.000000000000
         H           -2.706607437646    -0.309097723350     0.827488855088     1.007825032230
         H           -3.097554437646    -0.411640723350    -0.881941144912     1.007825032230
         H           -1.868859437646    -2.393158723350    -0.127800144912     1.007825032230
         H           -0.925407437646    -1.533065723350    -1.343241144912     1.007825032230
         H           -2.420162437646     1.850274276650    -0.291616144912     1.007825032230
         H           -1.261300437646     1.176510276650    -1.426105144912     1.007825032230
         H           -0.461130437646    -1.122554723350     1.646963855088     1.007825032230
         H            0.325321562354    -2.402640723350     0.742698855088     1.007825032230
         H           -0.758567437646     1.107542276650     1.592171855088     1.007825032230
         H           -0.327737437646     2.506970276650     0.604226855088     1.007825032230
         H            1.911922562354    -1.790381723350    -1.184816144912     1.007825032230
         H            2.639596562354    -1.761322723350     0.441198855088     1.007825032230
         H            2.830749562354    -0.359444723350    -0.646410144912     1.007825032230

  Basis Set: AUG-CC-PVTZ
    Blend: AUG-CC-PVTZ
  Basis Set: (AUG-CC-PVTZ AUX)
    Blend: AUG-CC-PVTZ-JKFIT
	 Reference Energy          =    -402.1029017878686318 [Eh]
	 Singles Energy            =      -0.0000000000000000 [Eh]
	 Same-Spin Energy          =      -0.4214534992551612 [Eh]
	 Opposite-Spin Energy      =      -1.4052121235041501 [Eh]
	 Correlation Energy        =      -1.8266656227593114 [Eh]
	 Total Energy              =    -403.9295674106279534 [Eh]

	 ================> DF-SCS-MP2 Energies <==================
	-----------------------------------------------------------
	 SCS Same-Spin Scale       =       0.3333333333333333 [-]
	 SCS Opposite-Spin Scale   =       1.2000000000000000 [-]
	 SCS Same-Spin Energy      =      -0.1404844997517204 [Eh]
	 SCS Opposite-Spin Energy  =      -1.6862545482049802 [Eh]
	 SCS Correlation Energy    =      -1.8267390479567007 [Eh]
	 SCS Total Energy          =    -403.9296408358253530 [Eh]
	-----------------------------------------------------------

  Dipole Moment: [D]
     X:    -2.5978      Y:    -3.1194      Z:     0.8141     Total:     4.1403

*** Psi4 exiting successfully. Buy a developer a beer!
