                               Psi4 1.3.2 release

  ==> Input File <==

--------------------------------------------------------------------------
#psi4
#
memory 32 gb

molecule  {
0 1
  O        1.7739800     1.6003060    -0.2911220
  N        0.9906540    -0.4920130     0.2058460
  C       -2.2286800    -0.2510300    -0.1765170
  C       -1.2730330    -1.4351160    -0.3152870
  C       -1.5989250     1.1242550    -0.3956020
  C       -0.0841310    -1.3759550     0.6456410
  C       -0.4584780     1.4603760     0.5782350
  C        0.8707430     0.8730760     0.1404640
  C        2.1918860    -1.1187650    -0.3259700
  H       -2.6699130    -0.2765890     0.8297550
  H       -3.0608600    -0.3791320    -0.8796750
  H       -1.8321650    -2.3606500    -0.1255340
  H       -0.8887130    -1.5005570    -1.3409750
  H       -2.3834680     1.8827830    -0.2893500
  H       -1.2246060     1.2090190    -1.4238390
  H       -0.4244360    -1.0900460     1.6492300
  H        0.3620160    -2.3701320     0.7449650
  H       -0.7106838     1.2500813     1.6255277
  H       -0.2910430     2.5394790     0.6064930
  H        1.9486170    -1.7578730    -1.1825500
  H        2.6762910    -1.7288140     0.4434650
  H        2.8674440    -0.3269360    -0.6441440
units angstrom
no_reorient  #important for SAPT in psi4, default
symmetry c1  #important for SAPT in psi4, default
}

set PROPERTIES_ORIGIN ["COM"]
properties('MP2/aug-cc-pvtz', properties = ['dipole'])
--------------------------------------------------------------------------

    Molecular point group: c1
  Charge       = 0
  Multiplicity = 1
  Basis Set: AUG-CC-PVTZ
    Blend: AUG-CC-PVTZ
  Basis Set: (AUG-CC-PVTZ AUX)
    Blend: AUG-CC-PVTZ-JKFIT

    Orbital Energies [Eh]
    ---------------------

    Doubly Occupied:

       1A    -20.505999     2A    -15.580556     3A    -11.340676
       4A    -11.271778     5A    -11.250491     6A    -11.235153
       7A    -11.233073     8A    -11.233054     9A    -11.231077
      10A     -1.361994    11A     -1.241037    12A     -1.096893
      13A     -1.037735    14A     -0.975329    15A     -0.914204
      16A     -0.878403    17A     -0.792333    18A     -0.726361
      19A     -0.691319    20A     -0.667485    21A     -0.633008
      22A     -0.608971    23A     -0.600430    24A     -0.594686
      25A     -0.582628    26A     -0.555925    27A     -0.544272
      28A     -0.527414    29A     -0.510034    30A     -0.507435
      31A     -0.478753    32A     -0.468639    33A     -0.464127
      34A     -0.407894    35A     -0.364918

  @DF-RHF Final Energy:  -402.11068256027374

   => Energetics <=

    Nuclear Repulsion Energy =            486.0770189153410570
    One-Electron Energy =               -1510.1472317961627141
    Two-Electron Energy =                 621.9595303205478558
    Total Energy =                       -402.1106825602737445
  Basis Set: (AUG-CC-PVTZ AUX)
    Blend: AUG-CC-PVTZ-RI
    Molecular point group: c1

    Geometry (in Angstrom), charge = 0, multiplicity = 1:

       Center              X                  Y                   Z               Mass
    ------------   -----------------  -----------------  -----------------  -----------------
         O            1.729889756919     1.560326580922    -0.291523625987    15.994914619570
         N            0.946563756919    -0.531992419078     0.205444374013    14.003074004430
         C           -2.272770243081    -0.291009419078    -0.176918625987    12.000000000000
         C           -1.317123243081    -1.475095419078    -0.315688625987    12.000000000000
         C           -1.643015243081     1.084275580922    -0.396003625987    12.000000000000
         C           -0.128221243081    -1.415934419078     0.645239374013    12.000000000000
         C           -0.502568243081     1.420396580922     0.577833374013    12.000000000000
         C            0.826652756919     0.833096580922     0.140062374013    12.000000000000
         C            2.147795756919    -1.158744419078    -0.326371625987    12.000000000000
         H           -2.714003243081    -0.316568419078     0.829353374013     1.007825032230
         H           -3.104950243081    -0.419111419078    -0.880076625987     1.007825032230
         H           -1.876255243081    -2.400629419078    -0.125935625987     1.007825032230
         H           -0.932803243081    -1.540536419078    -1.341376625987     1.007825032230
         H           -2.427558243081     1.842803580922    -0.289751625987     1.007825032230
         H           -1.268696243081     1.169039580922    -1.424240625987     1.007825032230
         H           -0.468526243081    -1.130025419078     1.648828374013     1.007825032230
         H            0.317925756919    -2.410111419078     0.744563374013     1.007825032230
         H           -0.754774043081     1.210101880922     1.625126074013     1.007825032230
         H           -0.335133243081     2.499499580922     0.606091374013     1.007825032230
         H            1.904526756919    -1.797852419078    -1.182951625987     1.007825032230
         H            2.632200756919    -1.768793419078     0.443063374013     1.007825032230
         H            2.823353756919    -0.366915419078    -0.644545625987     1.007825032230

  Basis Set: AUG-CC-PVTZ
    Blend: AUG-CC-PVTZ
  Basis Set: (AUG-CC-PVTZ AUX)
    Blend: AUG-CC-PVTZ-JKFIT
	 Reference Energy          =    -402.1106825602737445 [Eh]
	 Singles Energy            =      -0.0000000000000000 [Eh]
	 Same-Spin Energy          =      -0.4217563471586251 [Eh]
	 Opposite-Spin Energy      =      -1.4051720775887273 [Eh]
	 Correlation Energy        =      -1.8269284247473525 [Eh]
	 Total Energy              =    -403.9376109850210810 [Eh]

	 ================> DF-SCS-MP2 Energies <==================
	-----------------------------------------------------------
	 SCS Same-Spin Scale       =       0.3333333333333333 [-]
	 SCS Opposite-Spin Scale   =       1.2000000000000000 [-]
	 SCS Same-Spin Energy      =      -0.1405854490528750 [Eh]
	 SCS Opposite-Spin Energy  =      -1.6862064931064726 [Eh]
	 SCS Correlation Energy    =      -1.8267919421593477 [Eh]
	 SCS Total Energy          =    -403.9374745024330764 [Eh]
	-----------------------------------------------------------

  Dipole Moment: [D]
     X:    -2.5701      Y:    -3.0636      Z:     0.8206     Total:     4.0822

*** Psi4 exiting successfully. Buy a developer a beer!
