                               Psi4 1.3.2 release

  ==> Input File <==

--------------------------------------------------------------------------
#psi4
#
memory 32 gb

molecule  {
0 1
  O        1.7739800     1.6003060    -0.2911220
  N        0.9906540    -0.4920130     0.2058460
  C       -2.2286800    -0.2510300    -0.1765170
  C       -1.2730330    -1.4351160    -0.3152870
  C       -1.5989250     1.1242550    -0.3956020
  C        0.0055725    -1.4924497     0.6041885
  C       -0.4584780     1.4603760     0.5782350
  C        0.8707430     0.8730760     0.1404640
  C        2.1918860    -1.1187650    -0.3259700
  H       -2.6699130    -0.2765890     0.8297550
  H       -3.0608600    -0.3791320    -0.8796750
  H       -1.8321650    -2.3606500    -0.1255340
  H       -0.8887130    -1.5005570    -1.3409750
  H       -2.3834680     1.8827830    -0.2893500
  H       -1.2246060     1.2090190    -1.4238390
  H       -0.4244360    -1.0900460     1.6492300
  H        0.3620160    -2.3701320     0.7449650
  H       -0.7218730     1.1400510     1.5944380
  H       -0.2910430     2.5394790     0.6064930
  H        1.9486170    -1.7578730    -1.1825500
  H        2.6762910    -1.7288140     0.4434650
  H        2.8674440    -0.3269360    -0.6441440
units angstrom
no_reorient  #important for SAPT in psi4, default
symmetry c1  #important for SAPT in psi4, default
}

set PROPERTIES_ORIGIN ["COM"]
properties('MP2/aug-cc-pvtz', properties = ['dipole'])
--------------------------------------------------------------------------

    Molecular point group: c1
  Charge       = 0
  Multiplicity = 1
  Basis Set: AUG-CC-PVTZ
    Blend: AUG-CC-PVTZ
  Basis Set: (AUG-CC-PVTZ AUX)
    Blend: AUG-CC-PVTZ-JKFIT

    Orbital Energies [Eh]
    ---------------------

    Doubly Occupied:

       1A    -20.507626     2A    -15.581851     3A    -11.343965
       4A    -11.274647     5A    -11.249147     6A    -11.236662
       7A    -11.234936     8A    -11.234135     9A    -11.233608
      10A     -1.363332    11A     -1.242431    12A     -1.095102
      13A     -1.037562    14A     -0.973429    15A     -0.923946
      16A     -0.879704    17A     -0.792312    18A     -0.728263
      19A     -0.689414    20A     -0.679161    21A     -0.632402
      22A     -0.615353    23A     -0.603947    24A     -0.600229
      25A     -0.585071    26A     -0.552157    27A     -0.544972
      28A     -0.524229    29A     -0.511162    30A     -0.496444
      31A     -0.475671    32A     -0.473392    33A     -0.463559
      34A     -0.409881    35A     -0.359845

  @DF-RHF Final Energy:  -402.08157942754485

   => Energetics <=

    Nuclear Repulsion Energy =            485.1506524858801868
    One-Electron Energy =               -1508.1653715569191263
    Two-Electron Energy =                 620.9331396434940871
    Total Energy =                       -402.0815794275448525
  Basis Set: (AUG-CC-PVTZ AUX)
    Blend: AUG-CC-PVTZ-RI
    Molecular point group: c1

    Geometry (in Angstrom), charge = 0, multiplicity = 1:

       Center              X                  Y                   Z               Mass
    ------------   -----------------  -----------------  -----------------  -----------------
         O            1.721509208999     1.572197793238    -0.287363404370    15.994914619570
         N            0.938183208999    -0.520121206762     0.209604595630    14.003074004430
         C           -2.281150791001    -0.279138206762    -0.172758404370    12.000000000000
         C           -1.325503791001    -1.463224206762    -0.311528404370    12.000000000000
         C           -1.651395791001     1.096146793238    -0.391843404370    12.000000000000
         C           -0.046898291001    -1.520557906762     0.607947095630    12.000000000000
         C           -0.510948791001     1.432267793238     0.581993595630    12.000000000000
         C            0.818272208999     0.844967793238     0.144222595630    12.000000000000
         C            2.139415208999    -1.146873206762    -0.322211404370    12.000000000000
         H           -2.722383791001    -0.304697206762     0.833513595630     1.007825032230
         H           -3.113330791001    -0.407240206762    -0.875916404370     1.007825032230
         H           -1.884635791001    -2.388758206762    -0.121775404370     1.007825032230
         H           -0.941183791001    -1.528665206762    -1.337216404370     1.007825032230
         H           -2.435938791001     1.854674793238    -0.285591404370     1.007825032230
         H           -1.277076791001     1.180910793238    -1.420080404370     1.007825032230
         H           -0.476906791001    -1.118154206762     1.652988595630     1.007825032230
         H            0.309545208999    -2.398240206762     0.748723595630     1.007825032230
         H           -0.774343791001     1.111942793238     1.598196595630     1.007825032230
         H           -0.343513791001     2.511370793238     0.610251595630     1.007825032230
         H            1.896146208999    -1.785981206762    -1.178791404370     1.007825032230
         H            2.623820208999    -1.756922206762     0.447223595630     1.007825032230
         H            2.814973208999    -0.355044206762    -0.640385404370     1.007825032230

  Basis Set: AUG-CC-PVTZ
    Blend: AUG-CC-PVTZ
  Basis Set: (AUG-CC-PVTZ AUX)
    Blend: AUG-CC-PVTZ-JKFIT
	 Reference Energy          =    -402.0815794275448525 [Eh]
	 Singles Energy            =      -0.0000000000000000 [Eh]
	 Same-Spin Energy          =      -0.4220343856058481 [Eh]
	 Opposite-Spin Energy      =      -1.4064476826653654 [Eh]
	 Correlation Energy        =      -1.8284820682712135 [Eh]
	 Total Energy              =    -403.9100614958160804 [Eh]

	 ================> DF-SCS-MP2 Energies <==================
	-----------------------------------------------------------
	 SCS Same-Spin Scale       =       0.3333333333333333 [-]
	 SCS Opposite-Spin Scale   =       1.2000000000000000 [-]
	 SCS Same-Spin Energy      =      -0.1406781285352827 [Eh]
	 SCS Opposite-Spin Energy  =      -1.6877372191984383 [Eh]
	 SCS Correlation Energy    =      -1.8284153477337211 [Eh]
	 SCS Total Energy          =    -403.9099947752785624 [Eh]
	-----------------------------------------------------------

  Dipole Moment: [D]
     X:    -2.5476      Y:    -3.1171      Z:     0.7316     Total:     4.0916

*** Psi4 exiting successfully. Buy a developer a beer!
