                               Psi4 1.3.2 release

  ==> Input File <==

--------------------------------------------------------------------------
#psi4
#
memory 32 gb

molecule  {
0 1
  O        1.7739800     1.6003060    -0.2911220
  N        0.9906540    -0.4920130     0.2058460
  C       -2.2286800    -0.2510300    -0.1765170
  C       -1.2730330    -1.4351160    -0.3152870
  C       -1.5989250     1.1242550    -0.3956020
  C       -0.0841310    -1.3759550     0.6456410
  C       -0.5459583     1.5875635     0.6234964
  C        0.8707430     0.8730760     0.1404640
  C        2.1918860    -1.1187650    -0.3259700
  H       -2.6699130    -0.2765890     0.8297550
  H       -3.0608600    -0.3791320    -0.8796750
  H       -1.8321650    -2.3606500    -0.1255340
  H       -0.8887130    -1.5005570    -1.3409750
  H       -2.3834680     1.8827830    -0.2893500
  H       -1.2246060     1.2090190    -1.4238390
  H       -0.4244360    -1.0900460     1.6492300
  H        0.3620160    -2.3701320     0.7449650
  H       -0.7218730     1.1400510     1.5944380
  H       -0.2910430     2.5394790     0.6064930
  H        1.9486170    -1.7578730    -1.1825500
  H        2.6762910    -1.7288140     0.4434650
  H        2.8674440    -0.3269360    -0.6441440
units angstrom
no_reorient  #important for SAPT in psi4, default
symmetry c1  #important for SAPT in psi4, default
}

set PROPERTIES_ORIGIN ["COM"]
properties('MP2/aug-cc-pvtz', properties = ['dipole'])
--------------------------------------------------------------------------

    Molecular point group: c1
  Charge       = 0
  Multiplicity = 1
  Basis Set: AUG-CC-PVTZ
    Blend: AUG-CC-PVTZ
  Basis Set: (AUG-CC-PVTZ AUX)
    Blend: AUG-CC-PVTZ-JKFIT

    Orbital Energies [Eh]
    ---------------------

    Doubly Occupied:

       1A    -20.504391     2A    -15.581449     3A    -11.341195
       4A    -11.272469     5A    -11.250969     6A    -11.234258
       7A    -11.233778     8A    -11.233348     9A    -11.232939
      10A     -1.357794    11A     -1.239490    12A     -1.095973
      13A     -1.034006    14A     -0.970622    15A     -0.918323
      16A     -0.873739    17A     -0.792215    18A     -0.727848
      19A     -0.678190    20A     -0.669036    21A     -0.632139
      22A     -0.616315    23A     -0.606408    24A     -0.596267
      25A     -0.583282    26A     -0.561702    27A     -0.535703
      28A     -0.532031    29A     -0.513684    30A     -0.506816
      31A     -0.480398    32A     -0.479425    33A     -0.461929
      34A     -0.386836    35A     -0.365059

  @DF-RHF Final Energy:  -402.08920482945786

   => Energetics <=

    Nuclear Repulsion Energy =            483.6410395336340002
    One-Electron Energy =               -1505.2604359048696097
    Two-Electron Energy =                 619.5301915417777536
    Total Energy =                       -402.0892048294577990
  Basis Set: (AUG-CC-PVTZ AUX)
    Blend: AUG-CC-PVTZ-RI
    Molecular point group: c1

    Geometry (in Angstrom), charge = 0, multiplicity = 1:

       Center              X                  Y                   Z               Mass
    ------------   -----------------  -----------------  -----------------  -----------------
         O            1.738237850885     1.549190767439    -0.295550415709    15.994914619570
         N            0.954911850885    -0.543128232561     0.201417584291    14.003074004430
         C           -2.264422149115    -0.302145232561    -0.180945415709    12.000000000000
         C           -1.308775149115    -1.486231232561    -0.319715415709    12.000000000000
         C           -1.634667149115     1.073139767439    -0.400030415709    12.000000000000
         C           -0.119873149115    -1.427070232561     0.641212584291    12.000000000000
         C           -0.581700449115     1.536448267439     0.619067984291    12.000000000000
         C            0.835000850885     0.821960767439     0.136035584291    12.000000000000
         C            2.156143850885    -1.169880232561    -0.330398415709    12.000000000000
         H           -2.705655149115    -0.327704232561     0.825326584291     1.007825032230
         H           -3.096602149115    -0.430247232561    -0.884103415709     1.007825032230
         H           -1.867907149115    -2.411765232561    -0.129962415709     1.007825032230
         H           -0.924455149115    -1.551672232561    -1.345403415709     1.007825032230
         H           -2.419210149115     1.831667767439    -0.293778415709     1.007825032230
         H           -1.260348149115     1.157903767439    -1.428267415709     1.007825032230
         H           -0.460178149115    -1.141161232561     1.644801584291     1.007825032230
         H            0.326273850885    -2.421247232561     0.740536584291     1.007825032230
         H           -0.757615149115     1.088935767439     1.590009584291     1.007825032230
         H           -0.326785149115     2.488363767439     0.602064584291     1.007825032230
         H            1.912874850885    -1.808988232561    -1.186978415709     1.007825032230
         H            2.640548850885    -1.779929232561     0.439036584291     1.007825032230
         H            2.831701850885    -0.378051232561    -0.648572415709     1.007825032230

  Basis Set: AUG-CC-PVTZ
    Blend: AUG-CC-PVTZ
  Basis Set: (AUG-CC-PVTZ AUX)
    Blend: AUG-CC-PVTZ-JKFIT
	 Reference Energy          =    -402.0892048294578558 [Eh]
	 Singles Energy            =      -0.0000000000000000 [Eh]
	 Same-Spin Energy          =      -0.4214561213150735 [Eh]
	 Opposite-Spin Energy      =      -1.4055731637634050 [Eh]
	 Correlation Energy        =      -1.8270292850784786 [Eh]
	 Total Energy              =    -403.9162341145363371 [Eh]

	 ================> DF-SCS-MP2 Energies <==================
	-----------------------------------------------------------
	 SCS Same-Spin Scale       =       0.3333333333333333 [-]
	 SCS Opposite-Spin Scale   =       1.2000000000000000 [-]
	 SCS Same-Spin Energy      =      -0.1404853737716912 [Eh]
	 SCS Opposite-Spin Energy  =      -1.6866877965160860 [Eh]
	 SCS Correlation Energy    =      -1.8271731702877771 [Eh]
	 SCS Total Energy          =    -403.9163779997456345 [Eh]
	-----------------------------------------------------------

  Dipole Moment: [D]
     X:    -2.4852      Y:    -3.1458      Z:     0.7674     Total:     4.0818

*** Psi4 exiting successfully. Buy a developer a beer!
