                               Psi4 1.3.2 release

  ==> Input File <==

--------------------------------------------------------------------------
#psi4
#
memory 32 gb

molecule  {
0 1
  O        1.7739800     1.6003060    -0.2911220
  N        0.9906540    -0.4920130     0.2058460
  C       -2.2286800    -0.2510300    -0.1765170
  C       -1.2730330    -1.4351160    -0.3152870
  C       -1.5989250     1.1242550    -0.3956020
  C       -0.0841310    -1.3759550     0.6456410
  C       -0.4450888     1.4387817     0.5696390
  C        0.8707430     0.8730760     0.1404640
  C        2.1918860    -1.1187650    -0.3259700
  H       -2.6699130    -0.2765890     0.8297550
  H       -3.0608600    -0.3791320    -0.8796750
  H       -1.8321650    -2.3606500    -0.1255340
  H       -0.8887130    -1.5005570    -1.3409750
  H       -2.3834680     1.8827830    -0.2893500
  H       -1.2246060     1.2090190    -1.4238390
  H       -0.4244360    -1.0900460     1.6492300
  H        0.3620160    -2.3701320     0.7449650
  H       -0.7218730     1.1400510     1.5944380
  H       -0.2910430     2.5394790     0.6064930
  H        1.9486170    -1.7578730    -1.1825500
  H        2.6762910    -1.7288140     0.4434650
  H        2.8674440    -0.3269360    -0.6441440
units angstrom
no_reorient  #important for SAPT in psi4, default
symmetry c1  #important for SAPT in psi4, default
}

set PROPERTIES_ORIGIN ["COM"]
properties('MP2/aug-cc-pvtz', properties = ['dipole'])
--------------------------------------------------------------------------

    Molecular point group: c1
  Charge       = 0
  Multiplicity = 1
  Basis Set: AUG-CC-PVTZ
    Blend: AUG-CC-PVTZ
  Basis Set: (AUG-CC-PVTZ AUX)
    Blend: AUG-CC-PVTZ-JKFIT

    Orbital Energies [Eh]
    ---------------------

    Doubly Occupied:

       1A    -20.505896     2A    -15.580348     3A    -11.339403
       4A    -11.272174     5A    -11.250460     6A    -11.235223
       7A    -11.234084     8A    -11.233420     9A    -11.231310
      10A     -1.362543    11A     -1.241526    12A     -1.098027
      13A     -1.039327    14A     -0.976703    15A     -0.913179
      16A     -0.879303    17A     -0.792775    18A     -0.724820
      19A     -0.692846    20A     -0.669027    21A     -0.633538
      22A     -0.608702    23A     -0.601261    24A     -0.594184
      25A     -0.582602    26A     -0.557379    27A     -0.546022
      28A     -0.525790    29A     -0.510118    30A     -0.507724
      31A     -0.479239    32A     -0.465915    33A     -0.464549
      34A     -0.409802    35A     -0.365057

  @DF-RHF Final Energy:  -402.11084780713293

   => Energetics <=

    Nuclear Repulsion Energy =            486.7631462632795660
    One-Electron Energy =               -1511.4994302926108958
    Two-Electron Energy =                 622.6254362221983456
    Total Energy =                       -402.1108478071329273
  Basis Set: (AUG-CC-PVTZ AUX)
    Blend: AUG-CC-PVTZ-RI
    Molecular point group: c1

    Geometry (in Angstrom), charge = 0, multiplicity = 1:

       Center              X                  Y                   Z               Mass
    ------------   -----------------  -----------------  -----------------  -----------------
         O            1.728714351882     1.563237861199    -0.290465519925    15.994914619570
         N            0.945388351882    -0.529081138801     0.206502480075    14.003074004430
         C           -2.273945648118    -0.288098138801    -0.175860519925    12.000000000000
         C           -1.318298648118    -1.472184138801    -0.314630519925    12.000000000000
         C           -1.644190648118     1.087186861199    -0.394945519925    12.000000000000
         C           -0.129396648118    -1.413023138801     0.646297480075    12.000000000000
         C           -0.490354448118     1.401713561199     0.570295480075    12.000000000000
         C            0.825477351882     0.836007861199     0.141120480075    12.000000000000
         C            2.146620351882    -1.155833138801    -0.325313519925    12.000000000000
         H           -2.715178648118    -0.313657138801     0.830411480075     1.007825032230
         H           -3.106125648118    -0.416200138801    -0.879018519925     1.007825032230
         H           -1.877430648118    -2.397718138801    -0.124877519925     1.007825032230
         H           -0.933978648118    -1.537625138801    -1.340318519925     1.007825032230
         H           -2.428733648118     1.845714861199    -0.288693519925     1.007825032230
         H           -1.269871648118     1.171950861199    -1.423182519925     1.007825032230
         H           -0.469701648118    -1.127114138801     1.649886480075     1.007825032230
         H            0.316750351882    -2.407200138801     0.745621480075     1.007825032230
         H           -0.767138648118     1.102982861199     1.595094480075     1.007825032230
         H           -0.336308648118     2.502410861199     0.607149480075     1.007825032230
         H            1.903351351882    -1.794941138801    -1.181893519925     1.007825032230
         H            2.631025351882    -1.765882138801     0.444121480075     1.007825032230
         H            2.822178351882    -0.364004138801    -0.643487519925     1.007825032230

  Basis Set: AUG-CC-PVTZ
    Blend: AUG-CC-PVTZ
  Basis Set: (AUG-CC-PVTZ AUX)
    Blend: AUG-CC-PVTZ-JKFIT
	 Reference Energy          =    -402.1108478071329273 [Eh]
	 Singles Energy            =      -0.0000000000000000 [Eh]
	 Same-Spin Energy          =      -0.4220442068230397 [Eh]
	 Opposite-Spin Energy      =      -1.4055531714129503 [Eh]
	 Correlation Energy        =      -1.8275973782359900 [Eh]
	 Total Energy              =    -403.9384451853688915 [Eh]

	 ================> DF-SCS-MP2 Energies <==================
	-----------------------------------------------------------
	 SCS Same-Spin Scale       =       0.3333333333333333 [-]
	 SCS Opposite-Spin Scale   =       1.2000000000000000 [-]
	 SCS Same-Spin Energy      =      -0.1406814022743466 [Eh]
	 SCS Opposite-Spin Energy  =      -1.6866638056955403 [Eh]
	 SCS Correlation Energy    =      -1.8273452079698869 [Eh]
	 SCS Total Energy          =    -403.9381930151027973 [Eh]
	-----------------------------------------------------------

  Dipole Moment: [D]
     X:    -2.5976      Y:    -3.0996      Z:     0.7948     Total:     4.1215

*** Psi4 exiting successfully. Buy a developer a beer!
