                               Psi4 1.3.2 release

  ==> Input File <==

--------------------------------------------------------------------------
#psi4
#
memory 32 gb

molecule  {
0 1
  O        1.7739800     1.6003060    -0.2911220
  N        0.9906540    -0.4920130     0.2058460
  C       -2.2286800    -0.2510300    -0.1765170
  C       -1.2730330    -1.4351160    -0.3152870
  C       -1.5989250     1.1242550    -0.3956020
  C       -0.0841310    -1.3759550     0.6456410
  C       -0.4584780     1.4603760     0.5782350
  C        0.8707430     0.8730760     0.1404640
  C        2.1918860    -1.1187650    -0.3259700
  H       -2.7716992    -0.2912000     0.7781765
  H       -3.0608600    -0.3791320    -0.8796750
  H       -1.8321650    -2.3606500    -0.1255340
  H       -0.8887130    -1.5005570    -1.3409750
  H       -2.3834680     1.8827830    -0.2893500
  H       -1.2246060     1.2090190    -1.4238390
  H       -0.4244360    -1.0900460     1.6492300
  H        0.3620160    -2.3701320     0.7449650
  H       -0.7218730     1.1400510     1.5944380
  H       -0.2910430     2.5394790     0.6064930
  H        1.9486170    -1.7578730    -1.1825500
  H        2.6762910    -1.7288140     0.4434650
  H        2.8674440    -0.3269360    -0.6441440
units angstrom
no_reorient  #important for SAPT in psi4, default
symmetry c1  #important for SAPT in psi4, default
}

set PROPERTIES_ORIGIN ["COM"]
properties('MP2/aug-cc-pvtz', properties = ['dipole'])
--------------------------------------------------------------------------

    Molecular point group: c1
  Charge       = 0
  Multiplicity = 1
  Basis Set: AUG-CC-PVTZ
    Blend: AUG-CC-PVTZ
  Basis Set: (AUG-CC-PVTZ AUX)
    Blend: AUG-CC-PVTZ-JKFIT

    Orbital Energies [Eh]
    ---------------------

    Doubly Occupied:

       1A    -20.505645     2A    -15.580495     3A    -11.339835
       4A    -11.271983     5A    -11.250552     6A    -11.235229
       7A    -11.233984     8A    -11.233298     9A    -11.231070
      10A     -1.361782    11A     -1.241104    12A     -1.096857
      13A     -1.038039    14A     -0.975744    15A     -0.914203
      16A     -0.878156    17A     -0.793979    18A     -0.725101
      19A     -0.689798    20A     -0.669301    21A     -0.632232
      22A     -0.607912    23A     -0.602878    24A     -0.592519
      25A     -0.582894    26A     -0.558583    27A     -0.544426
      28A     -0.527136    29A     -0.509896    30A     -0.507341
      31A     -0.482645    32A     -0.466198    33A     -0.463689
      34A     -0.407389    35A     -0.365010

  @DF-RHF Final Energy:  -402.11082449275574

   => Energetics <=

    Nuclear Repulsion Energy =            486.1048533750297338
    One-Electron Energy =               -1510.1975518174451736
    Two-Electron Energy =                 621.9818739496596436
    Total Energy =                       -402.1108244927557962
  Basis Set: (AUG-CC-PVTZ AUX)
    Blend: AUG-CC-PVTZ-RI
    Molecular point group: c1

    Geometry (in Angstrom), charge = 0, multiplicity = 1:

       Center              X                  Y                   Z               Mass
    ------------   -----------------  -----------------  -----------------  -----------------
         O            1.730785584553     1.561314912195    -0.290868116398    15.994914619570
         N            0.947459584553    -0.531004087805     0.206099883602    14.003074004430
         C           -2.271874415447    -0.290021087805    -0.176263116398    12.000000000000
         C           -1.316227415447    -1.474107087805    -0.315033116398    12.000000000000
         C           -1.642119415447     1.085263912195    -0.395348116398    12.000000000000
         C           -0.127325415447    -1.414946087805     0.645894883602    12.000000000000
         C           -0.501672415447     1.421384912195     0.578488883602    12.000000000000
         C            0.827548584553     0.834084912195     0.140717883602    12.000000000000
         C            2.148691584553    -1.157756087805    -0.325716116398    12.000000000000
         H           -2.814893615447    -0.330191087805     0.778430383602     1.007825032230
         H           -3.104054415447    -0.418123087805    -0.879421116398     1.007825032230
         H           -1.875359415447    -2.399641087805    -0.125280116398     1.007825032230
         H           -0.931907415447    -1.539548087805    -1.340721116398     1.007825032230
         H           -2.426662415447     1.843791912195    -0.289096116398     1.007825032230
         H           -1.267800415447     1.170027912195    -1.423585116398     1.007825032230
         H           -0.467630415447    -1.129037087805     1.649483883602     1.007825032230
         H            0.318821584553    -2.409123087805     0.745218883602     1.007825032230
         H           -0.765067415447     1.101059912195     1.594691883602     1.007825032230
         H           -0.334237415447     2.500487912195     0.606746883602     1.007825032230
         H            1.905422584553    -1.796864087805    -1.182296116398     1.007825032230
         H            2.633096584553    -1.767805087805     0.443718883602     1.007825032230
         H            2.824249584553    -0.365927087805    -0.643890116398     1.007825032230

  Basis Set: AUG-CC-PVTZ
    Blend: AUG-CC-PVTZ
  Basis Set: (AUG-CC-PVTZ AUX)
    Blend: AUG-CC-PVTZ-JKFIT
	 Reference Energy          =    -402.1108244927557394 [Eh]
	 Singles Energy            =      -0.0000000000000000 [Eh]
	 Same-Spin Energy          =      -0.4217526219405248 [Eh]
	 Opposite-Spin Energy      =      -1.4051320816454398 [Eh]
	 Correlation Energy        =      -1.8268847035859646 [Eh]
	 Total Energy              =    -403.9377091963417001 [Eh]

	 ================> DF-SCS-MP2 Energies <==================
	-----------------------------------------------------------
	 SCS Same-Spin Scale       =       0.3333333333333333 [-]
	 SCS Opposite-Spin Scale   =       1.2000000000000000 [-]
	 SCS Same-Spin Energy      =      -0.1405842073135083 [Eh]
	 SCS Opposite-Spin Energy  =      -1.6861584979745277 [Eh]
	 SCS Correlation Energy    =      -1.8267427052880358 [Eh]
	 SCS Total Energy          =    -403.9375671980437801 [Eh]
	-----------------------------------------------------------

  Dipole Moment: [D]
     X:    -2.6142      Y:    -3.1089      Z:     0.7949     Total:     4.1390

*** Psi4 exiting successfully. Buy a developer a beer!
