                               Psi4 1.3.2 release

  ==> Input File <==

--------------------------------------------------------------------------
#psi4
#
memory 32 gb

molecule  {
0 1
  O        1.7739800     1.6003060    -0.2911220
  N        0.9906540    -0.4920130     0.2058460
  C       -2.2286800    -0.2510300    -0.1765170
  C       -1.2789037    -1.4424778    -0.2903376
  C       -1.5989250     1.1242550    -0.3956020
  C       -0.0841310    -1.3759550     0.6456410
  C       -0.4584780     1.4603760     0.5782350
  C        0.8707430     0.8730760     0.1404640
  C        2.1918860    -1.1187650    -0.3259700
  H       -2.6699130    -0.2765890     0.8297550
  H       -3.0608600    -0.3791320    -0.8796750
  H       -1.8321650    -2.3606500    -0.1255340
  H       -0.8887130    -1.5005570    -1.3409750
  H       -2.3834680     1.8827830    -0.2893500
  H       -1.2246060     1.2090190    -1.4238390
  H       -0.4244360    -1.0900460     1.6492300
  H        0.3620160    -2.3701320     0.7449650
  H       -0.7218730     1.1400510     1.5944380
  H       -0.2910430     2.5394790     0.6064930
  H        1.9486170    -1.7578730    -1.1825500
  H        2.6762910    -1.7288140     0.4434650
  H        2.8674440    -0.3269360    -0.6441440
units angstrom
no_reorient  #important for SAPT in psi4, default
symmetry c1  #important for SAPT in psi4, default
}

set PROPERTIES_ORIGIN ["COM"]
properties('MP2/aug-cc-pvtz', properties = ['dipole'])
--------------------------------------------------------------------------

    Molecular point group: c1
  Charge       = 0
  Multiplicity = 1
  Basis Set: AUG-CC-PVTZ
    Blend: AUG-CC-PVTZ
  Basis Set: (AUG-CC-PVTZ AUX)
    Blend: AUG-CC-PVTZ-JKFIT

    Orbital Energies [Eh]
    ---------------------

    Doubly Occupied:

       1A    -20.505901     2A    -15.581017     3A    -11.340137
       4A    -11.271979     5A    -11.250665     6A    -11.234981
       7A    -11.233978     8A    -11.233642     9A    -11.231579
      10A     -1.362024    11A     -1.241478    12A     -1.097881
      13A     -1.039316    14A     -0.976041    15A     -0.914349
      16A     -0.878160    17A     -0.791589    18A     -0.725454
      19A     -0.690999    20A     -0.669835    21A     -0.633345
      22A     -0.608164    23A     -0.601424    24A     -0.594601
      25A     -0.584222    26A     -0.559275    27A     -0.545000
      28A     -0.527683    29A     -0.509972    30A     -0.507030
      31A     -0.475225    32A     -0.468545    33A     -0.466500
      34A     -0.407639    35A     -0.365906

  @DF-RHF Final Energy:  -402.11121968591152

   => Energetics <=

    Nuclear Repulsion Energy =            486.3057009545545952
    One-Electron Energy =               -1510.5827703167365144
    Two-Electron Energy =                 622.1658496762704544
    Total Energy =                       -402.1112196859114647
  Basis Set: (AUG-CC-PVTZ AUX)
    Blend: AUG-CC-PVTZ-RI
    Molecular point group: c1

    Geometry (in Angstrom), charge = 0, multiplicity = 1:

       Center              X                  Y                   Z               Mass
    ------------   -----------------  -----------------  -----------------  -----------------
         O            1.730532757232     1.561894113093    -0.293632677326    15.994914619570
         N            0.947206757232    -0.530424886907     0.203335322674    14.003074004430
         C           -2.272127242768    -0.289441886907    -0.179027677326    12.000000000000
         C           -1.322350942768    -1.480889686907    -0.292848277326    12.000000000000
         C           -1.642372242768     1.085843113093    -0.398112677326    12.000000000000
         C           -0.127578242768    -1.414366886907     0.643130322674    12.000000000000
         C           -0.501925242768     1.421964113093     0.575724322674    12.000000000000
         C            0.827295757232     0.834664113093     0.137953322674    12.000000000000
         C            2.148438757232    -1.157176886907    -0.328480677326    12.000000000000
         H           -2.713360242768    -0.315000886907     0.827244322674     1.007825032230
         H           -3.104307242768    -0.417543886907    -0.882185677326     1.007825032230
         H           -1.875612242768    -2.399061886907    -0.128044677326     1.007825032230
         H           -0.932160242768    -1.538968886907    -1.343485677326     1.007825032230
         H           -2.426915242768     1.844371113093    -0.291860677326     1.007825032230
         H           -1.268053242768     1.170607113093    -1.426349677326     1.007825032230
         H           -0.467883242768    -1.128457886907     1.646719322674     1.007825032230
         H            0.318568757232    -2.408543886907     0.742454322674     1.007825032230
         H           -0.765320242768     1.101639113093     1.591927322674     1.007825032230
         H           -0.334490242768     2.501067113093     0.603982322674     1.007825032230
         H            1.905169757232    -1.796284886907    -1.185060677326     1.007825032230
         H            2.632843757232    -1.767225886907     0.440954322674     1.007825032230
         H            2.823996757232    -0.365347886907    -0.646654677326     1.007825032230

  Basis Set: AUG-CC-PVTZ
    Blend: AUG-CC-PVTZ
  Basis Set: (AUG-CC-PVTZ AUX)
    Blend: AUG-CC-PVTZ-JKFIT
	 Reference Energy          =    -402.1112196859115215 [Eh]
	 Singles Energy            =      -0.0000000000000000 [Eh]
	 Same-Spin Energy          =      -0.4218502796158267 [Eh]
	 Opposite-Spin Energy      =      -1.4052844183523050 [Eh]
	 Correlation Energy        =      -1.8271346979681318 [Eh]
	 Total Energy              =    -403.9383543838796413 [Eh]

	 ================> DF-SCS-MP2 Energies <==================
	-----------------------------------------------------------
	 SCS Same-Spin Scale       =       0.3333333333333333 [-]
	 SCS Opposite-Spin Scale   =       1.2000000000000000 [-]
	 SCS Same-Spin Energy      =      -0.1406167598719422 [Eh]
	 SCS Opposite-Spin Energy  =      -1.6863413020227660 [Eh]
	 SCS Correlation Energy    =      -1.8269580618947083 [Eh]
	 SCS Total Energy          =    -403.9381777478062077 [Eh]
	-----------------------------------------------------------

  Dipole Moment: [D]
     X:    -2.5851      Y:    -3.1021      Z:     0.7990     Total:     4.1163

*** Psi4 exiting successfully. Buy a developer a beer!
