                               Psi4 1.4a3.dev225

  ==> Input File <==

--------------------------------------------------------------------------
#psi4
#
memory 32 gb

molecule  {
0 1
  O        1.7739800     1.6003060    -0.2911220
  N        0.9906540    -0.4920130     0.2058460
  C       -2.2286800    -0.2510300    -0.1765170
  C       -1.2730330    -1.4351160    -0.3152870
  C       -1.5989250     1.1242550    -0.3956020
  C       -0.0841310    -1.3759550     0.6456410
  C       -0.4584780     1.4603760     0.5782350
  C        0.8707430     0.8730760     0.1404640
  C        2.1918860    -1.1187650    -0.3259700
  H       -2.6699130    -0.2765890     0.8297550
  H       -3.0608600    -0.3791320    -0.8796750
  H       -1.8321650    -2.3606500    -0.1255340
  H       -0.8887130    -1.5005570    -1.3409750
  H       -2.3834680     1.8827830    -0.2893500
  H       -1.2246060     1.2090190    -1.4238390
  H       -0.4399381    -1.0770218     1.6949471
  H        0.3620160    -2.3701320     0.7449650
  H       -0.7218730     1.1400510     1.5944380
  H       -0.2910430     2.5394790     0.6064930
  H        1.9486170    -1.7578730    -1.1825500
  H        2.6762910    -1.7288140     0.4434650
  H        2.8674440    -0.3269360    -0.6441440
units angstrom
no_reorient  #important for SAPT in psi4, default
symmetry c1  #important for SAPT in psi4, default
}

set PROPERTIES_ORIGIN ["COM"]
properties('MP2/aug-cc-pvtz', properties = ['dipole'])
--------------------------------------------------------------------------

    Molecular point group: c1
  Charge       = 0
  Multiplicity = 1
  Basis Set: AUG-CC-PVTZ
    Blend: AUG-CC-PVTZ
  Basis Set: (AUG-CC-PVTZ AUX)
    Blend: AUG-CC-PVTZ-JKFIT

    Orbital Energies [Eh]
    ---------------------

    Doubly Occupied:

       1A    -20.505996     2A    -15.581260     3A    -11.340154
       4A    -11.278193     5A    -11.251028     6A    -11.234654
       7A    -11.234000     8A    -11.233372     9A    -11.231528
      10A     -1.362115    11A     -1.241330    12A     -1.097473
      13A     -1.037514    14A     -0.974732    15A     -0.913405
      16A     -0.877556    17A     -0.791858    18A     -0.721925
      19A     -0.690316    20A     -0.669142    21A     -0.633013
      22A     -0.608049    23A     -0.601658    24A     -0.594013
      25A     -0.582190    26A     -0.557414    27A     -0.544654
      28A     -0.527200    29A     -0.509324    30A     -0.506846
      31A     -0.479279    32A     -0.467522    33A     -0.465115
      34A     -0.407630    35A     -0.365068

  @DF-RHF Final Energy:  -402.10983462187301

   => Energetics <=

    Nuclear Repulsion Energy =            486.0618269116180841
    One-Electron Energy =               -1510.1102752134897855
    Two-Electron Energy =                 621.9386136799987526
    Total Energy =                       -402.1098346218730057
  Basis Set: (AUG-CC-PVTZ AUX)
    Blend: AUG-CC-PVTZ-RI
    Molecular point group: c1

    Geometry (in Angstrom), charge = 0, multiplicity = 1:

       Center              X                  Y                   Z               Mass
    ------------   -----------------  -----------------  -----------------  -----------------
         O            1.730101403031     1.561095781519    -0.291639612557    15.994914619570
         N            0.946775403031    -0.531223218481     0.205328387443    14.003074004430
         C           -2.272558596969    -0.290240218481    -0.177034612557    12.000000000000
         C           -1.316911596969    -1.474326218481    -0.315804612557    12.000000000000
         C           -1.642803596969     1.085044781519    -0.396119612557    12.000000000000
         C           -0.128009596969    -1.415165218481     0.645123387443    12.000000000000
         C           -0.502356596969     1.421165781519     0.577717387443    12.000000000000
         C            0.826864403031     0.833865781519     0.139946387443    12.000000000000
         C            2.148007403031    -1.157975218481    -0.326487612557    12.000000000000
         H           -2.713791596969    -0.315799218481     0.829237387443     1.007825032230
         H           -3.104738596969    -0.418342218481    -0.880192612557     1.007825032230
         H           -1.876043596969    -2.399860218481    -0.126051612557     1.007825032230
         H           -0.932591596969    -1.539767218481    -1.341492612557     1.007825032230
         H           -2.427346596969     1.843572781519    -0.289867612557     1.007825032230
         H           -1.268484596969     1.169808781519    -1.424356612557     1.007825032230
         H           -0.483816696969    -1.116232018481     1.694429487443     1.007825032230
         H            0.318137403031    -2.409342218481     0.744447387443     1.007825032230
         H           -0.765751596969     1.100840781519     1.593920387443     1.007825032230
         H           -0.334921596969     2.500268781519     0.605975387443     1.007825032230
         H            1.904738403031    -1.797083218481    -1.183067612557     1.007825032230
         H            2.632412403031    -1.768024218481     0.442947387443     1.007825032230
         H            2.823565403031    -0.366146218481    -0.644661612557     1.007825032230

  Basis Set: AUG-CC-PVTZ
    Blend: AUG-CC-PVTZ
  Basis Set: (AUG-CC-PVTZ AUX)
    Blend: AUG-CC-PVTZ-JKFIT
	 Reference Energy          =    -402.1098346218730057 [Eh]
	 Singles Energy            =      -0.0000000000000000 [Eh]
	 Same-Spin Energy          =      -0.4218827586033222 [Eh]
	 Opposite-Spin Energy      =      -1.4056287365567917 [Eh]
	 Correlation Energy        =      -1.8275114951601139 [Eh]
	 Total Energy              =    -403.9373461170331439 [Eh]

	 ================> DF-SCS-MP2 Energies <==================
	-----------------------------------------------------------
	 SCS Same-Spin Scale       =       0.3333333333333333 [-]
	 SCS Opposite-Spin Scale   =       1.2000000000000000 [-]
	 SCS Same-Spin Energy      =      -0.1406275862011074 [Eh]
	 SCS Opposite-Spin Energy  =      -1.6867544838681499 [Eh]
	 SCS Correlation Energy    =      -1.8273820700692573 [Eh]
	 SCS Total Energy          =    -403.9372166919422398 [Eh]
	-----------------------------------------------------------

  Dipole Moment: [D]
     X:    -2.5633      Y:    -3.0977      Z:     0.7589     Total:     4.0917

*** Psi4 exiting successfully. Buy a developer a beer!
