                               Psi4 1.3.2 release

  ==> Input File <==

--------------------------------------------------------------------------
#psi4
#
memory 32 gb

molecule  {
0 1
  O        1.7861325     1.5828047    -0.2946386
  N        0.9906540    -0.4920130     0.2058460
  C       -2.2286800    -0.2510300    -0.1765170
  C       -1.2730330    -1.4351160    -0.3152870
  C       -1.5989250     1.1242550    -0.3956020
  C       -0.0841310    -1.3759550     0.6456410
  C       -0.4584780     1.4603760     0.5782350
  C        0.8707430     0.8730760     0.1404640
  C        2.1918860    -1.1187650    -0.3259700
  H       -2.6699130    -0.2765890     0.8297550
  H       -3.0608600    -0.3791320    -0.8796750
  H       -1.8321650    -2.3606500    -0.1255340
  H       -0.8887130    -1.5005570    -1.3409750
  H       -2.3834680     1.8827830    -0.2893500
  H       -1.2246060     1.2090190    -1.4238390
  H       -0.4244360    -1.0900460     1.6492300
  H        0.3620160    -2.3701320     0.7449650
  H       -0.7218730     1.1400510     1.5944380
  H       -0.2910430     2.5394790     0.6064930
  H        1.9486170    -1.7578730    -1.1825500
  H        2.6762910    -1.7288140     0.4434650
  H        2.8674440    -0.3269360    -0.6441440
units angstrom
no_reorient  #important for SAPT in psi4, default
symmetry c1  #important for SAPT in psi4, default
}

set PROPERTIES_ORIGIN ["COM"]
properties('MP2/aug-cc-pvtz', properties = ['dipole'])
--------------------------------------------------------------------------

    Molecular point group: c1
  Charge       = 0
  Multiplicity = 1
  Basis Set: AUG-CC-PVTZ
    Blend: AUG-CC-PVTZ
  Basis Set: (AUG-CC-PVTZ AUX)
    Blend: AUG-CC-PVTZ-JKFIT

    Orbital Energies [Eh]
    ---------------------

    Doubly Occupied:

       1A    -20.505402     2A    -15.579573     3A    -11.339966
       4A    -11.271706     5A    -11.249689     6A    -11.235260
       7A    -11.234561     8A    -11.233253     9A    -11.231667
      10A     -1.362184    11A     -1.240013    12A     -1.097789
      13A     -1.038424    14A     -0.975428    15A     -0.913522
      16A     -0.878234    17A     -0.792652    18A     -0.724817
      19A     -0.690941    20A     -0.668814    21A     -0.632996
      22A     -0.608190    23A     -0.601935    24A     -0.594403
      25A     -0.583315    26A     -0.558128    27A     -0.544376
      28A     -0.526437    29A     -0.509485    30A     -0.509062
      31A     -0.479526    32A     -0.467768    33A     -0.465568
      34A     -0.407911    35A     -0.364295

  @DF-RHF Final Energy:  -402.11192244946631

   => Energetics <=

    Nuclear Repulsion Energy =            486.3827308484503646
    One-Electron Energy =               -1510.7547269080178012
    Two-Electron Energy =                 622.2600736101011307
    Total Energy =                       -402.1119224494663058
  Basis Set: (AUG-CC-PVTZ AUX)
    Blend: AUG-CC-PVTZ-RI
    Molecular point group: c1

    Geometry (in Angstrom), charge = 0, multiplicity = 1:

       Center              X                  Y                   Z               Mass
    ------------   -----------------  -----------------  -----------------  -----------------
         O            1.740601644362     1.545900213803    -0.294351155242    15.994914619570
         N            0.945123144362    -0.528917486197     0.206133444758    14.003074004430
         C           -2.274210855638    -0.287934486197    -0.176229555242    12.000000000000
         C           -1.318563855638    -1.472020486197    -0.314999555242    12.000000000000
         C           -1.644455855638     1.087350513803    -0.395314555242    12.000000000000
         C           -0.129661855638    -1.412859486197     0.645928444758    12.000000000000
         C           -0.504008855638     1.423471513803     0.578522444758    12.000000000000
         C            0.825212144362     0.836171513803     0.140751444758    12.000000000000
         C            2.146355144362    -1.155669486197    -0.325682555242    12.000000000000
         H           -2.715443855638    -0.313493486197     0.830042444758     1.007825032230
         H           -3.106390855638    -0.416036486197    -0.879387555242     1.007825032230
         H           -1.877695855638    -2.397554486197    -0.125246555242     1.007825032230
         H           -0.934243855638    -1.537461486197    -1.340687555242     1.007825032230
         H           -2.428998855638     1.845878513803    -0.289062555242     1.007825032230
         H           -1.270136855638     1.172114513803    -1.423551555242     1.007825032230
         H           -0.469966855638    -1.126950486197     1.649517444758     1.007825032230
         H            0.316485144362    -2.407036486197     0.745252444758     1.007825032230
         H           -0.767403855638     1.103146513803     1.594725444758     1.007825032230
         H           -0.336573855638     2.502574513803     0.606780444758     1.007825032230
         H            1.903086144362    -1.794777486197    -1.182262555242     1.007825032230
         H            2.630760144362    -1.765718486197     0.443752444758     1.007825032230
         H            2.821913144362    -0.363840486197    -0.643856555242     1.007825032230

  Basis Set: AUG-CC-PVTZ
    Blend: AUG-CC-PVTZ
  Basis Set: (AUG-CC-PVTZ AUX)
    Blend: AUG-CC-PVTZ-JKFIT
	 Reference Energy          =    -402.1119224494663058 [Eh]
	 Singles Energy            =      -0.0000000000000000 [Eh]
	 Same-Spin Energy          =      -0.4218291783019619 [Eh]
	 Opposite-Spin Energy      =      -1.4052315925802668 [Eh]
	 Correlation Energy        =      -1.8270607708822286 [Eh]
	 Total Energy              =    -403.9389832203485184 [Eh]

	 ================> DF-SCS-MP2 Energies <==================
	-----------------------------------------------------------
	 SCS Same-Spin Scale       =       0.3333333333333333 [-]
	 SCS Opposite-Spin Scale   =       1.2000000000000000 [-]
	 SCS Same-Spin Energy      =      -0.1406097261006539 [Eh]
	 SCS Opposite-Spin Energy  =      -1.6862779110963200 [Eh]
	 SCS Correlation Energy    =      -1.8268876371969740 [Eh]
	 SCS Total Energy          =    -403.9388100866632954 [Eh]
	-----------------------------------------------------------

  Dipole Moment: [D]
     X:    -2.6174      Y:    -3.0521      Z:     0.8019     Total:     4.0999

*** Psi4 exiting successfully. Buy a developer a beer!
