                               Psi4 1.3.2 release

  ==> Input File <==

--------------------------------------------------------------------------
#psi4
#
memory 32 gb

molecule  {
0 1
  O        1.7739800     1.6003060    -0.2911220
  N        0.9906540    -0.4920130     0.2058460
  C       -2.1039834    -0.1571161    -0.2112888
  C       -1.2730330    -1.4351160    -0.3152870
  C       -1.5989250     1.1242550    -0.3956020
  C       -0.0841310    -1.3759550     0.6456410
  C       -0.4584780     1.4603760     0.5782350
  C        0.8707430     0.8730760     0.1404640
  C        2.1918860    -1.1187650    -0.3259700
  H       -2.6699130    -0.2765890     0.8297550
  H       -3.0608600    -0.3791320    -0.8796750
  H       -1.8321650    -2.3606500    -0.1255340
  H       -0.8887130    -1.5005570    -1.3409750
  H       -2.3834680     1.8827830    -0.2893500
  H       -1.2246060     1.2090190    -1.4238390
  H       -0.4244360    -1.0900460     1.6492300
  H        0.3620160    -2.3701320     0.7449650
  H       -0.7218730     1.1400510     1.5944380
  H       -0.2910430     2.5394790     0.6064930
  H        1.9486170    -1.7578730    -1.1825500
  H        2.6762910    -1.7288140     0.4434650
  H        2.8674440    -0.3269360    -0.6441440
units angstrom
no_reorient  #important for SAPT in psi4, default
symmetry c1  #important for SAPT in psi4, default
}

set PROPERTIES_ORIGIN ["COM"]
properties('MP2/aug-cc-pvtz', properties = ['dipole'])
--------------------------------------------------------------------------

    Molecular point group: c1
  Charge       = 0
  Multiplicity = 1
  Basis Set: AUG-CC-PVTZ
    Blend: AUG-CC-PVTZ
  Basis Set: (AUG-CC-PVTZ AUX)
    Blend: AUG-CC-PVTZ-JKFIT

    Orbital Energies [Eh]
    ---------------------

    Doubly Occupied:

       1A    -20.506554     2A    -15.581558     3A    -11.341099
       4A    -11.271292     5A    -11.251024     6A    -11.241966
       7A    -11.236850     8A    -11.234207     9A    -11.230614
      10A     -1.362797    11A     -1.242434    12A     -1.117743
      13A     -1.040382    14A     -0.981345    15A     -0.912496
      16A     -0.887247    17A     -0.780068    18A     -0.726439
      19A     -0.694584    20A     -0.673163    21A     -0.632926
      22A     -0.613693    23A     -0.612041    24A     -0.592257
      25A     -0.586687    26A     -0.556692    27A     -0.549283
      28A     -0.529528    29A     -0.511282    30A     -0.506170
      31A     -0.499475    32A     -0.453749    33A     -0.439274
      34A     -0.407988    35A     -0.365161

  @DF-RHF Final Energy:  -402.08179823438991

   => Energetics <=

    Nuclear Repulsion Energy =            488.7363513468894780
    One-Electron Energy =               -1515.2961629467263265
    Two-Electron Energy =                 624.4780133654469410
    Total Energy =                       -402.0817982343899075
  Basis Set: (AUG-CC-PVTZ AUX)
    Blend: AUG-CC-PVTZ-RI
    Molecular point group: c1

    Geometry (in Angstrom), charge = 0, multiplicity = 1:

       Center              X                  Y                   Z               Mass
    ------------   -----------------  -----------------  -----------------  -----------------
         O            1.718205368364     1.552332263099    -0.287994156379    15.994914619570
         N            0.934879368364    -0.539986736901     0.208973843621    14.003074004430
         C           -2.159758031636    -0.205089836901    -0.208160956379    12.000000000000
         C           -1.328807631636    -1.483089736901    -0.312159156379    12.000000000000
         C           -1.654699631636     1.076281263099    -0.392474156379    12.000000000000
         C           -0.139905631636    -1.423928736901     0.648768843621    12.000000000000
         C           -0.514252631636     1.412402263099     0.581362843621    12.000000000000
         C            0.814968368364     0.825102263099     0.143591843621    12.000000000000
         C            2.136111368364    -1.166738736901    -0.322842156379    12.000000000000
         H           -2.725687631636    -0.324562736901     0.832882843621     1.007825032230
         H           -3.116634631636    -0.427105736901    -0.876547156379     1.007825032230
         H           -1.887939631636    -2.408623736901    -0.122406156379     1.007825032230
         H           -0.944487631636    -1.548530736901    -1.337847156379     1.007825032230
         H           -2.439242631636     1.834809263099    -0.286222156379     1.007825032230
         H           -1.280380631636     1.161045263099    -1.420711156379     1.007825032230
         H           -0.480210631636    -1.138019736901     1.652357843621     1.007825032230
         H            0.306241368364    -2.418105736901     0.748092843621     1.007825032230
         H           -0.777647631636     1.092077263099     1.597565843621     1.007825032230
         H           -0.346817631636     2.491505263099     0.609620843621     1.007825032230
         H            1.892842368364    -1.805846736901    -1.179422156379     1.007825032230
         H            2.620516368364    -1.776787736901     0.446592843621     1.007825032230
         H            2.811669368364    -0.374909736901    -0.641016156379     1.007825032230

  Basis Set: AUG-CC-PVTZ
    Blend: AUG-CC-PVTZ
  Basis Set: (AUG-CC-PVTZ AUX)
    Blend: AUG-CC-PVTZ-JKFIT
	 Reference Energy          =    -402.0817982343899075 [Eh]
	 Singles Energy            =      -0.0000000000000000 [Eh]
	 Same-Spin Energy          =      -0.4237938690398660 [Eh]
	 Opposite-Spin Energy      =      -1.4081740105756499 [Eh]
	 Correlation Energy        =      -1.8319678796155161 [Eh]
	 Total Energy              =    -403.9137661140053979 [Eh]

	 ================> DF-SCS-MP2 Energies <==================
	-----------------------------------------------------------
	 SCS Same-Spin Scale       =       0.3333333333333333 [-]
	 SCS Opposite-Spin Scale   =       1.2000000000000000 [-]
	 SCS Same-Spin Energy      =      -0.1412646230132887 [Eh]
	 SCS Opposite-Spin Energy  =      -1.6898088126907800 [Eh]
	 SCS Correlation Energy    =      -1.8310734357040688 [Eh]
	 SCS Total Energy          =    -403.9128716700939776 [Eh]
	-----------------------------------------------------------

  Dipole Moment: [D]
     X:    -2.4848      Y:    -3.0668      Z:     0.7501     Total:     4.0177

*** Psi4 exiting successfully. Buy a developer a beer!
