                               Psi4 1.3.2 release

  ==> Input File <==

--------------------------------------------------------------------------
#psi4
#
memory 32 gb

molecule  {
0 1
  O        1.6934674     1.6999790    -0.2722380
  N        0.9906540    -0.4920130     0.2058460
  C       -2.2286800    -0.2510300    -0.1765170
  C       -1.2730330    -1.4351160    -0.3152870
  C       -1.5989250     1.1242550    -0.3956020
  C       -0.0841310    -1.3759550     0.6456410
  C       -0.4584780     1.4603760     0.5782350
  C        0.8707430     0.8730760     0.1404640
  C        2.1918860    -1.1187650    -0.3259700
  H       -2.6699130    -0.2765890     0.8297550
  H       -3.0608600    -0.3791320    -0.8796750
  H       -1.8321650    -2.3606500    -0.1255340
  H       -0.8887130    -1.5005570    -1.3409750
  H       -2.3834680     1.8827830    -0.2893500
  H       -1.2246060     1.2090190    -1.4238390
  H       -0.4244360    -1.0900460     1.6492300
  H        0.3620160    -2.3701320     0.7449650
  H       -0.7218730     1.1400510     1.5944380
  H       -0.2910430     2.5394790     0.6064930
  H        1.9486170    -1.7578730    -1.1825500
  H        2.6762910    -1.7288140     0.4434650
  H        2.8674440    -0.3269360    -0.6441440
units angstrom
no_reorient  #important for SAPT in psi4, default
symmetry c1  #important for SAPT in psi4, default
}

set PROPERTIES_ORIGIN ["COM"]
properties('MP2/aug-cc-pvtz', properties = ['dipole'])
--------------------------------------------------------------------------

    Molecular point group: c1
  Charge       = 0
  Multiplicity = 1
  Basis Set: AUG-CC-PVTZ
    Blend: AUG-CC-PVTZ
  Basis Set: (AUG-CC-PVTZ AUX)
    Blend: AUG-CC-PVTZ-JKFIT

    Orbital Energies [Eh]
    ---------------------

    Doubly Occupied:

       1A    -20.507130     2A    -15.586474     3A    -11.339917
       4A    -11.275037     5A    -11.255617     6A    -11.234090
       7A    -11.231402     8A    -11.230294     9A    -11.226690
      10A     -1.360667    11A     -1.247884    12A     -1.096109
      13A     -1.036189    14A     -0.976701    15A     -0.916046
      16A     -0.877506    17A     -0.791611    18A     -0.728015
      19A     -0.688935    20A     -0.668847    21A     -0.635014
      22A     -0.609006    23A     -0.601573    24A     -0.593879
      25A     -0.582388    26A     -0.559768    27A     -0.544634
      28A     -0.530676    29A     -0.510998    30A     -0.509195
      31A     -0.478503    32A     -0.465118    33A     -0.463768
      34A     -0.402768    35A     -0.369746

  @DF-RHF Final Energy:  -402.10874316745247

   => Energetics <=

    Nuclear Repulsion Energy =            485.9822652603194229
    One-Electron Energy =               -1509.9176312972954292
    Two-Electron Energy =                 621.8266228695235895
    Total Energy =                       -402.1087431674524169
  Basis Set: (AUG-CC-PVTZ AUX)
    Blend: AUG-CC-PVTZ-RI
    Molecular point group: c1

    Geometry (in Angstrom), charge = 0, multiplicity = 1:

       Center              X                  Y                   Z               Mass
    ------------   -----------------  -----------------  -----------------  -----------------
         O            1.659598021131     1.648328666905    -0.274769567756    15.994914619570
         N            0.956784621131    -0.543663333095     0.203314432244    14.003074004430
         C           -2.262549378869    -0.302680333095    -0.179048567756    12.000000000000
         C           -1.306902378869    -1.486766333095    -0.317818567756    12.000000000000
         C           -1.632794378869     1.072604666905    -0.398133567756    12.000000000000
         C           -0.118000378869    -1.427605333095     0.643109432244    12.000000000000
         C           -0.492347378869     1.408725666905     0.575703432244    12.000000000000
         C            0.836873621131     0.821425666905     0.137932432244    12.000000000000
         C            2.158016621131    -1.170415333095    -0.328501567756    12.000000000000
         H           -2.703782378869    -0.328239333095     0.827223432244     1.007825032230
         H           -3.094729378869    -0.430782333095    -0.882206567756     1.007825032230
         H           -1.866034378869    -2.412300333095    -0.128065567756     1.007825032230
         H           -0.922582378869    -1.552207333095    -1.343506567756     1.007825032230
         H           -2.417337378869     1.831132666905    -0.291881567756     1.007825032230
         H           -1.258475378869     1.157368666905    -1.426370567756     1.007825032230
         H           -0.458305378869    -1.141696333095     1.646698432244     1.007825032230
         H            0.328146621131    -2.421782333095     0.742433432244     1.007825032230
         H           -0.755742378869     1.088400666905     1.591906432244     1.007825032230
         H           -0.324912378869     2.487828666905     0.603961432244     1.007825032230
         H            1.914747621131    -1.809523333095    -1.185081567756     1.007825032230
         H            2.642421621131    -1.780464333095     0.440933432244     1.007825032230
         H            2.833574621131    -0.378586333095    -0.646675567756     1.007825032230

  Basis Set: AUG-CC-PVTZ
    Blend: AUG-CC-PVTZ
  Basis Set: (AUG-CC-PVTZ AUX)
    Blend: AUG-CC-PVTZ-JKFIT
	 Reference Energy          =    -402.1087431674524737 [Eh]
	 Singles Energy            =      -0.0000000000000000 [Eh]
	 Same-Spin Energy          =      -0.4216726797907259 [Eh]
	 Opposite-Spin Energy      =      -1.4054030295250435 [Eh]
	 Correlation Energy        =      -1.8270757093157695 [Eh]
	 Total Energy              =    -403.9358188767682236 [Eh]

	 ================> DF-SCS-MP2 Energies <==================
	-----------------------------------------------------------
	 SCS Same-Spin Scale       =       0.3333333333333333 [-]
	 SCS Opposite-Spin Scale   =       1.2000000000000000 [-]
	 SCS Same-Spin Energy      =      -0.1405575599302419 [Eh]
	 SCS Opposite-Spin Energy  =      -1.6864836354300521 [Eh]
	 SCS Correlation Energy    =      -1.8270411953602941 [Eh]
	 SCS Total Energy          =    -403.9357843628127398 [Eh]
	-----------------------------------------------------------

  Dipole Moment: [D]
     X:    -2.3345      Y:    -3.3940      Z:     0.7434     Total:     4.1859

*** Psi4 exiting successfully. Buy a developer a beer!
