                               Psi4 1.4a3.dev225

  ==> Input File <==

--------------------------------------------------------------------------
#psi4
#
memory 32 gb

molecule  {
0 1
  O        1.7739800     1.6003060    -0.2911220
  N        0.9906540    -0.4920130     0.2058460
  C       -2.2286800    -0.2510300    -0.1765170
  C       -1.2730330    -1.4351160    -0.3152870
  C       -1.5989250     1.1242550    -0.3956020
  C       -0.0452736    -1.3740214     0.6770474
  C       -0.4584780     1.4603760     0.5782350
  C        0.8707430     0.8730760     0.1404640
  C        2.1918860    -1.1187650    -0.3259700
  H       -2.6699130    -0.2765890     0.8297550
  H       -3.0608600    -0.3791320    -0.8796750
  H       -1.8321650    -2.3606500    -0.1255340
  H       -0.8887130    -1.5005570    -1.3409750
  H       -2.3834680     1.8827830    -0.2893500
  H       -1.2246060     1.2090190    -1.4238390
  H       -0.4244360    -1.0900460     1.6492300
  H        0.3620160    -2.3701320     0.7449650
  H       -0.7218730     1.1400510     1.5944380
  H       -0.2910430     2.5394790     0.6064930
  H        1.9486170    -1.7578730    -1.1825500
  H        2.6762910    -1.7288140     0.4434650
  H        2.8674440    -0.3269360    -0.6441440
units angstrom
no_reorient  #important for SAPT in psi4, default
symmetry c1  #important for SAPT in psi4, default
}

set PROPERTIES_ORIGIN ["COM"]
properties('MP2/aug-cc-pvtz', properties = ['dipole'])
--------------------------------------------------------------------------

    Molecular point group: c1
  Charge       = 0
  Multiplicity = 1
  Basis Set: AUG-CC-PVTZ
    Blend: AUG-CC-PVTZ
  Basis Set: (AUG-CC-PVTZ AUX)
    Blend: AUG-CC-PVTZ-JKFIT

    Orbital Energies [Eh]
    ---------------------

    Doubly Occupied:

       1A    -20.506648     2A    -15.581211     3A    -11.341083
       4A    -11.270473     5A    -11.251081     6A    -11.234421
       7A    -11.233858     8A    -11.233755     9A    -11.230863
      10A     -1.363019    11A     -1.245000    12A     -1.095182
      13A     -1.033557    14A     -0.975893    15A     -0.915100
      16A     -0.879340    17A     -0.791102    18A     -0.729086
      19A     -0.691007    20A     -0.669070    21A     -0.634159
      22A     -0.607114    23A     -0.601724    24A     -0.596403
      25A     -0.584887    26A     -0.556618    27A     -0.543130
      28A     -0.526207    29A     -0.514050    30A     -0.507463
      31A     -0.479232    32A     -0.466978    33A     -0.464157
      34A     -0.408407    35A     -0.362540

  @DF-RHF Final Energy:  -402.11042139429384

   => Energetics <=

    Nuclear Repulsion Energy =            486.0698252469921954
    One-Electron Energy =               -1510.1128551081376372
    Two-Electron Energy =                 621.9326084668515477
    Total Energy =                       -402.1104213942938941
  Basis Set: (AUG-CC-PVTZ AUX)
    Blend: AUG-CC-PVTZ-RI
    Molecular point group: c1

    Geometry (in Angstrom), charge = 0, multiplicity = 1:

       Center              X                  Y                   Z               Mass
    ------------   -----------------  -----------------  -----------------  -----------------
         O            1.726309795724     1.561016496642    -0.294242308910    15.994914619570
         N            0.942983795724    -0.531302503358     0.202725691090    14.003074004430
         C           -2.276350204276    -0.290319503358    -0.179637308910    12.000000000000
         C           -1.320703204276    -1.474405503358    -0.318407308910    12.000000000000
         C           -1.646595204276     1.084965496642    -0.398722308910    12.000000000000
         C           -0.092943804276    -1.413310903358     0.673927091090    12.000000000000
         C           -0.506148204276     1.421086496642     0.575114691090    12.000000000000
         C            0.823072795724     0.833786496642     0.137343691090    12.000000000000
         C            2.144215795724    -1.158054503358    -0.329090308910    12.000000000000
         H           -2.717583204276    -0.315878503358     0.826634691090     1.007825032230
         H           -3.108530204276    -0.418421503358    -0.882795308910     1.007825032230
         H           -1.879835204276    -2.399939503358    -0.128654308910     1.007825032230
         H           -0.936383204276    -1.539846503358    -1.344095308910     1.007825032230
         H           -2.431138204276     1.843493496642    -0.292470308910     1.007825032230
         H           -1.272276204276     1.169729496642    -1.426959308910     1.007825032230
         H           -0.472106204276    -1.129335503358     1.646109691090     1.007825032230
         H            0.314345795724    -2.409421503358     0.741844691090     1.007825032230
         H           -0.769543204276     1.100761496642     1.591317691090     1.007825032230
         H           -0.338713204276     2.500189496642     0.603372691090     1.007825032230
         H            1.900946795724    -1.797162503358    -1.185670308910     1.007825032230
         H            2.628620795724    -1.768103503358     0.440344691090     1.007825032230
         H            2.819773795724    -0.366225503358    -0.647264308910     1.007825032230

  Basis Set: AUG-CC-PVTZ
    Blend: AUG-CC-PVTZ
  Basis Set: (AUG-CC-PVTZ AUX)
    Blend: AUG-CC-PVTZ-JKFIT
	 Reference Energy          =    -402.1104213942938372 [Eh]
	 Singles Energy            =      -0.0000000000000000 [Eh]
	 Same-Spin Energy          =      -0.4216399734049980 [Eh]
	 Opposite-Spin Energy      =      -1.4050550813314966 [Eh]
	 Correlation Energy        =      -1.8266950547364946 [Eh]
	 Total Energy              =    -403.9371164490303272 [Eh]

	 ================> DF-SCS-MP2 Energies <==================
	-----------------------------------------------------------
	 SCS Same-Spin Scale       =       0.3333333333333333 [-]
	 SCS Opposite-Spin Scale   =       1.2000000000000000 [-]
	 SCS Same-Spin Energy      =      -0.1405466578016660 [Eh]
	 SCS Opposite-Spin Energy  =      -1.6860660975977959 [Eh]
	 SCS Correlation Energy    =      -1.8266127553994620 [Eh]
	 SCS Total Energy          =    -403.9370341496933179 [Eh]
	-----------------------------------------------------------

  Dipole Moment: [D]
     X:    -2.5072      Y:    -3.0699      Z:     0.8260     Total:     4.0487

*** Psi4 exiting successfully. Buy a developer a beer!
