                               Psi4 1.3.2 release

  ==> Input File <==

--------------------------------------------------------------------------
#psi4
#
memory 32 gb

molecule  {
0 1
  O        1.7739800     1.6003060    -0.2911220
  N        0.9906540    -0.4920130     0.2058460
  C       -2.2286800    -0.2510300    -0.1765170
  C       -1.2730330    -1.4351160    -0.3152870
  C       -1.5815665     1.1106442    -0.4108631
  C       -0.0841310    -1.3759550     0.6456410
  C       -0.4584780     1.4603760     0.5782350
  C        0.8707430     0.8730760     0.1404640
  C        2.1918860    -1.1187650    -0.3259700
  H       -2.6699130    -0.2765890     0.8297550
  H       -3.0608600    -0.3791320    -0.8796750
  H       -1.8321650    -2.3606500    -0.1255340
  H       -0.8887130    -1.5005570    -1.3409750
  H       -2.3834680     1.8827830    -0.2893500
  H       -1.2246060     1.2090190    -1.4238390
  H       -0.4244360    -1.0900460     1.6492300
  H        0.3620160    -2.3701320     0.7449650
  H       -0.7218730     1.1400510     1.5944380
  H       -0.2910430     2.5394790     0.6064930
  H        1.9486170    -1.7578730    -1.1825500
  H        2.6762910    -1.7288140     0.4434650
  H        2.8674440    -0.3269360    -0.6441440
units angstrom
no_reorient  #important for SAPT in psi4, default
symmetry c1  #important for SAPT in psi4, default
}

set PROPERTIES_ORIGIN ["COM"]
properties('MP2/aug-cc-pvtz', properties = ['dipole'])
--------------------------------------------------------------------------

    Molecular point group: c1
  Charge       = 0
  Multiplicity = 1
  Basis Set: AUG-CC-PVTZ
    Blend: AUG-CC-PVTZ
  Basis Set: (AUG-CC-PVTZ AUX)
    Blend: AUG-CC-PVTZ-JKFIT

    Orbital Energies [Eh]
    ---------------------

    Doubly Occupied:

       1A    -20.505447     2A    -15.580441     3A    -11.339474
       4A    -11.272173     5A    -11.250537     6A    -11.234929
       7A    -11.233702     8A    -11.232973     9A    -11.231599
      10A     -1.361692    11A     -1.241141    12A     -1.098119
      13A     -1.038142    14A     -0.975622    15A     -0.913784
      16A     -0.877567    17A     -0.793370    18A     -0.725302
      19A     -0.690610    20A     -0.668623    21A     -0.633717
      22A     -0.607961    23A     -0.602688    24A     -0.592825
      25A     -0.582248    26A     -0.558489    27A     -0.543704
      28A     -0.527661    29A     -0.511382    30A     -0.508960
      31A     -0.482984    32A     -0.468192    33A     -0.461233
      34A     -0.406674    35A     -0.365058

  @DF-RHF Final Energy:  -402.11121945728951

   => Energetics <=

    Nuclear Repulsion Energy =            486.5372063435058294
    One-Electron Energy =               -1511.0588000335844754
    Two-Electron Energy =                 622.4103742327890814
    Total Energy =                       -402.1112194572895078
  Basis Set: (AUG-CC-PVTZ AUX)
    Blend: AUG-CC-PVTZ-RI
    Molecular point group: c1

    Geometry (in Angstrom), charge = 0, multiplicity = 1:

       Center              X                  Y                   Z               Mass
    ------------   -----------------  -----------------  -----------------  -----------------
         O            1.728339594154     1.562484106552    -0.289836240776    15.994914619570
         N            0.945013594154    -0.529834893448     0.207131759224    14.003074004430
         C           -2.274320405846    -0.288851893448    -0.175231240776    12.000000000000
         C           -1.318673405846    -1.472937893448    -0.314001240776    12.000000000000
         C           -1.627206905846     1.072822306552    -0.409577340776    12.000000000000
         C           -0.129771405846    -1.413776893448     0.646926759224    12.000000000000
         C           -0.504118405846     1.422554106552     0.579520759224    12.000000000000
         C            0.825102594154     0.835254106552     0.141749759224    12.000000000000
         C            2.146245594154    -1.156586893448    -0.324684240776    12.000000000000
         H           -2.715553405846    -0.314410893448     0.831040759224     1.007825032230
         H           -3.106500405846    -0.416953893448    -0.878389240776     1.007825032230
         H           -1.877805405846    -2.398471893448    -0.124248240776     1.007825032230
         H           -0.934353405846    -1.538378893448    -1.339689240776     1.007825032230
         H           -2.429108405846     1.844961106552    -0.288064240776     1.007825032230
         H           -1.270246405846     1.171197106552    -1.422553240776     1.007825032230
         H           -0.470076405846    -1.127867893448     1.650515759224     1.007825032230
         H            0.316375594154    -2.407953893448     0.746250759224     1.007825032230
         H           -0.767513405846     1.102229106552     1.595723759224     1.007825032230
         H           -0.336683405846     2.501657106552     0.607778759224     1.007825032230
         H            1.902976594154    -1.795694893448    -1.181264240776     1.007825032230
         H            2.630650594154    -1.766635893448     0.444750759224     1.007825032230
         H            2.821803594154    -0.364757893448    -0.642858240776     1.007825032230

  Basis Set: AUG-CC-PVTZ
    Blend: AUG-CC-PVTZ
  Basis Set: (AUG-CC-PVTZ AUX)
    Blend: AUG-CC-PVTZ-JKFIT
	 Reference Energy          =    -402.1112194572895078 [Eh]
	 Singles Energy            =      -0.0000000000000000 [Eh]
	 Same-Spin Energy          =      -0.4218290345262012 [Eh]
	 Opposite-Spin Energy      =      -1.4052755419079852 [Eh]
	 Correlation Energy        =      -1.8271045764341864 [Eh]
	 Total Energy              =    -403.9383240337236884 [Eh]

	 ================> DF-SCS-MP2 Energies <==================
	-----------------------------------------------------------
	 SCS Same-Spin Scale       =       0.3333333333333333 [-]
	 SCS Opposite-Spin Scale   =       1.2000000000000000 [-]
	 SCS Same-Spin Energy      =      -0.1406096781754004 [Eh]
	 SCS Opposite-Spin Energy  =      -1.6863306502895823 [Eh]
	 SCS Correlation Energy    =      -1.8269403284649828 [Eh]
	 SCS Total Energy          =    -403.9381597857544648 [Eh]
	-----------------------------------------------------------

  Dipole Moment: [D]
     X:    -2.5780      Y:    -3.1059      Z:     0.7908     Total:     4.1132

*** Psi4 exiting successfully. Buy a developer a beer!
