                               Psi4 1.3.2 release

  ==> Input File <==

--------------------------------------------------------------------------
#psi4
#
memory 32 gb

molecule  {
0 1
  O        1.7739800     1.6003060    -0.2911220
  N        0.9870045    -0.4670302     0.2500901
  C       -2.2286800    -0.2510300    -0.1765170
  C       -1.2730330    -1.4351160    -0.3152870
  C       -1.5989250     1.1242550    -0.3956020
  C       -0.0841310    -1.3759550     0.6456410
  C       -0.4584780     1.4603760     0.5782350
  C        0.8707430     0.8730760     0.1404640
  C        2.1918860    -1.1187650    -0.3259700
  H       -2.6699130    -0.2765890     0.8297550
  H       -3.0608600    -0.3791320    -0.8796750
  H       -1.8321650    -2.3606500    -0.1255340
  H       -0.8887130    -1.5005570    -1.3409750
  H       -2.3834680     1.8827830    -0.2893500
  H       -1.2246060     1.2090190    -1.4238390
  H       -0.4244360    -1.0900460     1.6492300
  H        0.3620160    -2.3701320     0.7449650
  H       -0.7218730     1.1400510     1.5944380
  H       -0.2910430     2.5394790     0.6064930
  H        1.9486170    -1.7578730    -1.1825500
  H        2.6762910    -1.7288140     0.4434650
  H        2.8674440    -0.3269360    -0.6441440
units angstrom
no_reorient  #important for SAPT in psi4, default
symmetry c1  #important for SAPT in psi4, default
}

set PROPERTIES_ORIGIN ["COM"]
properties('MP2/aug-cc-pvtz', properties = ['dipole'])
--------------------------------------------------------------------------

    Molecular point group: c1
  Charge       = 0
  Multiplicity = 1
  Basis Set: AUG-CC-PVTZ
    Blend: AUG-CC-PVTZ
  Basis Set: (AUG-CC-PVTZ AUX)
    Blend: AUG-CC-PVTZ-JKFIT

    Orbital Energies [Eh]
    ---------------------

    Doubly Occupied:

       1A    -20.502580     2A    -15.582790     3A    -11.336571
       4A    -11.273211     5A    -11.253883     6A    -11.234588
       7A    -11.233981     8A    -11.231586     9A    -11.231433
      10A     -1.361348    11A     -1.241207    12A     -1.096657
      13A     -1.039119    14A     -0.973425    15A     -0.918603
      16A     -0.878865    17A     -0.793048    18A     -0.723285
      19A     -0.689797    20A     -0.668826    21A     -0.633171
      22A     -0.608159    23A     -0.601602    24A     -0.593455
      25A     -0.583324    26A     -0.558074    27A     -0.540311
      28A     -0.531313    29A     -0.511127    30A     -0.506494
      31A     -0.479274    32A     -0.466390    33A     -0.465524
      34A     -0.405386    35A     -0.368366

  @DF-RHF Final Energy:  -402.11106830511170

   => Energetics <=

    Nuclear Repulsion Energy =            486.3417415232149779
    One-Electron Energy =               -1510.6720749366343171
    Two-Electron Energy =                 622.2192651083075816
    Total Energy =                       -402.1110683051117576
  Basis Set: (AUG-CC-PVTZ AUX)
    Blend: AUG-CC-PVTZ-RI
    Molecular point group: c1

    Geometry (in Angstrom), charge = 0, multiplicity = 1:

       Center              X                  Y                   Z               Mass
    ------------   -----------------  -----------------  -----------------  -----------------
         O            1.730380560340     1.558446602604    -0.296151649214    15.994914619570
         N            0.943405060340    -0.508889597396     0.245060450786    14.003074004430
         C           -2.272279439660    -0.292889397396    -0.181546649214    12.000000000000
         C           -1.316632439660    -1.476975397396    -0.320316649214    12.000000000000
         C           -1.642524439660     1.082395602604    -0.400631649214    12.000000000000
         C           -0.127730439660    -1.417814397396     0.640611350786    12.000000000000
         C           -0.502077439660     1.418516602604     0.573205350786    12.000000000000
         C            0.827143560340     0.831216602604     0.135434350786    12.000000000000
         C            2.148286560340    -1.160624397396    -0.330999649214    12.000000000000
         H           -2.713512439660    -0.318448397396     0.824725350786     1.007825032230
         H           -3.104459439660    -0.420991397396    -0.884704649214     1.007825032230
         H           -1.875764439660    -2.402509397396    -0.130563649214     1.007825032230
         H           -0.932312439660    -1.542416397396    -1.346004649214     1.007825032230
         H           -2.427067439660     1.840923602604    -0.294379649214     1.007825032230
         H           -1.268205439660     1.167159602604    -1.428868649214     1.007825032230
         H           -0.468035439660    -1.131905397396     1.644200350786     1.007825032230
         H            0.318416560340    -2.411991397396     0.739935350786     1.007825032230
         H           -0.765472439660     1.098191602604     1.589408350786     1.007825032230
         H           -0.334642439660     2.497619602604     0.601463350786     1.007825032230
         H            1.905017560340    -1.799732397396    -1.187579649214     1.007825032230
         H            2.632691560340    -1.770673397396     0.438435350786     1.007825032230
         H            2.823844560340    -0.368795397396    -0.649173649214     1.007825032230

  Basis Set: AUG-CC-PVTZ
    Blend: AUG-CC-PVTZ
  Basis Set: (AUG-CC-PVTZ AUX)
    Blend: AUG-CC-PVTZ-JKFIT
	 Reference Energy          =    -402.1110683051117007 [Eh]
	 Singles Energy            =      -0.0000000000000000 [Eh]
	 Same-Spin Energy          =      -0.4216148903366573 [Eh]
	 Opposite-Spin Energy      =      -1.4051139418559231 [Eh]
	 Correlation Energy        =      -1.8267288321925803 [Eh]
	 Total Energy              =    -403.9377971373043010 [Eh]

	 ================> DF-SCS-MP2 Energies <==================
	-----------------------------------------------------------
	 SCS Same-Spin Scale       =       0.3333333333333333 [-]
	 SCS Opposite-Spin Scale   =       1.2000000000000000 [-]
	 SCS Same-Spin Energy      =      -0.1405382967788857 [Eh]
	 SCS Opposite-Spin Energy  =      -1.6861367302271077 [Eh]
	 SCS Correlation Energy    =      -1.8266750270059935 [Eh]
	 SCS Total Energy          =    -403.9377433321176909 [Eh]
	-----------------------------------------------------------

  Dipole Moment: [D]
     X:    -2.5696      Y:    -3.2469      Z:     0.7365     Total:     4.2057

*** Psi4 exiting successfully. Buy a developer a beer!
