                               Psi4 1.3.2 release

  ==> Input File <==

--------------------------------------------------------------------------
#psi4
#
memory 32 gb

molecule  {
0 1
  O        1.7739800     1.6003060    -0.2911220
  N        0.9906540    -0.4920130     0.2058460
  C       -2.2131919    -0.2410921    -0.1572169
  C       -1.2730330    -1.4351160    -0.3152870
  C       -1.5989250     1.1242550    -0.3956020
  C       -0.0841310    -1.3759550     0.6456410
  C       -0.4584780     1.4603760     0.5782350
  C        0.8707430     0.8730760     0.1404640
  C        2.1918860    -1.1187650    -0.3259700
  H       -2.6699130    -0.2765890     0.8297550
  H       -3.0608600    -0.3791320    -0.8796750
  H       -1.8321650    -2.3606500    -0.1255340
  H       -0.8887130    -1.5005570    -1.3409750
  H       -2.3834680     1.8827830    -0.2893500
  H       -1.2246060     1.2090190    -1.4238390
  H       -0.4244360    -1.0900460     1.6492300
  H        0.3620160    -2.3701320     0.7449650
  H       -0.7218730     1.1400510     1.5944380
  H       -0.2910430     2.5394790     0.6064930
  H        1.9486170    -1.7578730    -1.1825500
  H        2.6762910    -1.7288140     0.4434650
  H        2.8674440    -0.3269360    -0.6441440
units angstrom
no_reorient  #important for SAPT in psi4, default
symmetry c1  #important for SAPT in psi4, default
}

set PROPERTIES_ORIGIN ["COM"]
properties('MP2/aug-cc-pvtz', properties = ['dipole'])
--------------------------------------------------------------------------

    Molecular point group: c1
  Charge       = 0
  Multiplicity = 1
  Basis Set: AUG-CC-PVTZ
    Blend: AUG-CC-PVTZ
  Basis Set: (AUG-CC-PVTZ AUX)
    Blend: AUG-CC-PVTZ-JKFIT

    Orbital Energies [Eh]
    ---------------------

    Doubly Occupied:

       1A    -20.505684     2A    -15.580581     3A    -11.339926
       4A    -11.271748     5A    -11.250583     6A    -11.234435
       7A    -11.233613     8A    -11.233155     9A    -11.232047
      10A     -1.361840    11A     -1.241231    12A     -1.099193
      13A     -1.038325    14A     -0.975647    15A     -0.913345
      16A     -0.878697    17A     -0.792641    18A     -0.725110
      19A     -0.690561    20A     -0.668803    21A     -0.633608
      22A     -0.607777    23A     -0.602775    24A     -0.593850
      25A     -0.583611    26A     -0.558415    27A     -0.543986
      28A     -0.527436    29A     -0.510161    30A     -0.507368
      31A     -0.483262    32A     -0.468442    33A     -0.461601
      34A     -0.407345    35A     -0.364938

  @DF-RHF Final Energy:  -402.11106367838363

   => Energetics <=

    Nuclear Repulsion Energy =            486.6122720252714657
    One-Electron Energy =               -1511.2031882724122624
    Two-Electron Energy =                 622.4798525687571100
    Total Energy =                       -402.1110636783836298
  Basis Set: (AUG-CC-PVTZ AUX)
    Blend: AUG-CC-PVTZ-RI
    Molecular point group: c1

    Geometry (in Angstrom), charge = 0, multiplicity = 1:

       Center              X                  Y                   Z               Mass
    ------------   -----------------  -----------------  -----------------  -----------------
         O            1.728516186212     1.560260778183    -0.293099303978    15.994914619570
         N            0.945190186212    -0.532058221817     0.203868696022    14.003074004430
         C           -2.258655713788    -0.281137321817    -0.159194203978    12.000000000000
         C           -1.318496813788    -1.475161221817    -0.317264303978    12.000000000000
         C           -1.644388813788     1.084209778183    -0.397579303978    12.000000000000
         C           -0.129594813788    -1.416000221817     0.643663696022    12.000000000000
         C           -0.503941813788     1.420330778183     0.576257696022    12.000000000000
         C            0.825279186212     0.833030778183     0.138486696022    12.000000000000
         C            2.146422186212    -1.158810221817    -0.327947303978    12.000000000000
         H           -2.715376813788    -0.316634221817     0.827777696022     1.007825032230
         H           -3.106323813788    -0.419177221817    -0.881652303978     1.007825032230
         H           -1.877628813788    -2.400695221817    -0.127511303978     1.007825032230
         H           -0.934176813788    -1.540602221817    -1.342952303978     1.007825032230
         H           -2.428931813788     1.842737778183    -0.291327303978     1.007825032230
         H           -1.270069813788     1.168973778183    -1.425816303978     1.007825032230
         H           -0.469899813788    -1.130091221817     1.647252696022     1.007825032230
         H            0.316552186212    -2.410177221817     0.742987696022     1.007825032230
         H           -0.767336813788     1.100005778183     1.592460696022     1.007825032230
         H           -0.336506813788     2.499433778183     0.604515696022     1.007825032230
         H            1.903153186212    -1.797918221817    -1.184527303978     1.007825032230
         H            2.630827186212    -1.768859221817     0.441487696022     1.007825032230
         H            2.821980186212    -0.366981221817    -0.646121303978     1.007825032230

  Basis Set: AUG-CC-PVTZ
    Blend: AUG-CC-PVTZ
  Basis Set: (AUG-CC-PVTZ AUX)
    Blend: AUG-CC-PVTZ-JKFIT
	 Reference Energy          =    -402.1110636783836298 [Eh]
	 Singles Energy            =      -0.0000000000000000 [Eh]
	 Same-Spin Energy          =      -0.4219065065875134 [Eh]
	 Opposite-Spin Energy      =      -1.4053757485519216 [Eh]
	 Correlation Energy        =      -1.8272822551394350 [Eh]
	 Total Energy              =    -403.9383459335230668 [Eh]

	 ================> DF-SCS-MP2 Energies <==================
	-----------------------------------------------------------
	 SCS Same-Spin Scale       =       0.3333333333333333 [-]
	 SCS Opposite-Spin Scale   =       1.2000000000000000 [-]
	 SCS Same-Spin Energy      =      -0.1406355021958378 [Eh]
	 SCS Opposite-Spin Energy  =      -1.6864508982623059 [Eh]
	 SCS Correlation Energy    =      -1.8270864004581437 [Eh]
	 SCS Total Energy          =    -403.9381500788417725 [Eh]
	-----------------------------------------------------------

  Dipole Moment: [D]
     X:    -2.5760      Y:    -3.1015      Z:     0.8022     Total:     4.1108

*** Psi4 exiting successfully. Buy a developer a beer!
