                               Psi4 1.3.2 release

  ==> Input File <==

--------------------------------------------------------------------------
#psi4
#
memory 32 gb

molecule  {
0 1
  O        1.7739800     1.6003060    -0.2911220
  N        0.9906540    -0.4920130     0.2058460
  C       -2.2286800    -0.2510300    -0.1765170
  C       -1.2674534    -1.4273935    -0.3401942
  C       -1.5989250     1.1242550    -0.3956020
  C       -0.0841310    -1.3759550     0.6456410
  C       -0.4584780     1.4603760     0.5782350
  C        0.8707430     0.8730760     0.1404640
  C        2.1918860    -1.1187650    -0.3259700
  H       -2.6699130    -0.2765890     0.8297550
  H       -3.0608600    -0.3791320    -0.8796750
  H       -1.8321650    -2.3606500    -0.1255340
  H       -0.8887130    -1.5005570    -1.3409750
  H       -2.3834680     1.8827830    -0.2893500
  H       -1.2246060     1.2090190    -1.4238390
  H       -0.4244360    -1.0900460     1.6492300
  H        0.3620160    -2.3701320     0.7449650
  H       -0.7218730     1.1400510     1.5944380
  H       -0.2910430     2.5394790     0.6064930
  H        1.9486170    -1.7578730    -1.1825500
  H        2.6762910    -1.7288140     0.4434650
  H        2.8674440    -0.3269360    -0.6441440
units angstrom
no_reorient  #important for SAPT in psi4, default
symmetry c1  #important for SAPT in psi4, default
}

set PROPERTIES_ORIGIN ["COM"]
properties('MP2/aug-cc-pvtz', properties = ['dipole'])
--------------------------------------------------------------------------

    Molecular point group: c1
  Charge       = 0
  Multiplicity = 1
  Basis Set: AUG-CC-PVTZ
    Blend: AUG-CC-PVTZ
  Basis Set: (AUG-CC-PVTZ AUX)
    Blend: AUG-CC-PVTZ-JKFIT

    Orbital Energies [Eh]
    ---------------------

    Doubly Occupied:

       1A    -20.505530     2A    -15.580168     3A    -11.339747
       4A    -11.272564     5A    -11.250524     6A    -11.234380
       7A    -11.233397     8A    -11.233013     9A    -11.231530
      10A     -1.361687    11A     -1.240933    12A     -1.097308
      13A     -1.037033    14A     -0.975214    15A     -0.913504
      16A     -0.878342    17A     -0.793749    18A     -0.725171
      19A     -0.690227    20A     -0.667863    21A     -0.633375
      22A     -0.608850    23A     -0.602148    24A     -0.594058
      25A     -0.582199    26A     -0.557364    27A     -0.543904
      28A     -0.526943    29A     -0.512279    30A     -0.508474
      31A     -0.483279    32A     -0.466009    33A     -0.463719
      34A     -0.407280    35A     -0.364241

  @DF-RHF Final Energy:  -402.11132789603590

   => Energetics <=

    Nuclear Repulsion Energy =            486.2936185350971527
    One-Electron Energy =               -1510.5778814924924518
    Two-Electron Energy =                 622.1729350613593397
    Total Energy =                       -402.1113278960358457
  Basis Set: (AUG-CC-PVTZ AUX)
    Blend: AUG-CC-PVTZ-RI
    Molecular point group: c1

    Geometry (in Angstrom), charge = 0, multiplicity = 1:

       Center              X                  Y                   Z               Mass
    ------------   -----------------  -----------------  -----------------  -----------------
         O            1.729451687923     1.560469943091    -0.288925513313    15.994914619570
         N            0.946125687923    -0.531849056909     0.208042486687    14.003074004430
         C           -2.273208312077    -0.290866056909    -0.174320513313    12.000000000000
         C           -1.311981712077    -1.467229556909    -0.337997713313    12.000000000000
         C           -1.643453312077     1.084418943091    -0.393405513313    12.000000000000
         C           -0.128659312077    -1.415791056909     0.647837486687    12.000000000000
         C           -0.503006312077     1.420539943091     0.580431486687    12.000000000000
         C            0.826214687923     0.833239943091     0.142660486687    12.000000000000
         C            2.147357687923    -1.158601056909    -0.323773513313    12.000000000000
         H           -2.714441312077    -0.316425056909     0.831951486687     1.007825032230
         H           -3.105388312077    -0.418968056909    -0.877478513313     1.007825032230
         H           -1.876693312077    -2.400486056909    -0.123337513313     1.007825032230
         H           -0.933241312077    -1.540393056909    -1.338778513313     1.007825032230
         H           -2.427996312077     1.842946943091    -0.287153513313     1.007825032230
         H           -1.269134312077     1.169182943091    -1.421642513313     1.007825032230
         H           -0.468964312077    -1.129882056909     1.651426486687     1.007825032230
         H            0.317487687923    -2.409968056909     0.747161486687     1.007825032230
         H           -0.766401312077     1.100214943091     1.596634486687     1.007825032230
         H           -0.335571312077     2.499642943091     0.608689486687     1.007825032230
         H            1.904088687923    -1.797709056909    -1.180353513313     1.007825032230
         H            2.631762687923    -1.768650056909     0.445661486687     1.007825032230
         H            2.822915687923    -0.366772056909    -0.641947513313     1.007825032230

  Basis Set: AUG-CC-PVTZ
    Blend: AUG-CC-PVTZ
  Basis Set: (AUG-CC-PVTZ AUX)
    Blend: AUG-CC-PVTZ-JKFIT
	 Reference Energy          =    -402.1113278960359025 [Eh]
	 Singles Energy            =      -0.0000000000000000 [Eh]
	 Same-Spin Energy          =      -0.4217401341833714 [Eh]
	 Opposite-Spin Energy      =      -1.4052160577064237 [Eh]
	 Correlation Energy        =      -1.8269561918897952 [Eh]
	 Total Energy              =    -403.9382840879256946 [Eh]

	 ================> DF-SCS-MP2 Energies <==================
	-----------------------------------------------------------
	 SCS Same-Spin Scale       =       0.3333333333333333 [-]
	 SCS Opposite-Spin Scale   =       1.2000000000000000 [-]
	 SCS Same-Spin Energy      =      -0.1405800447277905 [Eh]
	 SCS Opposite-Spin Energy  =      -1.6862592692477083 [Eh]
	 SCS Correlation Energy    =      -1.8268393139754988 [Eh]
	 SCS Total Energy          =    -403.9381672100113860 [Eh]
	-----------------------------------------------------------

  Dipole Moment: [D]
     X:    -2.5746      Y:    -3.1035      Z:     0.7898     Total:     4.1090

*** Psi4 exiting successfully. Buy a developer a beer!
