                               Psi4 1.3.2 release

  ==> Input File <==

--------------------------------------------------------------------------
#psi4
#
memory 32 gb

molecule  {
0 1
  O        1.7739800     1.6003060    -0.2911220
  N        0.9906540    -0.4920130     0.2058460
  C       -2.2286800    -0.2510300    -0.1765170
  C       -1.2621666    -1.4193128    -0.3650515
  C       -1.5989250     1.1242550    -0.3956020
  C       -0.0841310    -1.3759550     0.6456410
  C       -0.4584780     1.4603760     0.5782350
  C        0.8707430     0.8730760     0.1404640
  C        2.1918860    -1.1187650    -0.3259700
  H       -2.6699130    -0.2765890     0.8297550
  H       -3.0608600    -0.3791320    -0.8796750
  H       -1.8321650    -2.3606500    -0.1255340
  H       -0.8887130    -1.5005570    -1.3409750
  H       -2.3834680     1.8827830    -0.2893500
  H       -1.2246060     1.2090190    -1.4238390
  H       -0.4244360    -1.0900460     1.6492300
  H        0.3620160    -2.3701320     0.7449650
  H       -0.7218730     1.1400510     1.5944380
  H       -0.2910430     2.5394790     0.6064930
  H        1.9486170    -1.7578730    -1.1825500
  H        2.6762910    -1.7288140     0.4434650
  H        2.8674440    -0.3269360    -0.6441440
units angstrom
no_reorient  #important for SAPT in psi4, default
symmetry c1  #important for SAPT in psi4, default
}

set PROPERTIES_ORIGIN ["COM"]
properties('MP2/aug-cc-pvtz', properties = ['dipole'])
--------------------------------------------------------------------------

    Molecular point group: c1
  Charge       = 0
  Multiplicity = 1
  Basis Set: AUG-CC-PVTZ
    Blend: AUG-CC-PVTZ
  Basis Set: (AUG-CC-PVTZ AUX)
    Blend: AUG-CC-PVTZ-JKFIT

    Orbital Energies [Eh]
    ---------------------

    Doubly Occupied:

       1A    -20.505364     2A    -15.579782     3A    -11.339574
       4A    -11.273006     5A    -11.250465     6A    -11.234135
       7A    -11.233301     8A    -11.232843     9A    -11.231662
      10A     -1.361539    11A     -1.240683    12A     -1.097136
      13A     -1.035995    14A     -0.974827    15A     -0.913120
      16A     -0.878695    17A     -0.795263    18A     -0.725065
      19A     -0.689818    20A     -0.666960    21A     -0.633648
      22A     -0.609805    23A     -0.602279    24A     -0.593808
      25A     -0.581231    26A     -0.556440    27A     -0.543388
      28A     -0.527598    29A     -0.514400    30A     -0.507758
      31A     -0.486485    32A     -0.464599    33A     -0.461732
      34A     -0.407123    35A     -0.363304

  @DF-RHF Final Energy:  -402.10890047603647

   => Energetics <=

    Nuclear Repulsion Energy =            486.2827246807371466
    One-Electron Energy =               -1510.5575873018365201
    Two-Electron Energy =                 622.1659621450628492
    Total Energy =                       -402.1089004760365242
  Basis Set: (AUG-CC-PVTZ AUX)
    Blend: AUG-CC-PVTZ-RI
    Molecular point group: c1

    Geometry (in Angstrom), charge = 0, multiplicity = 1:

       Center              X                  Y                   Z               Mass
    ------------   -----------------  -----------------  -----------------  -----------------
         O            1.728952539672     1.559707011398    -0.286578634705    15.994914619570
         N            0.945626539672    -0.532611988602     0.210389365295    14.003074004430
         C           -2.273707460328    -0.291628988602    -0.171973634705    12.000000000000
         C           -1.307194060328    -1.459911788602    -0.360508134705    12.000000000000
         C           -1.643952460328     1.083656011398    -0.391058634705    12.000000000000
         C           -0.129158460328    -1.416553988602     0.650184365295    12.000000000000
         C           -0.503505460328     1.419777011398     0.582778365295    12.000000000000
         C            0.825715539672     0.832477011398     0.145007365295    12.000000000000
         C            2.146858539672    -1.159363988602    -0.321426634705    12.000000000000
         H           -2.714940460328    -0.317187988602     0.834298365295     1.007825032230
         H           -3.105887460328    -0.419730988602    -0.875131634705     1.007825032230
         H           -1.877192460328    -2.401248988602    -0.120990634705     1.007825032230
         H           -0.933740460328    -1.541155988602    -1.336431634705     1.007825032230
         H           -2.428495460328     1.842184011398    -0.284806634705     1.007825032230
         H           -1.269633460328     1.168420011398    -1.419295634705     1.007825032230
         H           -0.469463460328    -1.130644988602     1.653773365295     1.007825032230
         H            0.316988539672    -2.410730988602     0.749508365295     1.007825032230
         H           -0.766900460328     1.099452011398     1.598981365295     1.007825032230
         H           -0.336070460328     2.498880011398     0.611036365295     1.007825032230
         H            1.903589539672    -1.798471988602    -1.178006634705     1.007825032230
         H            2.631263539672    -1.769412988602     0.448008365295     1.007825032230
         H            2.822416539672    -0.367534988602    -0.639600634705     1.007825032230

  Basis Set: AUG-CC-PVTZ
    Blend: AUG-CC-PVTZ
  Basis Set: (AUG-CC-PVTZ AUX)
    Blend: AUG-CC-PVTZ-JKFIT
	 Reference Energy          =    -402.1089004760364674 [Eh]
	 Singles Energy            =      -0.0000000000000000 [Eh]
	 Same-Spin Energy          =      -0.4217308764744345 [Eh]
	 Opposite-Spin Energy      =      -1.4053134777204925 [Eh]
	 Correlation Energy        =      -1.8270443541949271 [Eh]
	 Total Energy              =    -403.9359448302313922 [Eh]

	 ================> DF-SCS-MP2 Energies <==================
	-----------------------------------------------------------
	 SCS Same-Spin Scale       =       0.3333333333333333 [-]
	 SCS Opposite-Spin Scale   =       1.2000000000000000 [-]
	 SCS Same-Spin Energy      =      -0.1405769588248115 [Eh]
	 SCS Opposite-Spin Energy  =      -1.6863761732645910 [Eh]
	 SCS Correlation Energy    =      -1.8269531320894026 [Eh]
	 SCS Total Energy          =    -403.9358536081258535 [Eh]
	-----------------------------------------------------------

  Dipole Moment: [D]
     X:    -2.5692      Y:    -3.1010      Z:     0.7882     Total:     4.1034

*** Psi4 exiting successfully. Buy a developer a beer!
