                               Psi4 1.4a3.dev225

  ==> Input File <==

--------------------------------------------------------------------------
#psi4
#
memory 32 gb

molecule  {
0 1
  O        1.7739800     1.6003060    -0.2911220
  N        0.9906540    -0.4920130     0.2058460
  C       -2.2286800    -0.2510300    -0.1765170
  C       -1.2730330    -1.4351160    -0.3152870
  C       -1.5989250     1.1242550    -0.3956020
  C       -0.0841310    -1.3759550     0.6456410
  C       -0.4584780     1.4603760     0.5782350
  C        0.8269522     0.8924244     0.1548862
  C        2.1918860    -1.1187650    -0.3259700
  H       -2.6699130    -0.2765890     0.8297550
  H       -3.0608600    -0.3791320    -0.8796750
  H       -1.8321650    -2.3606500    -0.1255340
  H       -0.8887130    -1.5005570    -1.3409750
  H       -2.3834680     1.8827830    -0.2893500
  H       -1.2246060     1.2090190    -1.4238390
  H       -0.4244360    -1.0900460     1.6492300
  H        0.3620160    -2.3701320     0.7449650
  H       -0.7218730     1.1400510     1.5944380
  H       -0.2910430     2.5394790     0.6064930
  H        1.9486170    -1.7578730    -1.1825500
  H        2.6762910    -1.7288140     0.4434650
  H        2.8674440    -0.3269360    -0.6441440
units angstrom
no_reorient  #important for SAPT in psi4, default
symmetry c1  #important for SAPT in psi4, default
}

set PROPERTIES_ORIGIN ["COM"]
properties('MP2/aug-cc-pvtz', properties = ['dipole'])
--------------------------------------------------------------------------

    Molecular point group: c1
  Charge       = 0
  Multiplicity = 1
  Basis Set: AUG-CC-PVTZ
    Blend: AUG-CC-PVTZ
  Basis Set: (AUG-CC-PVTZ AUX)
    Blend: AUG-CC-PVTZ-JKFIT

    Orbital Energies [Eh]
    ---------------------

    Doubly Occupied:

       1A    -20.504799     2A    -15.579559     3A    -11.344039
       4A    -11.270011     5A    -11.249796     6A    -11.238038
       7A    -11.235770     8A    -11.233301     9A    -11.232681
      10A     -1.347614    11A     -1.232824    12A     -1.101021
      13A     -1.043519    14A     -0.977753    15A     -0.910135
      16A     -0.882352    17A     -0.794059    18A     -0.724370
      19A     -0.693616    20A     -0.668521    21A     -0.630600
      22A     -0.609781    23A     -0.599086    24A     -0.593512
      25A     -0.585480    26A     -0.557827    27A     -0.547033
      28A     -0.524615    29A     -0.507661    30A     -0.504773
      31A     -0.480618    32A     -0.469072    33A     -0.463066
      34A     -0.410805    35A     -0.360766

  @DF-RHF Final Energy:  -402.10547082242454

   => Energetics <=

    Nuclear Repulsion Energy =            486.1676027374426781
    One-Electron Energy =               -1510.3291961192899180
    Two-Electron Energy =                 622.0561225594227608
    Total Energy =                       -402.1054708224245360
  Basis Set: (AUG-CC-PVTZ AUX)
    Blend: AUG-CC-PVTZ-RI
    Molecular point group: c1

    Geometry (in Angstrom), charge = 0, multiplicity = 1:

       Center              X                  Y                   Z               Mass
    ------------   -----------------  -----------------  -----------------  -----------------
         O            1.734112947820     1.559372294673    -0.292638761636    15.994914619570
         N            0.950786947820    -0.532946705327     0.204329238364    14.003074004430
         C           -2.268547052180    -0.291963705327    -0.178033761636    12.000000000000
         C           -1.312900052180    -1.476049705327    -0.316803761636    12.000000000000
         C           -1.638792052180     1.083321294673    -0.397118761636    12.000000000000
         C           -0.123998052180    -1.416888705327     0.644124238364    12.000000000000
         C           -0.498345052180     1.419442294673     0.576718238364    12.000000000000
         C            0.787085147820     0.851490694673     0.153369438364    12.000000000000
         C            2.152018947820    -1.159698705327    -0.327486761636    12.000000000000
         H           -2.709780052180    -0.317522705327     0.828238238364     1.007825032230
         H           -3.100727052180    -0.420065705327    -0.881191761636     1.007825032230
         H           -1.872032052180    -2.401583705327    -0.127050761636     1.007825032230
         H           -0.928580052180    -1.541490705327    -1.342491761636     1.007825032230
         H           -2.423335052180     1.841849294673    -0.290866761636     1.007825032230
         H           -1.264473052180     1.168085294673    -1.425355761636     1.007825032230
         H           -0.464303052180    -1.130979705327     1.647713238364     1.007825032230
         H            0.322148947820    -2.411065705327     0.743448238364     1.007825032230
         H           -0.761740052180     1.099117294673     1.592921238364     1.007825032230
         H           -0.330910052180     2.498545294673     0.604976238364     1.007825032230
         H            1.908749947820    -1.798806705327    -1.184066761636     1.007825032230
         H            2.636423947820    -1.769747705327     0.441948238364     1.007825032230
         H            2.827576947820    -0.367869705327    -0.645660761636     1.007825032230

  Basis Set: AUG-CC-PVTZ
    Blend: AUG-CC-PVTZ
  Basis Set: (AUG-CC-PVTZ AUX)
    Blend: AUG-CC-PVTZ-JKFIT
	 Reference Energy          =    -402.1054708224245360 [Eh]
	 Singles Energy            =      -0.0000000000000000 [Eh]
	 Same-Spin Energy          =      -0.4228484524561407 [Eh]
	 Opposite-Spin Energy      =      -1.4071194729806331 [Eh]
	 Correlation Energy        =      -1.8299679254367738 [Eh]
	 Total Energy              =    -403.9354387478613262 [Eh]

	 ================> DF-SCS-MP2 Energies <==================
	-----------------------------------------------------------
	 SCS Same-Spin Scale       =       0.3333333333333333 [-]
	 SCS Opposite-Spin Scale   =       1.2000000000000000 [-]
	 SCS Same-Spin Energy      =      -0.1409494841520469 [Eh]
	 SCS Opposite-Spin Energy  =      -1.6885433675767596 [Eh]
	 SCS Correlation Energy    =      -1.8294928517288065 [Eh]
	 SCS Total Energy          =    -403.9349636741533232 [Eh]
	-----------------------------------------------------------

  Dipole Moment: [D]
     X:    -2.7631      Y:    -3.0013      Z:     0.8332     Total:     4.1638

*** Psi4 exiting successfully. Buy a developer a beer!
