                               Psi4 1.3.2 release

  ==> Input File <==

--------------------------------------------------------------------------
#psi4
#
memory 32 gb

molecule  {
0 1
  O        1.7739800     1.6003060    -0.2911220
  N        0.9906540    -0.4920130     0.2058460
  C       -2.2286800    -0.2510300    -0.1765170
  C       -1.2730330    -1.4351160    -0.3152870
  C       -1.5989250     1.1242550    -0.3956020
  C       -0.0841310    -1.3759550     0.6456410
  C       -0.4584780     1.4603760     0.5782350
  C        0.8707430     0.8730760     0.1404640
  C        2.1918860    -1.1187650    -0.3259700
  H       -2.6699130    -0.2765890     0.8297550
  H       -3.0608600    -0.3791320    -0.8796750
  H       -1.8321650    -2.3606500    -0.1255340
  H       -0.8887130    -1.5005570    -1.3409750
  H       -2.3834680     1.8827830    -0.2893500
  H       -1.2246060     1.2090190    -1.4238390
  H       -0.4244360    -1.0900460     1.6492300
  H        0.3620160    -2.3701320     0.7449650
  H       -0.7202056     1.1581778     1.6004035
  H       -0.2910430     2.5394790     0.6064930
  H        1.9486170    -1.7578730    -1.1825500
  H        2.6762910    -1.7288140     0.4434650
  H        2.8674440    -0.3269360    -0.6441440
units angstrom
no_reorient  #important for SAPT in psi4, default
symmetry c1  #important for SAPT in psi4, default
}

set PROPERTIES_ORIGIN ["COM"]
properties('MP2/aug-cc-pvtz', properties = ['dipole'])
--------------------------------------------------------------------------

    Molecular point group: c1
  Charge       = 0
  Multiplicity = 1
  Basis Set: AUG-CC-PVTZ
    Blend: AUG-CC-PVTZ
  Basis Set: (AUG-CC-PVTZ AUX)
    Blend: AUG-CC-PVTZ-JKFIT

    Orbital Energies [Eh]
    ---------------------

    Doubly Occupied:

       1A    -20.505765     2A    -15.580575     3A    -11.340059
       4A    -11.272142     5A    -11.250573     6A    -11.234737
       7A    -11.233444     8A    -11.233333     9A    -11.231432
      10A     -1.361877    11A     -1.241169    12A     -1.097435
      13A     -1.038066    14A     -0.975565    15A     -0.913954
      16A     -0.878205    17A     -0.792487    18A     -0.725449
      19A     -0.690731    20A     -0.668585    21A     -0.633229
      22A     -0.608410    23A     -0.601590    24A     -0.594375
      25A     -0.583103    26A     -0.557942    27A     -0.544417
      28A     -0.527106    29A     -0.509844    30A     -0.508896
      31A     -0.479294    32A     -0.467571    33A     -0.465267
      34A     -0.407547    35A     -0.365075

  @DF-RHF Final Energy:  -402.11201869217456

   => Energetics <=

    Nuclear Repulsion Energy =            486.2621366507015068
    One-Electron Energy =               -1510.5098053988651827
    Two-Electron Energy =                 622.1356500559892311
    Total Energy =                       -402.1120186921745017
  Basis Set: (AUG-CC-PVTZ AUX)
    Blend: AUG-CC-PVTZ-RI
    Molecular point group: c1

    Geometry (in Angstrom), charge = 0, multiplicity = 1:

       Center              X                  Y                   Z               Mass
    ------------   -----------------  -----------------  -----------------  -----------------
         O            1.729965259122     1.561055320940    -0.291324406045    15.994914619570
         N            0.946639259122    -0.531263679060     0.205643593955    14.003074004430
         C           -2.272694740878    -0.290280679060    -0.176719406045    12.000000000000
         C           -1.317047740878    -1.474366679060    -0.315489406045    12.000000000000
         C           -1.642939740878     1.085004320940    -0.395804406045    12.000000000000
         C           -0.128145740878    -1.415205679060     0.645438593955    12.000000000000
         C           -0.502492740878     1.421125320940     0.578032593955    12.000000000000
         C            0.826728259122     0.833825320940     0.140261593955    12.000000000000
         C            2.147871259122    -1.158015679060    -0.326172406045    12.000000000000
         H           -2.713927740878    -0.315839679060     0.829552593955     1.007825032230
         H           -3.104874740878    -0.418382679060    -0.879877406045     1.007825032230
         H           -1.876179740878    -2.399900679060    -0.125736406045     1.007825032230
         H           -0.932727740878    -1.539807679060    -1.341177406045     1.007825032230
         H           -2.427482740878     1.843532320940    -0.289552406045     1.007825032230
         H           -1.268620740878     1.169768320940    -1.424041406045     1.007825032230
         H           -0.468450740878    -1.129296679060     1.649027593955     1.007825032230
         H            0.318001259122    -2.409382679060     0.744762593955     1.007825032230
         H           -0.764220340878     1.118927120940     1.600201093955     1.007825032230
         H           -0.335057740878     2.500228320940     0.606290593955     1.007825032230
         H            1.904602259122    -1.797123679060    -1.182752406045     1.007825032230
         H            2.632276259122    -1.768064679060     0.443262593955     1.007825032230
         H            2.823429259122    -0.366186679060    -0.644346406045     1.007825032230

  Basis Set: AUG-CC-PVTZ
    Blend: AUG-CC-PVTZ
  Basis Set: (AUG-CC-PVTZ AUX)
    Blend: AUG-CC-PVTZ-JKFIT
	 Reference Energy          =    -402.1120186921745585 [Eh]
	 Singles Energy            =      -0.0000000000000000 [Eh]
	 Same-Spin Energy          =      -0.4217652049829244 [Eh]
	 Opposite-Spin Energy      =      -1.4051863172970096 [Eh]
	 Correlation Energy        =      -1.8269515222799340 [Eh]
	 Total Energy              =    -403.9389702144545140 [Eh]

	 ================> DF-SCS-MP2 Energies <==================
	-----------------------------------------------------------
	 SCS Same-Spin Scale       =       0.3333333333333333 [-]
	 SCS Opposite-Spin Scale   =       1.2000000000000000 [-]
	 SCS Same-Spin Energy      =      -0.1405884016609748 [Eh]
	 SCS Opposite-Spin Energy  =      -1.6862235807564114 [Eh]
	 SCS Correlation Energy    =      -1.8268119824173863 [Eh]
	 SCS Total Energy          =    -403.9388306745919408 [Eh]
	-----------------------------------------------------------

  Dipole Moment: [D]
     X:    -2.5783      Y:    -3.0976      Z:     0.7982     Total:     4.1085

*** Psi4 exiting successfully. Buy a developer a beer!
