                               Psi4 1.3.2 release

  ==> Input File <==

--------------------------------------------------------------------------
#psi4
#
memory 32 gb

molecule  {
0 1
  O        1.7739800     1.6003060    -0.2911220
  N        0.9906540    -0.4920130     0.2058460
  C       -2.2286800    -0.2510300    -0.1765170
  C       -1.2730330    -1.4351160    -0.3152870
  C       -1.5989250     1.1242550    -0.3956020
  C       -0.0841310    -1.3759550     0.6456410
  C       -0.4584780     1.4603760     0.5782350
  C        0.8620025     0.9725792     0.1356982
  C        2.1918860    -1.1187650    -0.3259700
  H       -2.6699130    -0.2765890     0.8297550
  H       -3.0608600    -0.3791320    -0.8796750
  H       -1.8321650    -2.3606500    -0.1255340
  H       -0.8887130    -1.5005570    -1.3409750
  H       -2.3834680     1.8827830    -0.2893500
  H       -1.2246060     1.2090190    -1.4238390
  H       -0.4244360    -1.0900460     1.6492300
  H        0.3620160    -2.3701320     0.7449650
  H       -0.7218730     1.1400510     1.5944380
  H       -0.2910430     2.5394790     0.6064930
  H        1.9486170    -1.7578730    -1.1825500
  H        2.6762910    -1.7288140     0.4434650
  H        2.8674440    -0.3269360    -0.6441440
units angstrom
no_reorient  #important for SAPT in psi4, default
symmetry c1  #important for SAPT in psi4, default
}

set PROPERTIES_ORIGIN ["COM"]
properties('MP2/aug-cc-pvtz', properties = ['dipole'])
--------------------------------------------------------------------------

    Molecular point group: c1
  Charge       = 0
  Multiplicity = 1
  Basis Set: AUG-CC-PVTZ
    Blend: AUG-CC-PVTZ
  Basis Set: (AUG-CC-PVTZ AUX)
    Blend: AUG-CC-PVTZ-JKFIT

    Orbital Energies [Eh]
    ---------------------

    Doubly Occupied:

       1A    -20.525706     2A    -15.561435     3A    -11.346092
       4A    -11.262286     5A    -11.241859     6A    -11.238251
       7A    -11.236558     8A    -11.230607     9A    -11.227408
      10A     -1.400219    11A     -1.217524    12A     -1.097401
      13A     -1.039820    14A     -0.970403    15A     -0.891145
      16A     -0.878658    17A     -0.789362    18A     -0.718865
      19A     -0.697066    20A     -0.667133    21A     -0.629835
      22A     -0.611788    23A     -0.603363    24A     -0.589570
      25A     -0.584899    26A     -0.559427    27A     -0.552305
      28A     -0.524658    29A     -0.511757    30A     -0.506134
      31A     -0.477876    32A     -0.471029    33A     -0.464577
      34A     -0.417706    35A     -0.352285

  @DF-RHF Final Energy:  -402.10197119834140

   => Energetics <=

    Nuclear Repulsion Energy =            485.7102570742451917
    One-Electron Energy =               -1509.4344450326643710
    Two-Electron Energy =                 621.6222167600777766
    Total Energy =                       -402.1019711983414027
  Basis Set: (AUG-CC-PVTZ AUX)
    Blend: AUG-CC-PVTZ-RI
    Molecular point group: c1

    Geometry (in Angstrom), charge = 0, multiplicity = 1:

       Center              X                  Y                   Z               Mass
    ------------   -----------------  -----------------  -----------------  -----------------
         O            1.730803706700     1.551804554594    -0.290827144657    15.994914619570
         N            0.947477706700    -0.540514445406     0.206140855343    14.003074004430
         C           -2.271856293300    -0.299531445406    -0.176222144657    12.000000000000
         C           -1.316209293300    -1.483617445406    -0.314992144657    12.000000000000
         C           -1.642101293300     1.075753554594    -0.395307144657    12.000000000000
         C           -0.127307293300    -1.424456445406     0.645935855343    12.000000000000
         C           -0.501654293300     1.411874554594     0.578529855343    12.000000000000
         C            0.818826206700     0.924077754594     0.135993055343    12.000000000000
         C            2.148709706700    -1.167266445406    -0.325675144657    12.000000000000
         H           -2.713089293300    -0.325090445406     0.830049855343     1.007825032230
         H           -3.104036293300    -0.427633445406    -0.879380144657     1.007825032230
         H           -1.875341293300    -2.409151445406    -0.125239144657     1.007825032230
         H           -0.931889293300    -1.549058445406    -1.340680144657     1.007825032230
         H           -2.426644293300     1.834281554594    -0.289055144657     1.007825032230
         H           -1.267782293300     1.160517554594    -1.423544144657     1.007825032230
         H           -0.467612293300    -1.138547445406     1.649524855343     1.007825032230
         H            0.318839706700    -2.418633445406     0.745259855343     1.007825032230
         H           -0.765049293300     1.091549554594     1.594732855343     1.007825032230
         H           -0.334219293300     2.490977554594     0.606787855343     1.007825032230
         H            1.905440706700    -1.806374445406    -1.182255144657     1.007825032230
         H            2.633114706700    -1.777315445406     0.443759855343     1.007825032230
         H            2.824267706700    -0.375437445406    -0.643849144657     1.007825032230

  Basis Set: AUG-CC-PVTZ
    Blend: AUG-CC-PVTZ
  Basis Set: (AUG-CC-PVTZ AUX)
    Blend: AUG-CC-PVTZ-JKFIT
	 Reference Energy          =    -402.1019711983414027 [Eh]
	 Singles Energy            =      -0.0000000000000000 [Eh]
	 Same-Spin Energy          =      -0.4215992631064595 [Eh]
	 Opposite-Spin Energy      =      -1.4046414106644054 [Eh]
	 Correlation Energy        =      -1.8262406737708647 [Eh]
	 Total Energy              =    -403.9282118721122856 [Eh]

	 ================> DF-SCS-MP2 Energies <==================
	-----------------------------------------------------------
	 SCS Same-Spin Scale       =       0.3333333333333333 [-]
	 SCS Opposite-Spin Scale   =       1.2000000000000000 [-]
	 SCS Same-Spin Energy      =      -0.1405330877021531 [Eh]
	 SCS Opposite-Spin Energy  =      -1.6855696927972865 [Eh]
	 SCS Correlation Energy    =      -1.8261027804994396 [Eh]
	 SCS Total Energy          =    -403.9280739788408141 [Eh]
	-----------------------------------------------------------

  Dipole Moment: [D]
     X:    -2.5387      Y:    -2.1870      Z:     0.7107     Total:     3.4254

*** Psi4 exiting successfully. Buy a developer a beer!
