                               Psi4 1.3.2 release

  ==> Input File <==

--------------------------------------------------------------------------
#psi4
#
memory 32 gb

molecule  {
0 1
  O        1.7739800     1.6003060    -0.2911220
  N        0.9906540    -0.4920130     0.2058460
  C       -2.2286800    -0.2510300    -0.1765170
  C       -1.2730330    -1.4351160    -0.3152870
  C       -1.5989250     1.1242550    -0.3956020
  C       -0.2314193    -1.4970902     0.7059104
  C       -0.4584780     1.4603760     0.5782350
  C        0.8707430     0.8730760     0.1404640
  C        2.1918860    -1.1187650    -0.3259700
  H       -2.6699130    -0.2765890     0.8297550
  H       -3.0608600    -0.3791320    -0.8796750
  H       -1.8321650    -2.3606500    -0.1255340
  H       -0.8887130    -1.5005570    -1.3409750
  H       -2.3834680     1.8827830    -0.2893500
  H       -1.2246060     1.2090190    -1.4238390
  H       -0.4244360    -1.0900460     1.6492300
  H        0.3620160    -2.3701320     0.7449650
  H       -0.7218730     1.1400510     1.5944380
  H       -0.2910430     2.5394790     0.6064930
  H        1.9486170    -1.7578730    -1.1825500
  H        2.6762910    -1.7288140     0.4434650
  H        2.8674440    -0.3269360    -0.6441440
units angstrom
no_reorient  #important for SAPT in psi4, default
symmetry c1  #important for SAPT in psi4, default
}

set PROPERTIES_ORIGIN ["COM"]
properties('MP2/aug-cc-pvtz', properties = ['dipole'])
--------------------------------------------------------------------------

    Molecular point group: c1
  Charge       = 0
  Multiplicity = 1
  Basis Set: AUG-CC-PVTZ
    Blend: AUG-CC-PVTZ
  Basis Set: (AUG-CC-PVTZ AUX)
    Blend: AUG-CC-PVTZ-JKFIT

    Orbital Energies [Eh]
    ---------------------

    Doubly Occupied:

       1A    -20.496468     2A    -15.569340     3A    -11.330768
       4A    -11.282549     5A    -11.243959     6A    -11.238261
       7A    -11.235980     8A    -11.234416     9A    -11.230516
      10A     -1.350979    11A     -1.207096    12A     -1.103807
      13A     -1.048882    14A     -0.972699    15A     -0.911732
      16A     -0.871698    17A     -0.797402    18A     -0.711379
      19A     -0.686443    20A     -0.664723    21A     -0.628588
      22A     -0.619796    23A     -0.598675    24A     -0.593013
      25A     -0.586084    26A     -0.563555    27A     -0.546668
      28A     -0.529060    29A     -0.511525    30A     -0.488640
      31A     -0.481375    32A     -0.470817    33A     -0.456946
      34A     -0.399095    35A     -0.359253

  @DF-RHF Final Energy:  -402.08264155885092

   => Energetics <=

    Nuclear Repulsion Energy =            483.6659863393003889
    One-Electron Energy =               -1505.4528787893780191
    Two-Electron Energy =                 619.7042508912267067
    Total Energy =                       -402.0826415588509235
  Basis Set: (AUG-CC-PVTZ AUX)
    Blend: AUG-CC-PVTZ-RI
    Molecular point group: c1

    Geometry (in Angstrom), charge = 0, multiplicity = 1:

       Center              X                  Y                   Z               Mass
    ------------   -----------------  -----------------  -----------------  -----------------
         O            1.743884566972     1.572635921682    -0.296967381918    15.994914619570
         N            0.960558566972    -0.519683078318     0.200000618082    14.003074004430
         C           -2.258775433028    -0.278700078318    -0.182362381918    12.000000000000
         C           -1.303128433028    -1.462786078318    -0.321132381918    12.000000000000
         C           -1.629020433028     1.096584921682    -0.401447381918    12.000000000000
         C           -0.261514733028    -1.524760278318     0.700065018082    12.000000000000
         C           -0.488573433028     1.432705921682     0.572389618082    12.000000000000
         C            0.840647566972     0.845405921682     0.134618618082    12.000000000000
         C            2.161790566972    -1.146435078318    -0.331815381918    12.000000000000
         H           -2.700008433028    -0.304259078318     0.823909618082     1.007825032230
         H           -3.090955433028    -0.406802078318    -0.885520381918     1.007825032230
         H           -1.862260433028    -2.388320078318    -0.131379381918     1.007825032230
         H           -0.918808433028    -1.528227078318    -1.346820381918     1.007825032230
         H           -2.413563433028     1.855112921682    -0.295195381918     1.007825032230
         H           -1.254701433028     1.181348921682    -1.429684381918     1.007825032230
         H           -0.454531433028    -1.117716078318     1.643384618082     1.007825032230
         H            0.331920566972    -2.397802078318     0.739119618082     1.007825032230
         H           -0.751968433028     1.112380921682     1.588592618082     1.007825032230
         H           -0.321138433028     2.511808921682     0.600647618082     1.007825032230
         H            1.918521566972    -1.785543078318    -1.188395381918     1.007825032230
         H            2.646195566972    -1.756484078318     0.437619618082     1.007825032230
         H            2.837348566972    -0.354606078318    -0.649989381918     1.007825032230

  Basis Set: AUG-CC-PVTZ
    Blend: AUG-CC-PVTZ
  Basis Set: (AUG-CC-PVTZ AUX)
    Blend: AUG-CC-PVTZ-JKFIT
	 Reference Energy          =    -402.0826415588509235 [Eh]
	 Singles Energy            =      -0.0000000000000000 [Eh]
	 Same-Spin Energy          =      -0.4224667868712592 [Eh]
	 Opposite-Spin Energy      =      -1.4076146443461948 [Eh]
	 Correlation Energy        =      -1.8300814312174540 [Eh]
	 Total Energy              =    -403.9127229900684029 [Eh]

	 ================> DF-SCS-MP2 Energies <==================
	-----------------------------------------------------------
	 SCS Same-Spin Scale       =       0.3333333333333333 [-]
	 SCS Opposite-Spin Scale   =       1.2000000000000000 [-]
	 SCS Same-Spin Energy      =      -0.1408222622904197 [Eh]
	 SCS Opposite-Spin Energy  =      -1.6891375732154337 [Eh]
	 SCS Correlation Energy    =      -1.8299598355058535 [Eh]
	 SCS Total Energy          =    -403.9126013943567841 [Eh]
	-----------------------------------------------------------

  Dipole Moment: [D]
     X:    -3.0159      Y:    -3.4660      Z:     0.8941     Total:     4.6806

*** Psi4 exiting successfully. Buy a developer a beer!
