                               Psi4 1.3.2 release

  ==> Input File <==

--------------------------------------------------------------------------
#psi4
#
memory 32 gb

molecule  {
0 1
  O        1.7739800     1.6003060    -0.2911220
  N        0.9906540    -0.4920130     0.2058460
  C       -2.2286800    -0.2510300    -0.1765170
  C       -1.2730330    -1.4351160    -0.3152870
  C       -1.5989250     1.1242550    -0.3956020
  C        0.0712986    -1.3682207     0.7712667
  C       -0.4584780     1.4603760     0.5782350
  C        0.8707430     0.8730760     0.1404640
  C        2.1918860    -1.1187650    -0.3259700
  H       -2.6699130    -0.2765890     0.8297550
  H       -3.0608600    -0.3791320    -0.8796750
  H       -1.8321650    -2.3606500    -0.1255340
  H       -0.8887130    -1.5005570    -1.3409750
  H       -2.3834680     1.8827830    -0.2893500
  H       -1.2246060     1.2090190    -1.4238390
  H       -0.4244360    -1.0900460     1.6492300
  H        0.3620160    -2.3701320     0.7449650
  H       -0.7218730     1.1400510     1.5944380
  H       -0.2910430     2.5394790     0.6064930
  H        1.9486170    -1.7578730    -1.1825500
  H        2.6762910    -1.7288140     0.4434650
  H        2.8674440    -0.3269360    -0.6441440
units angstrom
no_reorient  #important for SAPT in psi4, default
symmetry c1  #important for SAPT in psi4, default
}

set PROPERTIES_ORIGIN ["COM"]
properties('MP2/aug-cc-pvtz', properties = ['dipole'])
--------------------------------------------------------------------------

    Molecular point group: c1
  Charge       = 0
  Multiplicity = 1
  Basis Set: AUG-CC-PVTZ
    Blend: AUG-CC-PVTZ
  Basis Set: (AUG-CC-PVTZ AUX)
    Blend: AUG-CC-PVTZ-JKFIT

    Orbital Energies [Eh]
    ---------------------

    Doubly Occupied:

       1A    -20.509896     2A    -15.583965     3A    -11.344588
       4A    -11.269621     5A    -11.252606     6A    -11.235033
       7A    -11.233305     8A    -11.233219     9A    -11.229142
      10A     -1.366917    11A     -1.256760    12A     -1.090970
      13A     -1.023097    14A     -0.976987    15A     -0.919912
      16A     -0.880419    17A     -0.787064    18A     -0.742007
      19A     -0.692556    20A     -0.672108    21A     -0.639179
      22A     -0.604918    23A     -0.603600    24A     -0.600792
      25A     -0.588864    26A     -0.554820    27A     -0.541834
      28A     -0.527066    29A     -0.521622    30A     -0.499753
      31A     -0.477940    32A     -0.467478    33A     -0.453191
      34A     -0.411382    35A     -0.347706

  @DF-RHF Final Energy:  -402.08408842071208

   => Energetics <=

    Nuclear Repulsion Energy =            485.3647822105064620
    One-Electron Energy =               -1508.6171039269363519
    Two-Electron Energy =                 621.1682332957177550
    Total Energy =                       -402.0840884207120780
  Basis Set: (AUG-CC-PVTZ AUX)
    Blend: AUG-CC-PVTZ-RI
    Molecular point group: c1

    Geometry (in Angstrom), charge = 0, multiplicity = 1:

       Center              X                  Y                   Z               Mass
    ------------   -----------------  -----------------  -----------------  -----------------
         O            1.715303741064     1.560468829005    -0.303137935533    15.994914619570
         N            0.931977741064    -0.531850170995     0.193830064467    14.003074004430
         C           -2.287356258936    -0.290867170995    -0.188532935533    12.000000000000
         C           -1.331709258936    -1.474953170995    -0.327302935533    12.000000000000
         C           -1.657601258936     1.084417829005    -0.407617935533    12.000000000000
         C            0.012622341064    -1.408057870995     0.759250764467    12.000000000000
         C           -0.517154258936     1.420538829005     0.566219064467    12.000000000000
         C            0.812066741064     0.833238829005     0.128448064467    12.000000000000
         C            2.133209741064    -1.158602170995    -0.337985935533    12.000000000000
         H           -2.728589258936    -0.316426170995     0.817739064467     1.007825032230
         H           -3.119536258936    -0.418969170995    -0.891690935533     1.007825032230
         H           -1.890841258936    -2.400487170995    -0.137549935533     1.007825032230
         H           -0.947389258936    -1.540394170995    -1.352990935533     1.007825032230
         H           -2.442144258936     1.842945829005    -0.301365935533     1.007825032230
         H           -1.283282258936     1.169181829005    -1.435854935533     1.007825032230
         H           -0.483112258936    -1.129883170995     1.637214064467     1.007825032230
         H            0.303339741064    -2.409969170995     0.732949064467     1.007825032230
         H           -0.780549258936     1.100213829005     1.582422064467     1.007825032230
         H           -0.349719258936     2.499641829005     0.594477064467     1.007825032230
         H            1.889940741064    -1.797710170995    -1.194565935533     1.007825032230
         H            2.617614741064    -1.768651170995     0.431449064467     1.007825032230
         H            2.808767741064    -0.366773170995    -0.656159935533     1.007825032230

  Basis Set: AUG-CC-PVTZ
    Blend: AUG-CC-PVTZ
  Basis Set: (AUG-CC-PVTZ AUX)
    Blend: AUG-CC-PVTZ-JKFIT
	 Reference Energy          =    -402.0840884207120780 [Eh]
	 Singles Energy            =      -0.0000000000000000 [Eh]
	 Same-Spin Energy          =      -0.4224319742863306 [Eh]
	 Opposite-Spin Energy      =      -1.4067127585431047 [Eh]
	 Correlation Energy        =      -1.8291447328294352 [Eh]
	 Total Energy              =    -403.9132331535415119 [Eh]

	 ================> DF-SCS-MP2 Energies <==================
	-----------------------------------------------------------
	 SCS Same-Spin Scale       =       0.3333333333333333 [-]
	 SCS Opposite-Spin Scale   =       1.2000000000000000 [-]
	 SCS Same-Spin Energy      =      -0.1408106580954435 [Eh]
	 SCS Opposite-Spin Energy  =      -1.6880553102517257 [Eh]
	 SCS Correlation Energy    =      -1.8288659683471693 [Eh]
	 SCS Total Energy          =    -403.9129543890592231 [Eh]
	-----------------------------------------------------------

  Dipole Moment: [D]
     X:    -2.3013      Y:    -2.9482      Z:     0.8949     Total:     3.8456

*** Psi4 exiting successfully. Buy a developer a beer!
