                               Psi4 1.3.2 release

  ==> Input File <==

--------------------------------------------------------------------------
#psi4
#
memory 32 gb

molecule  {
0 1
  O        1.7739800     1.6003060    -0.2911220
  N        0.9906540    -0.4920130     0.2058460
  C       -2.2286800    -0.2510300    -0.1765170
  C       -1.2730330    -1.4351160    -0.3152870
  C       -1.6813322     0.9442907    -0.3669334
  C       -0.0841310    -1.3759550     0.6456410
  C       -0.4584780     1.4603760     0.5782350
  C        0.8707430     0.8730760     0.1404640
  C        2.1918860    -1.1187650    -0.3259700
  H       -2.6699130    -0.2765890     0.8297550
  H       -3.0608600    -0.3791320    -0.8796750
  H       -1.8321650    -2.3606500    -0.1255340
  H       -0.8887130    -1.5005570    -1.3409750
  H       -2.3834680     1.8827830    -0.2893500
  H       -1.2246060     1.2090190    -1.4238390
  H       -0.4244360    -1.0900460     1.6492300
  H        0.3620160    -2.3701320     0.7449650
  H       -0.7218730     1.1400510     1.5944380
  H       -0.2910430     2.5394790     0.6064930
  H        1.9486170    -1.7578730    -1.1825500
  H        2.6762910    -1.7288140     0.4434650
  H        2.8674440    -0.3269360    -0.6441440
units angstrom
no_reorient  #important for SAPT in psi4, default
symmetry c1  #important for SAPT in psi4, default
}

set PROPERTIES_ORIGIN ["COM"]
properties('MP2/aug-cc-pvtz', properties = ['dipole'])
--------------------------------------------------------------------------

    Molecular point group: c1
  Charge       = 0
  Multiplicity = 1
  Basis Set: AUG-CC-PVTZ
    Blend: AUG-CC-PVTZ
  Basis Set: (AUG-CC-PVTZ AUX)
    Blend: AUG-CC-PVTZ-JKFIT

    Orbital Energies [Eh]
    ---------------------

    Doubly Occupied:

       1A    -20.504965     2A    -15.579466     3A    -11.338567
       4A    -11.273433     5A    -11.250217     6A    -11.245705
       7A    -11.238469     8A    -11.235505     9A    -11.223735
      10A     -1.360979    11A     -1.241116    12A     -1.125941
      13A     -1.030376    14A     -0.989381    15A     -0.913444
      16A     -0.882323    17A     -0.783027    18A     -0.725275
      19A     -0.690046    20A     -0.674383    21A     -0.637216
      22A     -0.619099    23A     -0.611646    24A     -0.598759
      25A     -0.577429    26A     -0.560692    27A     -0.543372
      28A     -0.528582    29A     -0.513702    30A     -0.507577
      31A     -0.502030    32A     -0.446345    33A     -0.436882
      34A     -0.403444    35A     -0.364647

  @DF-RHF Final Energy:  -402.06297134542763

   => Energetics <=

    Nuclear Repulsion Energy =            487.7787605021475770
    One-Electron Energy =               -1513.3679141565235113
    Two-Electron Energy =                 623.5261823089482505
    Total Energy =                       -402.0629713454276271
  Basis Set: (AUG-CC-PVTZ AUX)
    Blend: AUG-CC-PVTZ-RI
    Molecular point group: c1

    Geometry (in Angstrom), charge = 0, multiplicity = 1:

       Center              X                  Y                   Z               Mass
    ------------   -----------------  -----------------  -----------------  -----------------
         O            1.737758878918     1.578190215847    -0.293983822098    15.994914619570
         N            0.954432878918    -0.514128784153     0.202984177902    14.003074004430
         C           -2.264901121082    -0.273145784153    -0.179378822098    12.000000000000
         C           -1.309254121082    -1.457231784153    -0.318148822098    12.000000000000
         C           -1.717553321082     0.922174915847    -0.369795222098    12.000000000000
         C           -0.120352121082    -1.398070784153     0.642779177902    12.000000000000
         C           -0.494699121082     1.438260215847     0.575373177902    12.000000000000
         C            0.834521878918     0.850960215847     0.137602177902    12.000000000000
         C            2.155664878918    -1.140880784153    -0.328831822098    12.000000000000
         H           -2.706134121082    -0.298704784153     0.826893177902     1.007825032230
         H           -3.097081121082    -0.401247784153    -0.882536822098     1.007825032230
         H           -1.868386121082    -2.382765784153    -0.128395822098     1.007825032230
         H           -0.924934121082    -1.522672784153    -1.343836822098     1.007825032230
         H           -2.419689121082     1.860667215847    -0.292211822098     1.007825032230
         H           -1.260827121082     1.186903215847    -1.426700822098     1.007825032230
         H           -0.460657121082    -1.112161784153     1.646368177902     1.007825032230
         H            0.325794878918    -2.392247784153     0.742103177902     1.007825032230
         H           -0.758094121082     1.117935215847     1.591576177902     1.007825032230
         H           -0.327264121082     2.517363215847     0.603631177902     1.007825032230
         H            1.912395878918    -1.779988784153    -1.185411822098     1.007825032230
         H            2.640069878918    -1.750929784153     0.440603177902     1.007825032230
         H            2.831222878918    -0.349051784153    -0.647005822098     1.007825032230

  Basis Set: AUG-CC-PVTZ
    Blend: AUG-CC-PVTZ
  Basis Set: (AUG-CC-PVTZ AUX)
    Blend: AUG-CC-PVTZ-JKFIT
	 Reference Energy          =    -402.0629713454276271 [Eh]
	 Singles Energy            =      -0.0000000000000000 [Eh]
	 Same-Spin Energy          =      -0.4244594474031778 [Eh]
	 Opposite-Spin Energy      =      -1.4089728184043671 [Eh]
	 Correlation Energy        =      -1.8334322658075448 [Eh]
	 Total Energy              =    -403.8964036112351437 [Eh]

	 ================> DF-SCS-MP2 Energies <==================
	-----------------------------------------------------------
	 SCS Same-Spin Scale       =       0.3333333333333333 [-]
	 SCS Opposite-Spin Scale   =       1.2000000000000000 [-]
	 SCS Same-Spin Energy      =      -0.1414864824677259 [Eh]
	 SCS Opposite-Spin Energy  =      -1.6907673820852405 [Eh]
	 SCS Correlation Energy    =      -1.8322538645529665 [Eh]
	 SCS Total Energy          =    -403.8952252099805946 [Eh]
	-----------------------------------------------------------

  Dipole Moment: [D]
     X:    -2.6683      Y:    -3.1943      Z:     0.8292     Total:     4.2439

*** Psi4 exiting successfully. Buy a developer a beer!
