                               Psi4 1.3.2 release

  ==> Input File <==

--------------------------------------------------------------------------
#psi4
#
memory 32 gb

molecule  {
0 1
  O        1.7739800     1.6003060    -0.2911220
  N        0.9906540    -0.4920130     0.2058460
  C       -2.2286800    -0.2510300    -0.1765170
  C       -1.2730330    -1.4351160    -0.3152870
  C       -1.5989250     1.1242550    -0.3956020
  C       -0.0841310    -1.3759550     0.6456410
  C       -0.4584780     1.4603760     0.5782350
  C        0.8707430     0.8730760     0.1404640
  C        2.1918860    -1.1187650    -0.3259700
  H       -2.6699130    -0.2765890     0.8297550
  H       -3.0608600    -0.3791320    -0.8796750
  H       -1.8321650    -2.3606500    -0.1255340
  H       -0.8887130    -1.5005570    -1.3409750
  H       -2.3834680     1.8827830    -0.2893500
  H       -1.2246060     1.2090190    -1.4238390
  H       -0.3934317    -1.1160944     1.5577958
  H        0.3620160    -2.3701320     0.7449650
  H       -0.7218730     1.1400510     1.5944380
  H       -0.2910430     2.5394790     0.6064930
  H        1.9486170    -1.7578730    -1.1825500
  H        2.6762910    -1.7288140     0.4434650
  H        2.8674440    -0.3269360    -0.6441440
units angstrom
no_reorient  #important for SAPT in psi4, default
symmetry c1  #important for SAPT in psi4, default
}

set PROPERTIES_ORIGIN ["COM"]
properties('MP2/aug-cc-pvtz', properties = ['dipole'])
--------------------------------------------------------------------------

    Molecular point group: c1
  Charge       = 0
  Multiplicity = 1
  Basis Set: AUG-CC-PVTZ
    Blend: AUG-CC-PVTZ
  Basis Set: (AUG-CC-PVTZ AUX)
    Blend: AUG-CC-PVTZ-JKFIT

    Orbital Energies [Eh]
    ---------------------

    Doubly Occupied:

       1A    -20.505262     2A    -15.579475     3A    -11.339608
       4A    -11.259843     5A    -11.249863     6A    -11.234712
       7A    -11.233759     8A    -11.232427     9A    -11.231463
      10A     -1.361449    11A     -1.241358    12A     -1.097901
      13A     -1.040197    14A     -0.978262    15A     -0.915571
      16A     -0.879883    17A     -0.794487    18A     -0.733381
      19A     -0.691155    20A     -0.668354    21A     -0.634139
      22A     -0.609442    23A     -0.602476    24A     -0.595234
      25A     -0.585018    26A     -0.559819    27A     -0.544122
      28A     -0.527207    29A     -0.514324    30A     -0.508771
      31A     -0.479541    32A     -0.467292    33A     -0.465656
      34A     -0.407183    35A     -0.365205

  @DF-RHF Final Energy:  -402.10659471193577

   => Energetics <=

    Nuclear Repulsion Energy =            486.8201785212408481
    One-Electron Energy =               -1511.5858692436058845
    Two-Electron Energy =                 622.6590960104292662
    Total Energy =                       -402.1065947119357133
  Basis Set: (AUG-CC-PVTZ AUX)
    Blend: AUG-CC-PVTZ-RI
    Molecular point group: c1

    Geometry (in Angstrom), charge = 0, multiplicity = 1:

       Center              X                  Y                   Z               Mass
    ------------   -----------------  -----------------  -----------------  -----------------
         O            1.729732634978     1.561405603965    -0.290552084435    15.994914619570
         N            0.946406634978    -0.530913396035     0.206415915565    14.003074004430
         C           -2.272927365022    -0.289930396035    -0.175947084435    12.000000000000
         C           -1.317280365022    -1.474016396035    -0.314717084435    12.000000000000
         C           -1.643172365022     1.085354603965    -0.395032084435    12.000000000000
         C           -0.128378365022    -1.414855396035     0.646210915565    12.000000000000
         C           -0.502725365022     1.421475603965     0.578804915565    12.000000000000
         C            0.826495634978     0.834175603965     0.141033915565    12.000000000000
         C            2.147638634978    -1.157665396035    -0.325400084435    12.000000000000
         H           -2.714160365022    -0.315489396035     0.830324915565     1.007825032230
         H           -3.105107365022    -0.418032396035    -0.879105084435     1.007825032230
         H           -1.876412365022    -2.399550396035    -0.124964084435     1.007825032230
         H           -0.932960365022    -1.539457396035    -1.340405084435     1.007825032230
         H           -2.427715365022     1.843882603965    -0.288780084435     1.007825032230
         H           -1.268853365022     1.170118603965    -1.423269084435     1.007825032230
         H           -0.437679065022    -1.154994796035     1.558365715565     1.007825032230
         H            0.317768634978    -2.409032396035     0.745534915565     1.007825032230
         H           -0.766120365022     1.101150603965     1.595007915565     1.007825032230
         H           -0.335290365022     2.500578603965     0.607062915565     1.007825032230
         H            1.904369634978    -1.796773396035    -1.181980084435     1.007825032230
         H            2.632043634978    -1.767714396035     0.444034915565     1.007825032230
         H            2.823196634978    -0.365836396035    -0.643574084435     1.007825032230

  Basis Set: AUG-CC-PVTZ
    Blend: AUG-CC-PVTZ
  Basis Set: (AUG-CC-PVTZ AUX)
    Blend: AUG-CC-PVTZ-JKFIT
	 Reference Energy          =    -402.1065947119357702 [Eh]
	 Singles Energy            =      -0.0000000000000000 [Eh]
	 Same-Spin Energy          =      -0.4216088481378875 [Eh]
	 Opposite-Spin Energy      =      -1.4045586806791550 [Eh]
	 Correlation Energy        =      -1.8261675288170425 [Eh]
	 Total Energy              =    -403.9327622407528224 [Eh]

	 ================> DF-SCS-MP2 Energies <==================
	-----------------------------------------------------------
	 SCS Same-Spin Scale       =       0.3333333333333333 [-]
	 SCS Opposite-Spin Scale   =       1.2000000000000000 [-]
	 SCS Same-Spin Energy      =      -0.1405362827126291 [Eh]
	 SCS Opposite-Spin Energy  =      -1.6854704168149859 [Eh]
	 SCS Correlation Energy    =      -1.8260066995276150 [Eh]
	 SCS Total Energy          =    -403.9326014114633949 [Eh]
	-----------------------------------------------------------

  Dipole Moment: [D]
     X:    -2.6074      Y:    -3.1141      Z:     0.8473     Total:     4.1490

*** Psi4 exiting successfully. Buy a developer a beer!
