                               Psi4 1.3.2 release

  ==> Input File <==

--------------------------------------------------------------------------
#psi4
#
memory 32 gb

molecule  {
0 1
  O        1.7739800     1.6003060    -0.2911220
  N        0.9347960    -0.4710443     0.1232807
  C       -2.2286800    -0.2510300    -0.1765170
  C       -1.2730330    -1.4351160    -0.3152870
  C       -1.5989250     1.1242550    -0.3956020
  C       -0.0841310    -1.3759550     0.6456410
  C       -0.4584780     1.4603760     0.5782350
  C        0.8707430     0.8730760     0.1404640
  C        2.1918860    -1.1187650    -0.3259700
  H       -2.6699130    -0.2765890     0.8297550
  H       -3.0608600    -0.3791320    -0.8796750
  H       -1.8321650    -2.3606500    -0.1255340
  H       -0.8887130    -1.5005570    -1.3409750
  H       -2.3834680     1.8827830    -0.2893500
  H       -1.2246060     1.2090190    -1.4238390
  H       -0.4244360    -1.0900460     1.6492300
  H        0.3620160    -2.3701320     0.7449650
  H       -0.7218730     1.1400510     1.5944380
  H       -0.2910430     2.5394790     0.6064930
  H        1.9486170    -1.7578730    -1.1825500
  H        2.6762910    -1.7288140     0.4434650
  H        2.8674440    -0.3269360    -0.6441440
units angstrom
no_reorient  #important for SAPT in psi4, default
symmetry c1  #important for SAPT in psi4, default
}

set PROPERTIES_ORIGIN ["COM"]
properties('MP2/aug-cc-pvtz', properties = ['dipole'])
--------------------------------------------------------------------------

    Molecular point group: c1
  Charge       = 0
  Multiplicity = 1
  Basis Set: AUG-CC-PVTZ
    Blend: AUG-CC-PVTZ
  Basis Set: (AUG-CC-PVTZ AUX)
    Blend: AUG-CC-PVTZ-JKFIT

    Orbital Energies [Eh]
    ---------------------

    Doubly Occupied:

       1A    -20.501546     2A    -15.582622     3A    -11.335870
       4A    -11.273853     5A    -11.254217     6A    -11.233235
       7A    -11.231851     8A    -11.231087     9A    -11.230607
      10A     -1.361345    11A     -1.242550    12A     -1.095496
      13A     -1.039196    14A     -0.973687    15A     -0.919355
      16A     -0.875981    17A     -0.791986    18A     -0.728493
      19A     -0.689164    20A     -0.669315    21A     -0.633045
      22A     -0.603599    23A     -0.600298    24A     -0.595236
      25A     -0.583073    26A     -0.560045    27A     -0.544105
      28A     -0.525884    29A     -0.511090    30A     -0.506555
      31A     -0.478315    32A     -0.465223    33A     -0.464403
      34A     -0.405121    35A     -0.367543

  @DF-RHF Final Energy:  -402.10919670685536

   => Energetics <=

    Nuclear Repulsion Energy =            487.1093875661961192
    One-Electron Energy =               -1512.2271837047348981
    Two-Electron Energy =                 623.0085994316833649
    Total Energy =                       -402.1091967068554140
  Basis Set: (AUG-CC-PVTZ AUX)
    Blend: AUG-CC-PVTZ-RI
    Molecular point group: c1

    Geometry (in Angstrom), charge = 0, multiplicity = 1:

       Center              X                  Y                   Z               Mass
    ------------   -----------------  -----------------  -----------------  -----------------
         O            1.736132575556     1.558888851746    -0.282180560246    15.994914619570
         N            0.896948575556    -0.512461448254     0.132222139754    14.003074004430
         C           -2.266527424444    -0.292447148254    -0.167575560246    12.000000000000
         C           -1.310880424444    -1.476533148254    -0.306345560246    12.000000000000
         C           -1.636772424444     1.082837851746    -0.386660560246    12.000000000000
         C           -0.121978424444    -1.417372148254     0.654582439754    12.000000000000
         C           -0.496325424444     1.418958851746     0.587176439754    12.000000000000
         C            0.832895575556     0.831658851746     0.149405439754    12.000000000000
         C            2.154038575556    -1.160182148254    -0.317028560246    12.000000000000
         H           -2.707760424444    -0.318006148254     0.838696439754     1.007825032230
         H           -3.098707424444    -0.420549148254    -0.870733560246     1.007825032230
         H           -1.870012424444    -2.402067148254    -0.116592560246     1.007825032230
         H           -0.926560424444    -1.541974148254    -1.332033560246     1.007825032230
         H           -2.421315424444     1.841365851746    -0.280408560246     1.007825032230
         H           -1.262453424444     1.167601851746    -1.414897560246     1.007825032230
         H           -0.462283424444    -1.131463148254     1.658171439754     1.007825032230
         H            0.324168575556    -2.411549148254     0.753906439754     1.007825032230
         H           -0.759720424444     1.098633851746     1.603379439754     1.007825032230
         H           -0.328890424444     2.498061851746     0.615434439754     1.007825032230
         H            1.910769575556    -1.799290148254    -1.173608560246     1.007825032230
         H            2.638443575556    -1.770231148254     0.452406439754     1.007825032230
         H            2.829596575556    -0.368353148254    -0.635202560246     1.007825032230

  Basis Set: AUG-CC-PVTZ
    Blend: AUG-CC-PVTZ
  Basis Set: (AUG-CC-PVTZ AUX)
    Blend: AUG-CC-PVTZ-JKFIT
	 Reference Energy          =    -402.1091967068553572 [Eh]
	 Singles Energy            =      -0.0000000000000000 [Eh]
	 Same-Spin Energy          =      -0.4218251194316520 [Eh]
	 Opposite-Spin Energy      =      -1.4054589210974624 [Eh]
	 Correlation Energy        =      -1.8272840405291144 [Eh]
	 Total Energy              =    -403.9364807473844508 [Eh]

	 ================> DF-SCS-MP2 Energies <==================
	-----------------------------------------------------------
	 SCS Same-Spin Scale       =       0.3333333333333333 [-]
	 SCS Opposite-Spin Scale   =       1.2000000000000000 [-]
	 SCS Same-Spin Energy      =      -0.1406083731438840 [Eh]
	 SCS Opposite-Spin Energy  =      -1.6865507053169548 [Eh]
	 SCS Correlation Energy    =      -1.8271590784608389 [Eh]
	 SCS Total Energy          =    -403.9363557853162092 [Eh]
	-----------------------------------------------------------

  Dipole Moment: [D]
     X:    -2.4724      Y:    -3.2714      Z:     0.9157     Total:     4.2016

*** Psi4 exiting successfully. Buy a developer a beer!
