                               Psi4 1.3.2 release

  ==> Input File <==

--------------------------------------------------------------------------
#psi4
#
memory 32 gb

molecule  {
0 1
  O        1.7739800     1.6003060    -0.2911220
  N        0.9906540    -0.4920130     0.2058460
  C       -2.2286800    -0.2510300    -0.1765170
  C       -1.2730330    -1.4351160    -0.3152870
  C       -1.5989250     1.1242550    -0.3956020
  C       -0.0841310    -1.3759550     0.6456410
  C       -0.4584780     1.4603760     0.5782350
  C        0.8707430     0.8730760     0.1404640
  C        2.0268298    -1.0326456    -0.2528954
  H       -2.6699130    -0.2765890     0.8297550
  H       -3.0608600    -0.3791320    -0.8796750
  H       -1.8321650    -2.3606500    -0.1255340
  H       -0.8887130    -1.5005570    -1.3409750
  H       -2.3834680     1.8827830    -0.2893500
  H       -1.2246060     1.2090190    -1.4238390
  H       -0.4244360    -1.0900460     1.6492300
  H        0.3620160    -2.3701320     0.7449650
  H       -0.7218730     1.1400510     1.5944380
  H       -0.2910430     2.5394790     0.6064930
  H        1.9486170    -1.7578730    -1.1825500
  H        2.6762910    -1.7288140     0.4434650
  H        2.8674440    -0.3269360    -0.6441440
units angstrom
no_reorient  #important for SAPT in psi4, default
symmetry c1  #important for SAPT in psi4, default
}

set PROPERTIES_ORIGIN ["COM"]
properties('MP2/aug-cc-pvtz', properties = ['dipole'])
--------------------------------------------------------------------------

    Molecular point group: c1
  Charge       = 0
  Multiplicity = 1
  Basis Set: AUG-CC-PVTZ
    Blend: AUG-CC-PVTZ
  Basis Set: (AUG-CC-PVTZ AUX)
    Blend: AUG-CC-PVTZ-JKFIT

    Orbital Energies [Eh]
    ---------------------

    Doubly Occupied:

       1A    -20.515177     2A    -15.583716     3A    -11.347792
       4A    -11.277793     5A    -11.254029     6A    -11.238954
       7A    -11.238332     8A    -11.237791     9A    -11.234988
      10A     -1.380202    11A     -1.289266    12A     -1.108277
      13A     -1.044576    14A     -0.987736    15A     -0.916477
      16A     -0.877332    17A     -0.798165    18A     -0.744497
      19A     -0.702549    20A     -0.681715    21A     -0.649102
      22A     -0.627316    23A     -0.607235    24A     -0.599216
      25A     -0.587454    26A     -0.557307    27A     -0.550154
      28A     -0.521754    29A     -0.497050    30A     -0.486356
      31A     -0.476986    32A     -0.472817    33A     -0.464160
      34A     -0.416530    35A     -0.355011

  @DF-RHF Final Energy:  -402.06259598822157

   => Energetics <=

    Nuclear Repulsion Energy =            490.8554948869686427
    One-Electron Energy =               -1519.1805547798890075
    Two-Electron Energy =                 626.2624639046987340
    Total Energy =                       -402.0625959882215739
  Basis Set: (AUG-CC-PVTZ AUX)
    Blend: AUG-CC-PVTZ-RI
    Molecular point group: c1

    Geometry (in Angstrom), charge = 0, multiplicity = 1:

       Center              X                  Y                   Z               Mass
    ------------   -----------------  -----------------  -----------------  -----------------
         O            1.745562106545     1.553068173488    -0.298176372836    15.994914619570
         N            0.962236106545    -0.539250826512     0.198791627164    14.003074004430
         C           -2.257097893455    -0.298267826512    -0.183571372836    12.000000000000
         C           -1.301450893455    -1.482353826512    -0.322341372836    12.000000000000
         C           -1.627342893455     1.077017173488    -0.402656372836    12.000000000000
         C           -0.112548893455    -1.423192826512     0.638586627164    12.000000000000
         C           -0.486895893455     1.413138173488     0.571180627164    12.000000000000
         C            0.842325106545     0.825838173488     0.133409627164    12.000000000000
         C            1.998411906545    -1.079883426512    -0.259949772836    12.000000000000
         H           -2.698330893455    -0.323826826512     0.822700627164     1.007825032230
         H           -3.089277893455    -0.426369826512    -0.886729372836     1.007825032230
         H           -1.860582893455    -2.407887826512    -0.132588372836     1.007825032230
         H           -0.917130893455    -1.547794826512    -1.348029372836     1.007825032230
         H           -2.411885893455     1.835545173488    -0.296404372836     1.007825032230
         H           -1.253023893455     1.161781173488    -1.430893372836     1.007825032230
         H           -0.452853893455    -1.137283826512     1.642175627164     1.007825032230
         H            0.333598106545    -2.417369826512     0.737910627164     1.007825032230
         H           -0.750290893455     1.092813173488     1.587383627164     1.007825032230
         H           -0.319460893455     2.492241173488     0.599438627164     1.007825032230
         H            1.920199106545    -1.805110826512    -1.189604372836     1.007825032230
         H            2.647873106545    -1.776051826512     0.436410627164     1.007825032230
         H            2.839026106545    -0.374173826512    -0.651198372836     1.007825032230

  Basis Set: AUG-CC-PVTZ
    Blend: AUG-CC-PVTZ
  Basis Set: (AUG-CC-PVTZ AUX)
    Blend: AUG-CC-PVTZ-JKFIT
	 Reference Energy          =    -402.0625959882215739 [Eh]
	 Singles Energy            =      -0.0000000000000000 [Eh]
	 Same-Spin Energy          =      -0.4246787639549943 [Eh]
	 Opposite-Spin Energy      =      -1.4080287035642480 [Eh]
	 Correlation Energy        =      -1.8327074675192423 [Eh]
	 Total Energy              =    -403.8953034557408159 [Eh]

	 ================> DF-SCS-MP2 Energies <==================
	-----------------------------------------------------------
	 SCS Same-Spin Scale       =       0.3333333333333333 [-]
	 SCS Opposite-Spin Scale   =       1.2000000000000000 [-]
	 SCS Same-Spin Energy      =      -0.1415595879849981 [Eh]
	 SCS Opposite-Spin Energy  =      -1.6896344442770976 [Eh]
	 SCS Correlation Energy    =      -1.8311940322620957 [Eh]
	 SCS Total Energy          =    -403.8937900204836637 [Eh]
	-----------------------------------------------------------

  Dipole Moment: [D]
     X:    -3.0906      Y:    -2.6138      Z:     0.9554     Total:     4.1589

*** Psi4 exiting successfully. Buy a developer a beer!
