                               Psi4 1.4a3.dev225

  ==> Input File <==

--------------------------------------------------------------------------
#psi4
#
memory 32 gb

molecule  {
0 1
  O        1.7739800     1.6003060    -0.2911220
  N        0.9906540    -0.4920130     0.2058460
  C       -2.2286800    -0.2510300    -0.1765170
  C       -1.2730330    -1.4351160    -0.3152870
  C       -1.5989250     1.1242550    -0.3956020
  C       -0.1229884    -1.3778886     0.6142346
  C       -0.4584780     1.4603760     0.5782350
  C        0.8707430     0.8730760     0.1404640
  C        2.1918860    -1.1187650    -0.3259700
  H       -2.6699130    -0.2765890     0.8297550
  H       -3.0608600    -0.3791320    -0.8796750
  H       -1.8321650    -2.3606500    -0.1255340
  H       -0.8887130    -1.5005570    -1.3409750
  H       -2.3834680     1.8827830    -0.2893500
  H       -1.2246060     1.2090190    -1.4238390
  H       -0.4244360    -1.0900460     1.6492300
  H        0.3620160    -2.3701320     0.7449650
  H       -0.7218730     1.1400510     1.5944380
  H       -0.2910430     2.5394790     0.6064930
  H        1.9486170    -1.7578730    -1.1825500
  H        2.6762910    -1.7288140     0.4434650
  H        2.8674440    -0.3269360    -0.6441440
units angstrom
no_reorient  #important for SAPT in psi4, default
symmetry c1  #important for SAPT in psi4, default
}

set PROPERTIES_ORIGIN ["COM"]
properties('MP2/aug-cc-pvtz', properties = ['dipole'])
--------------------------------------------------------------------------

    Molecular point group: c1
  Charge       = 0
  Multiplicity = 1
  Basis Set: AUG-CC-PVTZ
    Blend: AUG-CC-PVTZ
  Basis Set: (AUG-CC-PVTZ AUX)
    Blend: AUG-CC-PVTZ-JKFIT

    Orbital Energies [Eh]
    ---------------------

    Doubly Occupied:

       1A    -20.504832     2A    -15.580022     3A    -11.338796
       4A    -11.274587     5A    -11.250093     6A    -11.234996
       7A    -11.233200     8A    -11.232708     9A    -11.232061
      10A     -1.360734    11A     -1.237532    12A     -1.100776
      13A     -1.043233    14A     -0.975412    15A     -0.913077
      16A     -0.876391    17A     -0.793932    18A     -0.721985
      19A     -0.690386    20A     -0.669067    21A     -0.632868
      22A     -0.609772    23A     -0.602273    24A     -0.592343
      25A     -0.581771    26A     -0.560830    27A     -0.546041
      28A     -0.528029    29A     -0.509547    30A     -0.504945
      31A     -0.479291    32A     -0.469289    33A     -0.463614
      34A     -0.406499    35A     -0.366776

  @DF-RHF Final Energy:  -402.10891371545102

   => Energetics <=

    Nuclear Repulsion Energy =            486.5408204008757593
    One-Electron Energy =               -1511.0640508506244259
    Two-Electron Energy =                 622.4143167342974721
    Total Energy =                       -402.1089137154510809
  Basis Set: (AUG-CC-PVTZ AUX)
    Blend: AUG-CC-PVTZ-RI
    Molecular point group: c1

    Geometry (in Angstrom), charge = 0, multiplicity = 1:

       Center              X                  Y                   Z               Mass
    ------------   -----------------  -----------------  -----------------  -----------------
         O            1.733647165497     1.561381614694    -0.288311897456    15.994914619570
         N            0.950321165497    -0.530937385306     0.208656102544    14.003074004430
         C           -2.269012834503    -0.289954385306    -0.173706897456    12.000000000000
         C           -1.313365834503    -1.474040385306    -0.312476897456    12.000000000000
         C           -1.639257834503     1.085330614694    -0.392791897456    12.000000000000
         C           -0.163321234503    -1.416812985306     0.617044702544    12.000000000000
         C           -0.498810834503     1.421451614694     0.581045102544    12.000000000000
         C            0.830410165497     0.834151614694     0.143274102544    12.000000000000
         C            2.151553165497    -1.157689385306    -0.323159897456    12.000000000000
         H           -2.710245834503    -0.315513385306     0.832565102544     1.007825032230
         H           -3.101192834503    -0.418056385306    -0.876864897456     1.007825032230
         H           -1.872497834503    -2.399574385306    -0.122723897456     1.007825032230
         H           -0.929045834503    -1.539481385306    -1.338164897456     1.007825032230
         H           -2.423800834503     1.843858614694    -0.286539897456     1.007825032230
         H           -1.264938834503     1.170094614694    -1.421028897456     1.007825032230
         H           -0.464768834503    -1.128970385306     1.652040102544     1.007825032230
         H            0.321683165497    -2.409056385306     0.747775102544     1.007825032230
         H           -0.762205834503     1.101126614694     1.597248102544     1.007825032230
         H           -0.331375834503     2.500554614694     0.609303102544     1.007825032230
         H            1.908284165497    -1.796797385306    -1.179739897456     1.007825032230
         H            2.635958165497    -1.767738385306     0.446275102544     1.007825032230
         H            2.827111165497    -0.365860385306    -0.641333897456     1.007825032230

  Basis Set: AUG-CC-PVTZ
    Blend: AUG-CC-PVTZ
  Basis Set: (AUG-CC-PVTZ AUX)
    Blend: AUG-CC-PVTZ-JKFIT
	 Reference Energy          =    -402.1089137154510240 [Eh]
	 Singles Energy            =      -0.0000000000000000 [Eh]
	 Same-Spin Energy          =      -0.4221472190677694 [Eh]
	 Opposite-Spin Energy      =      -1.4057328797684092 [Eh]
	 Correlation Energy        =      -1.8278800988361787 [Eh]
	 Total Energy              =    -403.9367938142872276 [Eh]

	 ================> DF-SCS-MP2 Energies <==================
	-----------------------------------------------------------
	 SCS Same-Spin Scale       =       0.3333333333333333 [-]
	 SCS Opposite-Spin Scale   =       1.2000000000000000 [-]
	 SCS Same-Spin Energy      =      -0.1407157396892565 [Eh]
	 SCS Opposite-Spin Energy  =      -1.6868794557220910 [Eh]
	 SCS Correlation Energy    =      -1.8275951954113474 [Eh]
	 SCS Total Energy          =    -403.9365089108623579 [Eh]
	-----------------------------------------------------------

  Dipole Moment: [D]
     X:    -2.6548      Y:    -3.1345      Z:     0.7559     Total:     4.1767

*** Psi4 exiting successfully. Buy a developer a beer!
