                               Psi4 1.3.2 release

  ==> Input File <==

--------------------------------------------------------------------------
#psi4
#
memory 32 gb

molecule  {
0 1
  O        1.7739800     1.6003060    -0.2911220
  N        0.9906540    -0.4920130     0.2058460
  C       -2.2286800    -0.2510300    -0.1765170
  C       -1.2730330    -1.4351160    -0.3152870
  C       -1.5989250     1.1242550    -0.3956020
  C       -0.0841310    -1.3759550     0.6456410
  C       -0.4584780     1.4603760     0.5782350
  C        0.8707430     0.8730760     0.1404640
  C        2.1918860    -1.1187650    -0.3259700
  H       -2.6699130    -0.2765890     0.8297550
  H       -3.0608600    -0.3791320    -0.8796750
  H       -1.8321650    -2.3606500    -0.1255340
  H       -0.8887130    -1.5005570    -1.3409750
  H       -2.2403596     1.7444200    -0.3087314
  H       -1.2246060     1.2090190    -1.4238390
  H       -0.4244360    -1.0900460     1.6492300
  H        0.3620160    -2.3701320     0.7449650
  H       -0.7218730     1.1400510     1.5944380
  H       -0.2910430     2.5394790     0.6064930
  H        1.9486170    -1.7578730    -1.1825500
  H        2.6762910    -1.7288140     0.4434650
  H        2.8674440    -0.3269360    -0.6441440
units angstrom
no_reorient  #important for SAPT in psi4, default
symmetry c1  #important for SAPT in psi4, default
}

set PROPERTIES_ORIGIN ["COM"]
properties('MP2/aug-cc-pvtz', properties = ['dipole'])
--------------------------------------------------------------------------

    Molecular point group: c1
  Charge       = 0
  Multiplicity = 1
  Basis Set: AUG-CC-PVTZ
    Blend: AUG-CC-PVTZ
  Basis Set: (AUG-CC-PVTZ AUX)
    Blend: AUG-CC-PVTZ-JKFIT

    Orbital Energies [Eh]
    ---------------------

    Doubly Occupied:

       1A    -20.504764     2A    -15.579680     3A    -11.339037
       4A    -11.271463     5A    -11.249962     6A    -11.232420
       7A    -11.232383     8A    -11.230413     9A    -11.209521
      10A     -1.360972    11A     -1.240339    12A     -1.103711
      13A     -1.040486    14A     -0.977836    15A     -0.914260
      16A     -0.889994    17A     -0.800565    18A     -0.724827
      19A     -0.692501    20A     -0.672203    21A     -0.632625
      22A     -0.619570    23A     -0.601976    24A     -0.600348
      25A     -0.584026    26A     -0.557616    27A     -0.545203
      28A     -0.526556    29A     -0.511053    30A     -0.508377
      31A     -0.480618    32A     -0.472331    33A     -0.465869
      34A     -0.407372    35A     -0.364368

  @DF-RHF Final Energy:  -402.07932201994493

   => Energetics <=

    Nuclear Repulsion Energy =            487.4853721755296192
    One-Electron Energy =               -1512.8388978488337671
    Two-Electron Energy =                 623.2742036533592227
    Total Energy =                       -402.0793220199449252
  Basis Set: (AUG-CC-PVTZ AUX)
    Blend: AUG-CC-PVTZ-RI
    Molecular point group: c1

    Geometry (in Angstrom), charge = 0, multiplicity = 1:

       Center              X                  Y                   Z               Mass
    ------------   -----------------  -----------------  -----------------  -----------------
         O            1.728843716234     1.562296191849    -0.291123420225    15.994914619570
         N            0.945517716234    -0.530022808151     0.205844579775    14.003074004430
         C           -2.273816283766    -0.289039808151    -0.176518420225    12.000000000000
         C           -1.318169283766    -1.473125808151    -0.315288420225    12.000000000000
         C           -1.644061283766     1.086245191849    -0.395603420225    12.000000000000
         C           -0.129267283766    -1.413964808151     0.645639579775    12.000000000000
         C           -0.503614283766     1.422366191849     0.578233579775    12.000000000000
         C            0.825606716234     0.835066191849     0.140462579775    12.000000000000
         C            2.146749716234    -1.156774808151    -0.325971420225    12.000000000000
         H           -2.715049283766    -0.314598808151     0.829753579775     1.007825032230
         H           -3.105996283766    -0.417141808151    -0.879676420225     1.007825032230
         H           -1.877301283766    -2.398659808151    -0.125535420225     1.007825032230
         H           -0.933849283766    -1.538566808151    -1.340976420225     1.007825032230
         H           -2.285495883766     1.706410191849    -0.308732820225     1.007825032230
         H           -1.269742283766     1.171009191849    -1.423840420225     1.007825032230
         H           -0.469572283766    -1.128055808151     1.649228579775     1.007825032230
         H            0.316879716234    -2.408141808151     0.744963579775     1.007825032230
         H           -0.767009283766     1.102041191849     1.594436579775     1.007825032230
         H           -0.336179283766     2.501469191849     0.606491579775     1.007825032230
         H            1.903480716234    -1.795882808151    -1.182551420225     1.007825032230
         H            2.631154716234    -1.766823808151     0.443463579775     1.007825032230
         H            2.822307716234    -0.364945808151    -0.644145420225     1.007825032230

  Basis Set: AUG-CC-PVTZ
    Blend: AUG-CC-PVTZ
  Basis Set: (AUG-CC-PVTZ AUX)
    Blend: AUG-CC-PVTZ-JKFIT
	 Reference Energy          =    -402.0793220199449252 [Eh]
	 Singles Energy            =      -0.0000000000000000 [Eh]
	 Same-Spin Energy          =      -0.4217773377028455 [Eh]
	 Opposite-Spin Energy      =      -1.4043712411924507 [Eh]
	 Correlation Energy        =      -1.8261485788952962 [Eh]
	 Total Energy              =    -403.9054705988402247 [Eh]

	 ================> DF-SCS-MP2 Energies <==================
	-----------------------------------------------------------
	 SCS Same-Spin Scale       =       0.3333333333333333 [-]
	 SCS Opposite-Spin Scale   =       1.2000000000000000 [-]
	 SCS Same-Spin Energy      =      -0.1405924459009485 [Eh]
	 SCS Opposite-Spin Energy  =      -1.6852454894309408 [Eh]
	 SCS Correlation Energy    =      -1.8258379353318892 [Eh]
	 SCS Total Energy          =    -403.9051599552768153 [Eh]
	-----------------------------------------------------------

  Dipole Moment: [D]
     X:    -2.6626      Y:    -3.0242      Z:     0.7825     Total:     4.1046

*** Psi4 exiting successfully. Buy a developer a beer!
