                               Psi4 1.3.2 release

  ==> Input File <==

--------------------------------------------------------------------------
#psi4
#
memory 32 gb

molecule  {
0 1
  O        1.7739800     1.6003060    -0.2911220
  N        0.9906540    -0.4920130     0.2058460
  C       -2.2286800    -0.2510300    -0.1765170
  C       -1.3981446    -1.5291472    -0.2823725
  C       -1.5989250     1.1242550    -0.3956020
  C       -0.0841310    -1.3759550     0.6456410
  C       -0.4584780     1.4603760     0.5782350
  C        0.8707430     0.8730760     0.1404640
  C        2.1918860    -1.1187650    -0.3259700
  H       -2.6699130    -0.2765890     0.8297550
  H       -3.0608600    -0.3791320    -0.8796750
  H       -1.8321650    -2.3606500    -0.1255340
  H       -0.8887130    -1.5005570    -1.3409750
  H       -2.3834680     1.8827830    -0.2893500
  H       -1.2246060     1.2090190    -1.4238390
  H       -0.4244360    -1.0900460     1.6492300
  H        0.3620160    -2.3701320     0.7449650
  H       -0.7218730     1.1400510     1.5944380
  H       -0.2910430     2.5394790     0.6064930
  H        1.9486170    -1.7578730    -1.1825500
  H        2.6762910    -1.7288140     0.4434650
  H        2.8674440    -0.3269360    -0.6441440
units angstrom
no_reorient  #important for SAPT in psi4, default
symmetry c1  #important for SAPT in psi4, default
}

set PROPERTIES_ORIGIN ["COM"]
properties('MP2/aug-cc-pvtz', properties = ['dipole'])
--------------------------------------------------------------------------

    Molecular point group: c1
  Charge       = 0
  Multiplicity = 1
  Basis Set: AUG-CC-PVTZ
    Blend: AUG-CC-PVTZ
  Basis Set: (AUG-CC-PVTZ AUX)
    Blend: AUG-CC-PVTZ-JKFIT

    Orbital Energies [Eh]
    ---------------------

    Doubly Occupied:

       1A    -20.506928     2A    -15.583836     3A    -11.340888
       4A    -11.274588     5A    -11.250849     6A    -11.238415
       7A    -11.234222     8A    -11.233628     9A    -11.232139
      10A     -1.362757    11A     -1.239717    12A     -1.095947
      13A     -1.036040    14A     -0.973112    15A     -0.912730
      16A     -0.887709    17A     -0.795586    18A     -0.723321
      19A     -0.692377    20A     -0.670443    21A     -0.633676
      22A     -0.612895    23A     -0.602538    24A     -0.598377
      25A     -0.584632    26A     -0.558736    27A     -0.543991
      28A     -0.531235    29A     -0.509694    30A     -0.498687
      31A     -0.486493    32A     -0.462026    33A     -0.455936
      34A     -0.408455    35A     -0.362740

  @DF-RHF Final Energy:  -402.08090315377171

   => Energetics <=

    Nuclear Repulsion Energy =            484.1350927929117915
    One-Electron Energy =               -1506.1613052905504446
    Two-Electron Energy =                 619.9453093438669384
    Total Energy =                       -402.0809031537717146
  Basis Set: (AUG-CC-PVTZ AUX)
    Blend: AUG-CC-PVTZ-RI
    Molecular point group: c1

    Geometry (in Angstrom), charge = 0, multiplicity = 1:

       Center              X                  Y                   Z               Mass
    ------------   -----------------  -----------------  -----------------  -----------------
         O            1.741790774693     1.570076923006    -0.294384694754    15.994914619570
         N            0.958464774693    -0.522242076994     0.202583305246    14.003074004430
         C           -2.260869225307    -0.281259076994    -0.179779694754    12.000000000000
         C           -1.430333825307    -1.559376276994    -0.285635194754    12.000000000000
         C           -1.631114225307     1.094025923006    -0.398864694754    12.000000000000
         C           -0.116320225307    -1.406184076994     0.642378305246    12.000000000000
         C           -0.490667225307     1.430146923006     0.574972305246    12.000000000000
         C            0.838553774693     0.842846923006     0.137201305246    12.000000000000
         C            2.159696774693    -1.148994076994    -0.329232694754    12.000000000000
         H           -2.702102225307    -0.306818076994     0.826492305246     1.007825032230
         H           -3.093049225307    -0.409361076994    -0.882937694754     1.007825032230
         H           -1.864354225307    -2.390879076994    -0.128796694754     1.007825032230
         H           -0.920902225307    -1.530786076994    -1.344237694754     1.007825032230
         H           -2.415657225307     1.852553923006    -0.292612694754     1.007825032230
         H           -1.256795225307     1.178789923006    -1.427101694754     1.007825032230
         H           -0.456625225307    -1.120275076994     1.645967305246     1.007825032230
         H            0.329826774693    -2.400361076994     0.741702305246     1.007825032230
         H           -0.754062225307     1.109821923006     1.591175305246     1.007825032230
         H           -0.323232225307     2.509249923006     0.603230305246     1.007825032230
         H            1.916427774693    -1.788102076994    -1.185812694754     1.007825032230
         H            2.644101774693    -1.759043076994     0.440202305246     1.007825032230
         H            2.835254774693    -0.357165076994    -0.647406694754     1.007825032230

  Basis Set: AUG-CC-PVTZ
    Blend: AUG-CC-PVTZ
  Basis Set: (AUG-CC-PVTZ AUX)
    Blend: AUG-CC-PVTZ-JKFIT
	 Reference Energy          =    -402.0809031537717146 [Eh]
	 Singles Energy            =      -0.0000000000000000 [Eh]
	 Same-Spin Energy          =      -0.4218580854149355 [Eh]
	 Opposite-Spin Energy      =      -1.4062732312351618 [Eh]
	 Correlation Energy        =      -1.8281313166500972 [Eh]
	 Total Energy              =    -403.9090344704218296 [Eh]

	 ================> DF-SCS-MP2 Energies <==================
	-----------------------------------------------------------
	 SCS Same-Spin Scale       =       0.3333333333333333 [-]
	 SCS Opposite-Spin Scale   =       1.2000000000000000 [-]
	 SCS Same-Spin Energy      =      -0.1406193618049785 [Eh]
	 SCS Opposite-Spin Energy  =      -1.6875278774821940 [Eh]
	 SCS Correlation Energy    =      -1.8281472392871725 [Eh]
	 SCS Total Energy          =    -403.9090503930588625 [Eh]
	-----------------------------------------------------------

  Dipole Moment: [D]
     X:    -2.5704      Y:    -3.0479      Z:     0.8140     Total:     4.0693

*** Psi4 exiting successfully. Buy a developer a beer!
