                               Psi4 1.4a3.dev225

  ==> Input File <==

--------------------------------------------------------------------------
#psi4
#
memory 32 gb

molecule  {
0 1
  O        1.7739800     1.6003060    -0.2911220
  N        0.9906540    -0.4920130     0.2058460
  C       -2.2286800    -0.2510300    -0.1765170
  C       -1.2730330    -1.4351160    -0.3152870
  C       -1.5989250     1.1242550    -0.3956020
  C       -0.0841310    -1.3759550     0.6456410
  C       -0.4584780     1.4603760     0.5782350
  C        0.9072427     0.9024632     0.1230237
  C        2.1918860    -1.1187650    -0.3259700
  H       -2.6699130    -0.2765890     0.8297550
  H       -3.0608600    -0.3791320    -0.8796750
  H       -1.8321650    -2.3606500    -0.1255340
  H       -0.8887130    -1.5005570    -1.3409750
  H       -2.3834680     1.8827830    -0.2893500
  H       -1.2246060     1.2090190    -1.4238390
  H       -0.4244360    -1.0900460     1.6492300
  H        0.3620160    -2.3701320     0.7449650
  H       -0.7218730     1.1400510     1.5944380
  H       -0.2910430     2.5394790     0.6064930
  H        1.9486170    -1.7578730    -1.1825500
  H        2.6762910    -1.7288140     0.4434650
  H        2.8674440    -0.3269360    -0.6441440
units angstrom
no_reorient  #important for SAPT in psi4, default
symmetry c1  #important for SAPT in psi4, default
}

set PROPERTIES_ORIGIN ["COM"]
properties('MP2/aug-cc-pvtz', properties = ['dipole'])
--------------------------------------------------------------------------

    Molecular point group: c1
  Charge       = 0
  Multiplicity = 1
  Basis Set: AUG-CC-PVTZ
    Blend: AUG-CC-PVTZ
  Basis Set: (AUG-CC-PVTZ AUX)
    Blend: AUG-CC-PVTZ-JKFIT

    Orbital Energies [Eh]
    ---------------------

    Doubly Occupied:

       1A    -20.516467     2A    -15.572837     3A    -11.339258
       4A    -11.269535     5A    -11.247201     6A    -11.233062
       7A    -11.231838     8A    -11.230787     9A    -11.229608
      10A     -1.395060    11A     -1.236925    12A     -1.094228
      13A     -1.033753    14A     -0.970558    15A     -0.905885
      16A     -0.874731    17A     -0.789660    18A     -0.722348
      19A     -0.691628    20A     -0.668666    21A     -0.633328
      22A     -0.609303    23A     -0.605029    24A     -0.592690
      25A     -0.582524    26A     -0.557467    27A     -0.550106
      28A     -0.526810    29A     -0.516405    30A     -0.509211
      31A     -0.477481    32A     -0.470090    33A     -0.463273
      34A     -0.408281    35A     -0.363512

  @DF-RHF Final Energy:  -402.11133396644215

   => Energetics <=

    Nuclear Repulsion Energy =            486.1643779784710659
    One-Electron Energy =               -1510.3123376360301791
    Two-Electron Energy =                 622.0366256911169103
    Total Energy =                       -402.1113339664422028
  Basis Set: (AUG-CC-PVTZ AUX)
    Blend: AUG-CC-PVTZ-RI
    Molecular point group: c1

    Geometry (in Angstrom), charge = 0, multiplicity = 1:

       Center              X                  Y                   Z               Mass
    ------------   -----------------  -----------------  -----------------  -----------------
         O            1.726532395753     1.558424490810    -0.289630493656    15.994914619570
         N            0.943206395753    -0.533894509190     0.207337506344    14.003074004430
         C           -2.276127604247    -0.292911509190    -0.175025493656    12.000000000000
         C           -1.320480604247    -1.476997509190    -0.313795493656    12.000000000000
         C           -1.646372604247     1.082373490810    -0.394110493656    12.000000000000
         C           -0.131578604247    -1.417836509190     0.647132506344    12.000000000000
         C           -0.505925604247     1.418494490810     0.579726506344    12.000000000000
         C            0.859795095753     0.860581690810     0.124515206344    12.000000000000
         C            2.144438395753    -1.160646509190    -0.324478493656    12.000000000000
         H           -2.717360604247    -0.318470509190     0.831246506344     1.007825032230
         H           -3.108307604247    -0.421013509190    -0.878183493656     1.007825032230
         H           -1.879612604247    -2.402531509190    -0.124042493656     1.007825032230
         H           -0.936160604247    -1.542438509190    -1.339483493656     1.007825032230
         H           -2.430915604247     1.840901490810    -0.287858493656     1.007825032230
         H           -1.272053604247     1.167137490810    -1.422347493656     1.007825032230
         H           -0.471883604247    -1.131927509190     1.650721506344     1.007825032230
         H            0.314568395753    -2.412013509190     0.746456506344     1.007825032230
         H           -0.769320604247     1.098169490810     1.595929506344     1.007825032230
         H           -0.338490604247     2.497597490810     0.607984506344     1.007825032230
         H            1.901169395753    -1.799754509190    -1.181058493656     1.007825032230
         H            2.628843395753    -1.770695509190     0.444956506344     1.007825032230
         H            2.819996395753    -0.368817509190    -0.642652493656     1.007825032230

  Basis Set: AUG-CC-PVTZ
    Blend: AUG-CC-PVTZ
  Basis Set: (AUG-CC-PVTZ AUX)
    Blend: AUG-CC-PVTZ-JKFIT
	 Reference Energy          =    -402.1113339664421460 [Eh]
	 Singles Energy            =      -0.0000000000000000 [Eh]
	 Same-Spin Energy          =      -0.4207674845587762 [Eh]
	 Opposite-Spin Energy      =      -1.4032669541357601 [Eh]
	 Correlation Energy        =      -1.8240344386945362 [Eh]
	 Total Energy              =    -403.9353684051366713 [Eh]

	 ================> DF-SCS-MP2 Energies <==================
	-----------------------------------------------------------
	 SCS Same-Spin Scale       =       0.3333333333333333 [-]
	 SCS Opposite-Spin Scale   =       1.2000000000000000 [-]
	 SCS Same-Spin Energy      =      -0.1402558281862587 [Eh]
	 SCS Opposite-Spin Energy  =      -1.6839203449629121 [Eh]
	 SCS Correlation Energy    =      -1.8241761731491708 [Eh]
	 SCS Total Energy          =    -403.9355101395913152 [Eh]
	-----------------------------------------------------------

  Dipole Moment: [D]
     X:    -2.3618      Y:    -2.7644      Z:     0.7079     Total:     3.7042

*** Psi4 exiting successfully. Buy a developer a beer!
