                               Psi4 1.3.2 release

  ==> Input File <==

--------------------------------------------------------------------------
#psi4
#
memory 32 gb

molecule  {
0 1
  O        1.7739800     1.6003060    -0.2911220
  N        0.9906540    -0.4920130     0.2058460
  C       -2.1650287    -0.2134724    -0.0996290
  C       -1.2730330    -1.4351160    -0.3152870
  C       -1.5989250     1.1242550    -0.3956020
  C       -0.0841310    -1.3759550     0.6456410
  C       -0.4584780     1.4603760     0.5782350
  C        0.8707430     0.8730760     0.1404640
  C        2.1918860    -1.1187650    -0.3259700
  H       -2.6699130    -0.2765890     0.8297550
  H       -3.0608600    -0.3791320    -0.8796750
  H       -1.8321650    -2.3606500    -0.1255340
  H       -0.8887130    -1.5005570    -1.3409750
  H       -2.3834680     1.8827830    -0.2893500
  H       -1.2246060     1.2090190    -1.4238390
  H       -0.4244360    -1.0900460     1.6492300
  H        0.3620160    -2.3701320     0.7449650
  H       -0.7218730     1.1400510     1.5944380
  H       -0.2910430     2.5394790     0.6064930
  H        1.9486170    -1.7578730    -1.1825500
  H        2.6762910    -1.7288140     0.4434650
  H        2.8674440    -0.3269360    -0.6441440
units angstrom
no_reorient  #important for SAPT in psi4, default
symmetry c1  #important for SAPT in psi4, default
}

set PROPERTIES_ORIGIN ["COM"]
properties('MP2/aug-cc-pvtz', properties = ['dipole'])
--------------------------------------------------------------------------

    Molecular point group: c1
  Charge       = 0
  Multiplicity = 1
  Basis Set: AUG-CC-PVTZ
    Blend: AUG-CC-PVTZ
  Basis Set: (AUG-CC-PVTZ AUX)
    Blend: AUG-CC-PVTZ-JKFIT

    Orbital Energies [Eh]
    ---------------------

    Doubly Occupied:

       1A    -20.505774     2A    -15.580783     3A    -11.340085
       4A    -11.270633     5A    -11.250698     6A    -11.235371
       7A    -11.234667     8A    -11.234028     9A    -11.232296
      10A     -1.361985    11A     -1.241563    12A     -1.104631
      13A     -1.039296    14A     -0.975972    15A     -0.912016
      16A     -0.880264    17A     -0.794501    18A     -0.724762
      19A     -0.690726    20A     -0.669496    21A     -0.634470
      22A     -0.610146    23A     -0.607028    24A     -0.589408
      25A     -0.584961    26A     -0.558838    27A     -0.542656
      28A     -0.528813    29A     -0.511839    30A     -0.503794
      31A     -0.494235    32A     -0.472716    33A     -0.444218
      34A     -0.406855    35A     -0.364427

  @DF-RHF Final Energy:  -402.09968849915350

   => Energetics <=

    Nuclear Repulsion Energy =            487.5519713714020895
    One-Electron Energy =               -1513.0354239121284081
    Two-Electron Energy =                 623.3837640415728174
    Total Energy =                       -402.0996884991535580
  Basis Set: (AUG-CC-PVTZ AUX)
    Blend: AUG-CC-PVTZ-RI
    Molecular point group: c1

    Geometry (in Angstrom), charge = 0, multiplicity = 1:

       Center              X                  Y                   Z               Mass
    ------------   -----------------  -----------------  -----------------  -----------------
         O            1.723968902967     1.557653090176    -0.298536411412    15.994914619570
         N            0.940642902967    -0.534665909824     0.198431588588    14.003074004430
         C           -2.215039797033    -0.256125309824    -0.107043411412    12.000000000000
         C           -1.323044097033    -1.477768909824    -0.322701411412    12.000000000000
         C           -1.648936097033     1.081602090176    -0.403016411412    12.000000000000
         C           -0.134142097033    -1.418607909824     0.638226588588    12.000000000000
         C           -0.508489097033     1.417723090176     0.570820588588    12.000000000000
         C            0.820731902967     0.830423090176     0.133049588588    12.000000000000
         C            2.141874902967    -1.161417909824    -0.333384411412    12.000000000000
         H           -2.719924097033    -0.319241909824     0.822340588588     1.007825032230
         H           -3.110871097033    -0.421784909824    -0.887089411412     1.007825032230
         H           -1.882176097033    -2.403302909824    -0.132948411412     1.007825032230
         H           -0.938724097033    -1.543209909824    -1.348389411412     1.007825032230
         H           -2.433479097033     1.840130090176    -0.296764411412     1.007825032230
         H           -1.274617097033     1.166366090176    -1.431253411412     1.007825032230
         H           -0.474447097033    -1.132698909824     1.641815588588     1.007825032230
         H            0.312004902967    -2.412784909824     0.737550588588     1.007825032230
         H           -0.771884097033     1.097398090176     1.587023588588     1.007825032230
         H           -0.341054097033     2.496826090176     0.599078588588     1.007825032230
         H            1.898605902967    -1.800525909824    -1.189964411412     1.007825032230
         H            2.626279902967    -1.771466909824     0.436050588588     1.007825032230
         H            2.817432902967    -0.369588909824    -0.651558411412     1.007825032230

  Basis Set: AUG-CC-PVTZ
    Blend: AUG-CC-PVTZ
  Basis Set: (AUG-CC-PVTZ AUX)
    Blend: AUG-CC-PVTZ-JKFIT
	 Reference Energy          =    -402.0996884991535012 [Eh]
	 Singles Energy            =      -0.0000000000000000 [Eh]
	 Same-Spin Energy          =      -0.4224775227972886 [Eh]
	 Opposite-Spin Energy      =      -1.4064017723488085 [Eh]
	 Correlation Energy        =      -1.8288792951460970 [Eh]
	 Total Energy              =    -403.9285677942996244 [Eh]

	 ================> DF-SCS-MP2 Energies <==================
	-----------------------------------------------------------
	 SCS Same-Spin Scale       =       0.3333333333333333 [-]
	 SCS Opposite-Spin Scale   =       1.2000000000000000 [-]
	 SCS Same-Spin Energy      =      -0.1408258409324295 [Eh]
	 SCS Opposite-Spin Energy  =      -1.6876821268185702 [Eh]
	 SCS Correlation Energy    =      -1.8285079677509997 [Eh]
	 SCS Total Energy          =    -403.9281964669045237 [Eh]
	-----------------------------------------------------------

  Dipole Moment: [D]
     X:    -2.5410      Y:    -3.0912      Z:     0.8325     Total:     4.0872

*** Psi4 exiting successfully. Buy a developer a beer!
