                               Psi4 1.3.2 release

  ==> Input File <==

--------------------------------------------------------------------------
#psi4
#
memory 32 gb

molecule  {
0 1
  O        1.7739800     1.6003060    -0.2911220
  N        0.9906540    -0.4920130     0.2058460
  C       -2.2286800    -0.2510300    -0.1765170
  C       -1.2045794    -1.4630607    -0.3923275
  C       -1.5989250     1.1242550    -0.3956020
  C       -0.0841310    -1.3759550     0.6456410
  C       -0.4584780     1.4603760     0.5782350
  C        0.8707430     0.8730760     0.1404640
  C        2.1918860    -1.1187650    -0.3259700
  H       -2.6699130    -0.2765890     0.8297550
  H       -3.0608600    -0.3791320    -0.8796750
  H       -1.8321650    -2.3606500    -0.1255340
  H       -0.8887130    -1.5005570    -1.3409750
  H       -2.3834680     1.8827830    -0.2893500
  H       -1.2246060     1.2090190    -1.4238390
  H       -0.4244360    -1.0900460     1.6492300
  H        0.3620160    -2.3701320     0.7449650
  H       -0.7218730     1.1400510     1.5944380
  H       -0.2910430     2.5394790     0.6064930
  H        1.9486170    -1.7578730    -1.1825500
  H        2.6762910    -1.7288140     0.4434650
  H        2.8674440    -0.3269360    -0.6441440
units angstrom
no_reorient  #important for SAPT in psi4, default
symmetry c1  #important for SAPT in psi4, default
}

set PROPERTIES_ORIGIN ["COM"]
properties('MP2/aug-cc-pvtz', properties = ['dipole'])
--------------------------------------------------------------------------

    Molecular point group: c1
  Charge       = 0
  Multiplicity = 1
  Basis Set: AUG-CC-PVTZ
    Blend: AUG-CC-PVTZ
  Basis Set: (AUG-CC-PVTZ AUX)
    Blend: AUG-CC-PVTZ-JKFIT

    Orbital Energies [Eh]
    ---------------------

    Doubly Occupied:

       1A    -20.505237     2A    -15.579702     3A    -11.339484
       4A    -11.272590     5A    -11.250513     6A    -11.234496
       7A    -11.233436     8A    -11.232827     9A    -11.231302
      10A     -1.361491    11A     -1.241281    12A     -1.091625
      13A     -1.036722    14A     -0.973988    15A     -0.911764
      16A     -0.879150    17A     -0.798272    18A     -0.726543
      19A     -0.689314    20A     -0.665830    21A     -0.635692
      22A     -0.608957    23A     -0.600792    24A     -0.591422
      25A     -0.581124    26A     -0.558338    27A     -0.545115
      28A     -0.534478    29A     -0.516531    30A     -0.506748
      31A     -0.486336    32A     -0.466404    33A     -0.446256
      34A     -0.406994    35A     -0.364769

  @DF-RHF Final Energy:  -402.09956356908185

   => Energetics <=

    Nuclear Repulsion Energy =            485.9527873624440417
    One-Electron Energy =               -1509.8936549424161058
    Two-Electron Energy =                 621.8413040108902123
    Total Energy =                       -402.0995635690818517
  Basis Set: (AUG-CC-PVTZ AUX)
    Blend: AUG-CC-PVTZ-RI
    Molecular point group: c1

    Geometry (in Angstrom), charge = 0, multiplicity = 1:

       Center              X                  Y                   Z               Mass
    ------------   -----------------  -----------------  -----------------  -----------------
         O            1.723515498328     1.563837428244    -0.284003396811    15.994914619570
         N            0.940189498328    -0.528481571756     0.212964603189    14.003074004430
         C           -2.279144501672    -0.287498571756    -0.169398396811    12.000000000000
         C           -1.255043901672    -1.499529271756    -0.385208896811    12.000000000000
         C           -1.649389501672     1.087786428244    -0.388483396811    12.000000000000
         C           -0.134595501672    -1.412423571756     0.652759603189    12.000000000000
         C           -0.508942501672     1.423907428244     0.585353603189    12.000000000000
         C            0.820278498328     0.836607428244     0.147582603189    12.000000000000
         C            2.141421498328    -1.155233571756    -0.318851396811    12.000000000000
         H           -2.720377501672    -0.313057571756     0.836873603189     1.007825032230
         H           -3.111324501672    -0.415600571756    -0.872556396811     1.007825032230
         H           -1.882629501672    -2.397118571756    -0.118415396811     1.007825032230
         H           -0.939177501672    -1.537025571756    -1.333856396811     1.007825032230
         H           -2.433932501672     1.846314428244    -0.282231396811     1.007825032230
         H           -1.275070501672     1.172550428244    -1.416720396811     1.007825032230
         H           -0.474900501672    -1.126514571756     1.656348603189     1.007825032230
         H            0.311551498328    -2.406600571756     0.752083603189     1.007825032230
         H           -0.772337501672     1.103582428244     1.601556603189     1.007825032230
         H           -0.341507501672     2.503010428244     0.613611603189     1.007825032230
         H            1.898152498328    -1.794341571756    -1.175431396811     1.007825032230
         H            2.625826498328    -1.765282571756     0.450583603189     1.007825032230
         H            2.816979498328    -0.363404571756    -0.637025396811     1.007825032230

  Basis Set: AUG-CC-PVTZ
    Blend: AUG-CC-PVTZ
  Basis Set: (AUG-CC-PVTZ AUX)
    Blend: AUG-CC-PVTZ-JKFIT
	 Reference Energy          =    -402.0995635690818517 [Eh]
	 Singles Energy            =      -0.0000000000000000 [Eh]
	 Same-Spin Energy          =      -0.4216163272571914 [Eh]
	 Opposite-Spin Energy      =      -1.4055622028380323 [Eh]
	 Correlation Energy        =      -1.8271785300952237 [Eh]
	 Total Energy              =    -403.9267420991770905 [Eh]

	 ================> DF-SCS-MP2 Energies <==================
	-----------------------------------------------------------
	 SCS Same-Spin Scale       =       0.3333333333333333 [-]
	 SCS Opposite-Spin Scale   =       1.2000000000000000 [-]
	 SCS Same-Spin Energy      =      -0.1405387757523971 [Eh]
	 SCS Opposite-Spin Energy  =      -1.6866746434056388 [Eh]
	 SCS Correlation Energy    =      -1.8272134191580358 [Eh]
	 SCS Total Energy          =    -403.9267769882399080 [Eh]
	-----------------------------------------------------------

  Dipole Moment: [D]
     X:    -2.5583      Y:    -3.1088      Z:     0.7899     Total:     4.1029

*** Psi4 exiting successfully. Buy a developer a beer!
