                               Psi4 1.3.2 release

  ==> Input File <==

--------------------------------------------------------------------------
#psi4
#
memory 32 gb

molecule  {
0 1
  O        1.7739800     1.6003060    -0.2911220
  N        0.9906540    -0.4920130     0.2058460
  C       -2.2286800    -0.2510300    -0.1765170
  C       -1.2730330    -1.4351160    -0.3152870
  C       -1.5165178     1.3042193    -0.4242706
  C       -0.0841310    -1.3759550     0.6456410
  C       -0.4584780     1.4603760     0.5782350
  C        0.8707430     0.8730760     0.1404640
  C        2.1918860    -1.1187650    -0.3259700
  H       -2.6699130    -0.2765890     0.8297550
  H       -3.0608600    -0.3791320    -0.8796750
  H       -1.8321650    -2.3606500    -0.1255340
  H       -0.8887130    -1.5005570    -1.3409750
  H       -2.3834680     1.8827830    -0.2893500
  H       -1.2246060     1.2090190    -1.4238390
  H       -0.4244360    -1.0900460     1.6492300
  H        0.3620160    -2.3701320     0.7449650
  H       -0.7218730     1.1400510     1.5944380
  H       -0.2910430     2.5394790     0.6064930
  H        1.9486170    -1.7578730    -1.1825500
  H        2.6762910    -1.7288140     0.4434650
  H        2.8674440    -0.3269360    -0.6441440
units angstrom
no_reorient  #important for SAPT in psi4, default
symmetry c1  #important for SAPT in psi4, default
}

set PROPERTIES_ORIGIN ["COM"]
properties('MP2/aug-cc-pvtz', properties = ['dipole'])
--------------------------------------------------------------------------

    Molecular point group: c1
  Charge       = 0
  Multiplicity = 1
  Basis Set: AUG-CC-PVTZ
    Blend: AUG-CC-PVTZ
  Basis Set: (AUG-CC-PVTZ AUX)
    Blend: AUG-CC-PVTZ-JKFIT

    Orbital Energies [Eh]
    ---------------------

    Doubly Occupied:

       1A    -20.506663     2A    -15.581834     3A    -11.341800
       4A    -11.271521     5A    -11.251120     6A    -11.234802
       7A    -11.233597     8A    -11.232337     9A    -11.231694
      10A     -1.362992    11A     -1.241670    12A     -1.089181
      13A     -1.045380    14A     -0.966993    15A     -0.915548
      16A     -0.874789    17A     -0.796605    18A     -0.726929
      19A     -0.694675    20A     -0.665902    21A     -0.633300
      22A     -0.615008    23A     -0.597696    24A     -0.590773
      25A     -0.582590    26A     -0.564682    27A     -0.553413
      28A     -0.528932    29A     -0.516598    30A     -0.509212
      31A     -0.485631    32A     -0.478546    33A     -0.417813
      34A     -0.402953    35A     -0.365393

  @DF-RHF Final Energy:  -402.08274868237925

   => Energetics <=

    Nuclear Repulsion Energy =            485.0331488341829527
    One-Electron Energy =               -1508.0146506487303668
    Two-Electron Energy =                 620.8987531321681672
    Total Energy =                       -402.0827486823792469
  Basis Set: (AUG-CC-PVTZ AUX)
    Blend: AUG-CC-PVTZ-RI
    Molecular point group: c1

    Geometry (in Angstrom), charge = 0, multiplicity = 1:

       Center              X                  Y                   Z               Mass
    ------------   -----------------  -----------------  -----------------  -----------------
         O            1.722198082304     1.544207895489    -0.288570384269    15.994914619570
         N            0.938872082304    -0.548111104511     0.208397615731    14.003074004430
         C           -2.280461917696    -0.307128104511    -0.173965384269    12.000000000000
         C           -1.324814917696    -1.491214104511    -0.312735384269    12.000000000000
         C           -1.568299717696     1.248121195489    -0.421718984269    12.000000000000
         C           -0.135912917696    -1.432053104511     0.648192615731    12.000000000000
         C           -0.510259917696     1.404277895489     0.580786615731    12.000000000000
         C            0.818961082304     0.816977895489     0.143015615731    12.000000000000
         C            2.140104082304    -1.174863104511    -0.323418384269    12.000000000000
         H           -2.721694917696    -0.332687104511     0.832306615731     1.007825032230
         H           -3.112641917696    -0.435230104511    -0.877123384269     1.007825032230
         H           -1.883946917696    -2.416748104511    -0.122982384269     1.007825032230
         H           -0.940494917696    -1.556655104511    -1.338423384269     1.007825032230
         H           -2.435249917696     1.826684895489    -0.286798384269     1.007825032230
         H           -1.276387917696     1.152920895489    -1.421287384269     1.007825032230
         H           -0.476217917696    -1.146144104511     1.651781615731     1.007825032230
         H            0.310234082304    -2.426230104511     0.747516615731     1.007825032230
         H           -0.773654917696     1.083952895489     1.596989615731     1.007825032230
         H           -0.342824917696     2.483380895489     0.609044615731     1.007825032230
         H            1.896835082304    -1.813971104511    -1.179998384269     1.007825032230
         H            2.624509082304    -1.784912104511     0.446016615731     1.007825032230
         H            2.815662082304    -0.383034104511    -0.641592384269     1.007825032230

  Basis Set: AUG-CC-PVTZ
    Blend: AUG-CC-PVTZ
  Basis Set: (AUG-CC-PVTZ AUX)
    Blend: AUG-CC-PVTZ-JKFIT
	 Reference Energy          =    -402.0827486823792469 [Eh]
	 Singles Energy            =      -0.0000000000000000 [Eh]
	 Same-Spin Energy          =      -0.4224339128700256 [Eh]
	 Opposite-Spin Energy      =      -1.4072885854959405 [Eh]
	 Correlation Energy        =      -1.8297224983659661 [Eh]
	 Total Energy              =    -403.9124711807452286 [Eh]

	 ================> DF-SCS-MP2 Energies <==================
	-----------------------------------------------------------
	 SCS Same-Spin Scale       =       0.3333333333333333 [-]
	 SCS Opposite-Spin Scale   =       1.2000000000000000 [-]
	 SCS Same-Spin Energy      =      -0.1408113042900085 [Eh]
	 SCS Opposite-Spin Energy  =      -1.6887463025951286 [Eh]
	 SCS Correlation Energy    =      -1.8295576068851371 [Eh]
	 SCS Total Energy          =    -403.9123062892643929 [Eh]
	-----------------------------------------------------------

  Dipole Moment: [D]
     X:    -2.4853      Y:    -3.0719      Z:     0.7918     Total:     4.0299

*** Psi4 exiting successfully. Buy a developer a beer!
