                               Psi4 1.3.2 release

  ==> Input File <==

--------------------------------------------------------------------------
#psi4
#
memory 32 gb

molecule  {
0 1
  O        1.7739800     1.6003060    -0.2911220
  N        0.9906540    -0.4920130     0.2058460
  C       -2.2286800    -0.2510300    -0.1765170
  C       -1.2730330    -1.4351160    -0.3152870
  C       -1.5698995     1.1454443    -0.4354293
  C       -0.0841310    -1.3759550     0.6456410
  C       -0.4584780     1.4603760     0.5782350
  C        0.8707430     0.8730760     0.1404640
  C        2.1918860    -1.1187650    -0.3259700
  H       -2.6699130    -0.2765890     0.8297550
  H       -3.0608600    -0.3791320    -0.8796750
  H       -1.8321650    -2.3606500    -0.1255340
  H       -0.8887130    -1.5005570    -1.3409750
  H       -2.3834680     1.8827830    -0.2893500
  H       -1.2246060     1.2090190    -1.4238390
  H       -0.4244360    -1.0900460     1.6492300
  H        0.3620160    -2.3701320     0.7449650
  H       -0.7218730     1.1400510     1.5944380
  H       -0.2910430     2.5394790     0.6064930
  H        1.9486170    -1.7578730    -1.1825500
  H        2.6762910    -1.7288140     0.4434650
  H        2.8674440    -0.3269360    -0.6441440
units angstrom
no_reorient  #important for SAPT in psi4, default
symmetry c1  #important for SAPT in psi4, default
}

set PROPERTIES_ORIGIN ["COM"]
properties('MP2/aug-cc-pvtz', properties = ['dipole'])
--------------------------------------------------------------------------

    Molecular point group: c1
  Charge       = 0
  Multiplicity = 1
  Basis Set: AUG-CC-PVTZ
    Blend: AUG-CC-PVTZ
  Basis Set: (AUG-CC-PVTZ AUX)
    Blend: AUG-CC-PVTZ-JKFIT

    Orbital Energies [Eh]
    ---------------------

    Doubly Occupied:

       1A    -20.505307     2A    -15.580464     3A    -11.339471
       4A    -11.271915     5A    -11.250515     6A    -11.233707
       7A    -11.233226     8A    -11.232907     9A    -11.232399
      10A     -1.361614    11A     -1.240992    12A     -1.094154
      13A     -1.038440    14A     -0.973544    15A     -0.913323
      16A     -0.877602    17A     -0.795741    18A     -0.725332
      19A     -0.690671    20A     -0.667369    21A     -0.633754
      22A     -0.608099    23A     -0.600302    24A     -0.592918
      25A     -0.581875    26A     -0.558770    27A     -0.543741
      28A     -0.528403    29A     -0.514772    30A     -0.508629
      31A     -0.485317    32A     -0.466850    33A     -0.456849
      34A     -0.406535    35A     -0.364964

  @DF-RHF Final Energy:  -402.10935832609493

   => Energetics <=

    Nuclear Repulsion Energy =            486.0927975921118218
    One-Electron Energy =               -1510.1833667914490889
    Two-Electron Energy =                 621.9812108732423894
    Total Energy =                       -402.1093583260949345
  Basis Set: (AUG-CC-PVTZ AUX)
    Blend: AUG-CC-PVTZ-RI
    Molecular point group: c1

    Geometry (in Angstrom), charge = 0, multiplicity = 1:

       Center              X                  Y                   Z               Mass
    ------------   -----------------  -----------------  -----------------  -----------------
         O            1.727238065319     1.559198487831    -0.287516846100    15.994914619570
         N            0.943912065319    -0.533120512169     0.209451153900    14.003074004430
         C           -2.275421934681    -0.292137512169    -0.172911846100    12.000000000000
         C           -1.319774934681    -1.476223512169    -0.311681846100    12.000000000000
         C           -1.616641434681     1.104336787831    -0.431824146100    12.000000000000
         C           -0.130872934681    -1.417062512169     0.649246153900    12.000000000000
         C           -0.505219934681     1.419268487831     0.581840153900    12.000000000000
         C            0.824001065319     0.831968487831     0.144069153900    12.000000000000
         C            2.145144065319    -1.159872512169    -0.322364846100    12.000000000000
         H           -2.716654934681    -0.317696512169     0.833360153900     1.007825032230
         H           -3.107601934681    -0.420239512169    -0.876069846100     1.007825032230
         H           -1.878906934681    -2.401757512169    -0.121928846100     1.007825032230
         H           -0.935454934681    -1.541664512169    -1.337369846100     1.007825032230
         H           -2.430209934681     1.841675487831    -0.285744846100     1.007825032230
         H           -1.271347934681     1.167911487831    -1.420233846100     1.007825032230
         H           -0.471177934681    -1.131153512169     1.652835153900     1.007825032230
         H            0.315274065319    -2.411239512169     0.748570153900     1.007825032230
         H           -0.768614934681     1.098943487831     1.598043153900     1.007825032230
         H           -0.337784934681     2.498371487831     0.610098153900     1.007825032230
         H            1.901875065319    -1.798980512169    -1.178944846100     1.007825032230
         H            2.629549065319    -1.769921512169     0.447070153900     1.007825032230
         H            2.820702065319    -0.368043512169    -0.640538846100     1.007825032230

  Basis Set: AUG-CC-PVTZ
    Blend: AUG-CC-PVTZ
  Basis Set: (AUG-CC-PVTZ AUX)
    Blend: AUG-CC-PVTZ-JKFIT
	 Reference Energy          =    -402.1093583260949345 [Eh]
	 Singles Energy            =      -0.0000000000000000 [Eh]
	 Same-Spin Energy          =      -0.4216103170569047 [Eh]
	 Opposite-Spin Energy      =      -1.4051543415250105 [Eh]
	 Correlation Energy        =      -1.8267646585819151 [Eh]
	 Total Energy              =    -403.9361229846768424 [Eh]

	 ================> DF-SCS-MP2 Energies <==================
	-----------------------------------------------------------
	 SCS Same-Spin Scale       =       0.3333333333333333 [-]
	 SCS Opposite-Spin Scale   =       1.2000000000000000 [-]
	 SCS Same-Spin Energy      =      -0.1405367723523016 [Eh]
	 SCS Opposite-Spin Energy  =      -1.6861852098300125 [Eh]
	 SCS Correlation Energy    =      -1.8267219821823142 [Eh]
	 SCS Total Energy          =    -403.9360803082772691 [Eh]
	-----------------------------------------------------------

  Dipole Moment: [D]
     X:    -2.5713      Y:    -3.0949      Z:     0.7827     Total:     4.0991

*** Psi4 exiting successfully. Buy a developer a beer!
