                               Psi4 1.3.2 release

  ==> Input File <==

--------------------------------------------------------------------------
#psi4
#
memory 32 gb

molecule  {
0 1
  O        1.7739800     1.6003060    -0.2911220
  N        0.9906540    -0.4920130     0.2058460
  C       -2.2286800    -0.2510300    -0.1765170
  C       -1.2531636    -1.4181529    -0.3206344
  C       -1.5989250     1.1242550    -0.3956020
  C       -0.0841310    -1.3759550     0.6456410
  C       -0.4584780     1.4603760     0.5782350
  C        0.8707430     0.8730760     0.1404640
  C        2.1918860    -1.1187650    -0.3259700
  H       -2.6699130    -0.2765890     0.8297550
  H       -3.0608600    -0.3791320    -0.8796750
  H       -1.8321650    -2.3606500    -0.1255340
  H       -0.8887130    -1.5005570    -1.3409750
  H       -2.3834680     1.8827830    -0.2893500
  H       -1.2246060     1.2090190    -1.4238390
  H       -0.4244360    -1.0900460     1.6492300
  H        0.3620160    -2.3701320     0.7449650
  H       -0.7218730     1.1400510     1.5944380
  H       -0.2910430     2.5394790     0.6064930
  H        1.9486170    -1.7578730    -1.1825500
  H        2.6762910    -1.7288140     0.4434650
  H        2.8674440    -0.3269360    -0.6441440
units angstrom
no_reorient  #important for SAPT in psi4, default
symmetry c1  #important for SAPT in psi4, default
}

set PROPERTIES_ORIGIN ["COM"]
properties('MP2/aug-cc-pvtz', properties = ['dipole'])
--------------------------------------------------------------------------

    Molecular point group: c1
  Charge       = 0
  Multiplicity = 1
  Basis Set: AUG-CC-PVTZ
    Blend: AUG-CC-PVTZ
  Basis Set: (AUG-CC-PVTZ AUX)
    Blend: AUG-CC-PVTZ-JKFIT

    Orbital Energies [Eh]
    ---------------------

    Doubly Occupied:

       1A    -20.505588     2A    -15.580110     3A    -11.339859
       4A    -11.272050     5A    -11.250595     6A    -11.234245
       7A    -11.233995     8A    -11.233453     9A    -11.231768
      10A     -1.361788    11A     -1.241649    12A     -1.098071
      13A     -1.038776    14A     -0.976134    15A     -0.914167
      16A     -0.877101    17A     -0.792927    18A     -0.725879
      19A     -0.690442    20A     -0.668856    21A     -0.633849
      22A     -0.609425    23A     -0.601428    24A     -0.593290
      25A     -0.582606    26A     -0.558241    27A     -0.544658
      28A     -0.527396    29A     -0.510384    30A     -0.509484
      31A     -0.480997    32A     -0.467834    33A     -0.462095
      34A     -0.407350    35A     -0.365185

  @DF-RHF Final Energy:  -402.11108862612849

   => Energetics <=

    Nuclear Repulsion Energy =            486.6735698477763776
    One-Electron Energy =               -1511.3259640212738759
    Two-Electron Energy =                 622.5413055473688928
    Total Energy =                       -402.1110886261285486
  Basis Set: (AUG-CC-PVTZ AUX)
    Blend: AUG-CC-PVTZ-RI
    Molecular point group: c1

    Geometry (in Angstrom), charge = 0, multiplicity = 1:

       Center              X                  Y                   Z               Mass
    ------------   -----------------  -----------------  -----------------  -----------------
         O            1.728102529891     1.559597500530    -0.290772233440    15.994914619570
         N            0.944776529891    -0.532721499470     0.206195766560    14.003074004430
         C           -2.274557470109    -0.291738499470    -0.176167233440    12.000000000000
         C           -1.299041070109    -1.458861399470    -0.320284633440    12.000000000000
         C           -1.644802470109     1.083546500530    -0.395252233440    12.000000000000
         C           -0.130008470109    -1.416663499470     0.645990766560    12.000000000000
         C           -0.504355470109     1.419667500530     0.578584766560    12.000000000000
         C            0.824865529891     0.832367500530     0.140813766560    12.000000000000
         C            2.146008529891    -1.159473499470    -0.325620233440    12.000000000000
         H           -2.715790470109    -0.317297499470     0.830104766560     1.007825032230
         H           -3.106737470109    -0.419840499470    -0.879325233440     1.007825032230
         H           -1.878042470109    -2.401358499470    -0.125184233440     1.007825032230
         H           -0.934590470109    -1.541265499470    -1.340625233440     1.007825032230
         H           -2.429345470109     1.842074500530    -0.289000233440     1.007825032230
         H           -1.270483470109     1.168310500530    -1.423489233440     1.007825032230
         H           -0.470313470109    -1.130754499470     1.649579766560     1.007825032230
         H            0.316138529891    -2.410840499470     0.745314766560     1.007825032230
         H           -0.767750470109     1.099342500530     1.594787766560     1.007825032230
         H           -0.336920470109     2.498770500530     0.606842766560     1.007825032230
         H            1.902739529891    -1.798581499470    -1.182200233440     1.007825032230
         H            2.630413529891    -1.769522499470     0.443814766560     1.007825032230
         H            2.821566529891    -0.367644499470    -0.643794233440     1.007825032230

  Basis Set: AUG-CC-PVTZ
    Blend: AUG-CC-PVTZ
  Basis Set: (AUG-CC-PVTZ AUX)
    Blend: AUG-CC-PVTZ-JKFIT
	 Reference Energy          =    -402.1110886261284918 [Eh]
	 Singles Energy            =      -0.0000000000000000 [Eh]
	 Same-Spin Energy          =      -0.4218986272909037 [Eh]
	 Opposite-Spin Energy      =      -1.4053650310477832 [Eh]
	 Correlation Energy        =      -1.8272636583386870 [Eh]
	 Total Energy              =    -403.9383522844671575 [Eh]

	 ================> DF-SCS-MP2 Energies <==================
	-----------------------------------------------------------
	 SCS Same-Spin Scale       =       0.3333333333333333 [-]
	 SCS Opposite-Spin Scale   =       1.2000000000000000 [-]
	 SCS Same-Spin Energy      =      -0.1406328757636346 [Eh]
	 SCS Opposite-Spin Energy  =      -1.6864380372573398 [Eh]
	 SCS Correlation Energy    =      -1.8270709130209744 [Eh]
	 SCS Total Energy          =    -403.9381595391494670 [Eh]
	-----------------------------------------------------------

  Dipole Moment: [D]
     X:    -2.5762      Y:    -3.1015      Z:     0.7933     Total:     4.1092

*** Psi4 exiting successfully. Buy a developer a beer!
