                               Psi4 1.3.2 release

  ==> Input File <==

--------------------------------------------------------------------------
#psi4
#
memory 32 gb

molecule  {
0 1
  O        1.7739800     1.6003060    -0.2911220
  N        0.9906540    -0.4920130     0.2058460
  C       -2.2286800    -0.2510300    -0.1765170
  C       -1.2730330    -1.4351160    -0.3152870
  C       -1.5989250     1.1242550    -0.3956020
  C       -0.2395606    -1.3836893     0.5200153
  C       -0.4584780     1.4603760     0.5782350
  C        0.8707430     0.8730760     0.1404640
  C        2.1918860    -1.1187650    -0.3259700
  H       -2.6699130    -0.2765890     0.8297550
  H       -3.0608600    -0.3791320    -0.8796750
  H       -1.8321650    -2.3606500    -0.1255340
  H       -0.8887130    -1.5005570    -1.3409750
  H       -2.3834680     1.8827830    -0.2893500
  H       -1.2246060     1.2090190    -1.4238390
  H       -0.4244360    -1.0900460     1.6492300
  H        0.3620160    -2.3701320     0.7449650
  H       -0.7218730     1.1400510     1.5944380
  H       -0.2910430     2.5394790     0.6064930
  H        1.9486170    -1.7578730    -1.1825500
  H        2.6762910    -1.7288140     0.4434650
  H        2.8674440    -0.3269360    -0.6441440
units angstrom
no_reorient  #important for SAPT in psi4, default
symmetry c1  #important for SAPT in psi4, default
}

set PROPERTIES_ORIGIN ["COM"]
properties('MP2/aug-cc-pvtz', properties = ['dipole'])
--------------------------------------------------------------------------

    Molecular point group: c1
  Charge       = 0
  Multiplicity = 1
  Basis Set: AUG-CC-PVTZ
    Blend: AUG-CC-PVTZ
  Basis Set: (AUG-CC-PVTZ AUX)
    Blend: AUG-CC-PVTZ-JKFIT

    Orbital Energies [Eh]
    ---------------------

    Doubly Occupied:

       1A    -20.502416     2A    -15.578113     3A    -11.335325
       4A    -11.284281     5A    -11.248356     6A    -11.236344
       7A    -11.235168     8A    -11.232162     9A    -11.228206
      10A     -1.357576    11A     -1.228076    12A     -1.119331
      13A     -1.059183    14A     -0.975261    15A     -0.912669
      16A     -0.867078    17A     -0.797312    18A     -0.715922
      19A     -0.691264    20A     -0.673471    21A     -0.634262
      22A     -0.616433    23A     -0.604880    24A     -0.588664
      25A     -0.582805    26A     -0.567131    27A     -0.550033
      28A     -0.528851    29A     -0.505995    30A     -0.492677
      31A     -0.475226    32A     -0.470670    33A     -0.449813
      34A     -0.403306    35A     -0.367967

  @DF-RHF Final Energy:  -402.06200619116919

   => Energetics <=

    Nuclear Repulsion Energy =            487.3682448951208244
    One-Electron Energy =               -1512.6280546965647318
    Two-Electron Energy =                 623.1978036102747183
    Total Energy =                       -402.0620061911691892
  Basis Set: (AUG-CC-PVTZ AUX)
    Blend: AUG-CC-PVTZ-RI
    Molecular point group: c1

    Geometry (in Angstrom), charge = 0, multiplicity = 1:

       Center              X                  Y                   Z               Mass
    ------------   -----------------  -----------------  -----------------  -----------------
         O            1.744653220157     1.561929282330    -0.279416270833    15.994914619570
         N            0.961327220157    -0.530389717670     0.217551729167    14.003074004430
         C           -2.258006779843    -0.289406717670    -0.164811270833    12.000000000000
         C           -1.302359779843    -1.473492717670    -0.303581270833    12.000000000000
         C           -1.628251779843     1.085878282330    -0.383896270833    12.000000000000
         C           -0.268887379843    -1.422066017670     0.531721029167    12.000000000000
         C           -0.487804779843     1.421999282330     0.589940729167    12.000000000000
         C            0.841416220157     0.834699282330     0.152169729167    12.000000000000
         C            2.162559220157    -1.157141717670    -0.314264270833    12.000000000000
         H           -2.699239779843    -0.314965717670     0.841460729167     1.007825032230
         H           -3.090186779843    -0.417508717670    -0.867969270833     1.007825032230
         H           -1.861491779843    -2.399026717670    -0.113828270833     1.007825032230
         H           -0.918039779843    -1.538933717670    -1.329269270833     1.007825032230
         H           -2.412794779843     1.844406282330    -0.277644270833     1.007825032230
         H           -1.253932779843     1.170642282330    -1.412133270833     1.007825032230
         H           -0.453762779843    -1.128422717670     1.660935729167     1.007825032230
         H            0.332689220157    -2.408508717670     0.756670729167     1.007825032230
         H           -0.751199779843     1.101674282330     1.606143729167     1.007825032230
         H           -0.320369779843     2.501102282330     0.618198729167     1.007825032230
         H            1.919290220157    -1.796249717670    -1.170844270833     1.007825032230
         H            2.646964220157    -1.767190717670     0.455170729167     1.007825032230
         H            2.838117220157    -0.365312717670    -0.632438270833     1.007825032230

  Basis Set: AUG-CC-PVTZ
    Blend: AUG-CC-PVTZ
  Basis Set: (AUG-CC-PVTZ AUX)
    Blend: AUG-CC-PVTZ-JKFIT
	 Reference Energy          =    -402.0620061911691892 [Eh]
	 Singles Energy            =      -0.0000000000000000 [Eh]
	 Same-Spin Energy          =      -0.4247744181837558 [Eh]
	 Opposite-Spin Energy      =      -1.4097118610997450 [Eh]
	 Correlation Energy        =      -1.8344862792835008 [Eh]
	 Total Energy              =    -403.8964924704526993 [Eh]

	 ================> DF-SCS-MP2 Energies <==================
	-----------------------------------------------------------
	 SCS Same-Spin Scale       =       0.3333333333333333 [-]
	 SCS Opposite-Spin Scale   =       1.2000000000000000 [-]
	 SCS Same-Spin Energy      =      -0.1415914727279186 [Eh]
	 SCS Opposite-Spin Energy  =      -1.6916542333196940 [Eh]
	 SCS Correlation Energy    =      -1.8332457060476126 [Eh]
	 SCS Total Energy          =    -403.8952518972167809 [Eh]
	-----------------------------------------------------------

  Dipole Moment: [D]
     X:    -2.9105      Y:    -3.2093      Z:     0.6043     Total:     4.3744

*** Psi4 exiting successfully. Buy a developer a beer!
