                               Psi4 1.3.2 release

  ==> Input File <==

--------------------------------------------------------------------------
#psi4
#
memory 32 gb

molecule  {
0 1
  O        1.7739800     1.6003060    -0.2911220
  N        0.9906540    -0.4920130     0.2058460
  C       -2.2286800    -0.2510300    -0.1765170
  C       -1.2730330    -1.4351160    -0.3152870
  C       -1.5989250     1.1242550    -0.3956020
  C       -0.0979614    -1.3555616     0.6520928
  C       -0.4584780     1.4603760     0.5782350
  C        0.8707430     0.8730760     0.1404640
  C        2.1918860    -1.1187650    -0.3259700
  H       -2.6699130    -0.2765890     0.8297550
  H       -3.0608600    -0.3791320    -0.8796750
  H       -1.8321650    -2.3606500    -0.1255340
  H       -0.8887130    -1.5005570    -1.3409750
  H       -2.3834680     1.8827830    -0.2893500
  H       -1.2246060     1.2090190    -1.4238390
  H       -0.4244360    -1.0900460     1.6492300
  H        0.3620160    -2.3701320     0.7449650
  H       -0.7218730     1.1400510     1.5944380
  H       -0.2910430     2.5394790     0.6064930
  H        1.9486170    -1.7578730    -1.1825500
  H        2.6762910    -1.7288140     0.4434650
  H        2.8674440    -0.3269360    -0.6441440
units angstrom
no_reorient  #important for SAPT in psi4, default
symmetry c1  #important for SAPT in psi4, default
}

set PROPERTIES_ORIGIN ["COM"]
properties('MP2/aug-cc-pvtz', properties = ['dipole'])
--------------------------------------------------------------------------

    Molecular point group: c1
  Charge       = 0
  Multiplicity = 1
  Basis Set: AUG-CC-PVTZ
    Blend: AUG-CC-PVTZ
  Basis Set: (AUG-CC-PVTZ AUX)
    Blend: AUG-CC-PVTZ-JKFIT

    Orbital Energies [Eh]
    ---------------------

    Doubly Occupied:

       1A    -20.505494     2A    -15.580670     3A    -11.339407
       4A    -11.272431     5A    -11.250950     6A    -11.234711
       7A    -11.233579     8A    -11.233204     9A    -11.231138
      10A     -1.361726    11A     -1.241220    12A     -1.098129
      13A     -1.038329    14A     -0.976179    15A     -0.912831
      16A     -0.877933    17A     -0.792846    18A     -0.726448
      19A     -0.690931    20A     -0.667673    21A     -0.633710
      22A     -0.608281    23A     -0.601953    24A     -0.593859
      25A     -0.580407    26A     -0.559597    27A     -0.544356
      28A     -0.527836    29A     -0.511786    30A     -0.508146
      31A     -0.479684    32A     -0.467867    33A     -0.463047
      34A     -0.407073    35A     -0.365777

  @DF-RHF Final Energy:  -402.11117259326204

   => Energetics <=

    Nuclear Repulsion Energy =            486.5025857323072387
    One-Electron Energy =               -1510.9891031711356391
    Two-Electron Energy =                 622.3753448455662465
    Total Energy =                       -402.1111725932620402
  Basis Set: (AUG-CC-PVTZ AUX)
    Blend: AUG-CC-PVTZ-RI
    Molecular point group: c1

    Geometry (in Angstrom), charge = 0, multiplicity = 1:

       Center              X                  Y                   Z               Mass
    ------------   -----------------  -----------------  -----------------  -----------------
         O            1.731284264823     1.559273631981    -0.291886243814    15.994914619570
         N            0.947958264823    -0.533045368019     0.205081756186    14.003074004430
         C           -2.271375735177    -0.292062368019    -0.177281243814    12.000000000000
         C           -1.315728735177    -1.476148368019    -0.316051243814    12.000000000000
         C           -1.641620735177     1.083222631981    -0.396366243814    12.000000000000
         C           -0.140657135177    -1.396593968019     0.651328556186    12.000000000000
         C           -0.501173735177     1.419343631981     0.577470756186    12.000000000000
         C            0.828047264823     0.832043631981     0.139699756186    12.000000000000
         C            2.149190264823    -1.159797368019    -0.326734243814    12.000000000000
         H           -2.712608735177    -0.317621368019     0.828990756186     1.007825032230
         H           -3.103555735177    -0.420164368019    -0.880439243814     1.007825032230
         H           -1.874860735177    -2.401682368019    -0.126298243814     1.007825032230
         H           -0.931408735177    -1.541589368019    -1.341739243814     1.007825032230
         H           -2.426163735177     1.841750631981    -0.290114243814     1.007825032230
         H           -1.267301735177     1.167986631981    -1.424603243814     1.007825032230
         H           -0.467131735177    -1.131078368019     1.648465756186     1.007825032230
         H            0.319320264823    -2.411164368019     0.744200756186     1.007825032230
         H           -0.764568735177     1.099018631981     1.593673756186     1.007825032230
         H           -0.333738735177     2.498446631981     0.605728756186     1.007825032230
         H            1.905921264823    -1.798905368019    -1.183314243814     1.007825032230
         H            2.633595264823    -1.769846368019     0.442700756186     1.007825032230
         H            2.824748264823    -0.367968368019    -0.644908243814     1.007825032230

  Basis Set: AUG-CC-PVTZ
    Blend: AUG-CC-PVTZ
  Basis Set: (AUG-CC-PVTZ AUX)
    Blend: AUG-CC-PVTZ-JKFIT
	 Reference Energy          =    -402.1111725932620402 [Eh]
	 Singles Energy            =      -0.0000000000000000 [Eh]
	 Same-Spin Energy          =      -0.4218671663226728 [Eh]
	 Opposite-Spin Energy      =      -1.4053468051526126 [Eh]
	 Correlation Energy        =      -1.8272139714752853 [Eh]
	 Total Energy              =    -403.9383865647373000 [Eh]

	 ================> DF-SCS-MP2 Energies <==================
	-----------------------------------------------------------
	 SCS Same-Spin Scale       =       0.3333333333333333 [-]
	 SCS Opposite-Spin Scale   =       1.2000000000000000 [-]
	 SCS Same-Spin Energy      =      -0.1406223887742243 [Eh]
	 SCS Opposite-Spin Energy  =      -1.6864161661831349 [Eh]
	 SCS Correlation Energy    =      -1.8270385549573591 [Eh]
	 SCS Total Energy          =    -403.9382111482194091 [Eh]
	-----------------------------------------------------------

  Dipole Moment: [D]
     X:    -2.5841      Y:    -3.0919      Z:     0.7964     Total:     4.1076

*** Psi4 exiting successfully. Buy a developer a beer!
