                               Psi4 1.3.2 release

  ==> Input File <==

--------------------------------------------------------------------------
#psi4
#
memory 32 gb

molecule  {
0 1
  O        1.7739800     1.6003060    -0.2911220
  N        0.9906540    -0.4920130     0.2058460
  C       -2.2286800    -0.2510300    -0.1765170
  C       -1.2730330    -1.4351160    -0.3152870
  C       -1.6956033     1.2079229    -0.2979748
  C       -0.0841310    -1.3759550     0.6456410
  C       -0.4584780     1.4603760     0.5782350
  C        0.8707430     0.8730760     0.1404640
  C        2.1918860    -1.1187650    -0.3259700
  H       -2.6699130    -0.2765890     0.8297550
  H       -3.0608600    -0.3791320    -0.8796750
  H       -1.8321650    -2.3606500    -0.1255340
  H       -0.8887130    -1.5005570    -1.3409750
  H       -2.3834680     1.8827830    -0.2893500
  H       -1.2246060     1.2090190    -1.4238390
  H       -0.4244360    -1.0900460     1.6492300
  H        0.3620160    -2.3701320     0.7449650
  H       -0.7218730     1.1400510     1.5944380
  H       -0.2910430     2.5394790     0.6064930
  H        1.9486170    -1.7578730    -1.1825500
  H        2.6762910    -1.7288140     0.4434650
  H        2.8674440    -0.3269360    -0.6441440
units angstrom
no_reorient  #important for SAPT in psi4, default
symmetry c1  #important for SAPT in psi4, default
}

set PROPERTIES_ORIGIN ["COM"]
properties('MP2/aug-cc-pvtz', properties = ['dipole'])
--------------------------------------------------------------------------

    Molecular point group: c1
  Charge       = 0
  Multiplicity = 1
  Basis Set: AUG-CC-PVTZ
    Blend: AUG-CC-PVTZ
  Basis Set: (AUG-CC-PVTZ AUX)
    Blend: AUG-CC-PVTZ-JKFIT

    Orbital Energies [Eh]
    ---------------------

    Doubly Occupied:

       1A    -20.507772     2A    -15.581932     3A    -11.343522
       4A    -11.272999     5A    -11.251284     6A    -11.237005
       7A    -11.236551     8A    -11.234803     9A    -11.233391
      10A     -1.363355    11A     -1.242131    12A     -1.094824
      13A     -1.039639    14A     -0.976006    15A     -0.915467
      16A     -0.884564    17A     -0.794827    18A     -0.726437
      19A     -0.689678    20A     -0.672671    21A     -0.633854
      22A     -0.617193    23A     -0.601751    24A     -0.597501
      25A     -0.585318    26A     -0.558686    27A     -0.549127
      28A     -0.525486    29A     -0.511327    30A     -0.503537
      31A     -0.486592    32A     -0.460355    33A     -0.447013
      34A     -0.409975    35A     -0.365857

  @DF-RHF Final Energy:  -402.08159257314122

   => Energetics <=

    Nuclear Repulsion Energy =            484.8928893788441883
    One-Electron Energy =               -1507.6441102008868711
    Two-Electron Energy =                 620.6696282489015175
    Total Energy =                       -402.0815925731411653
  Basis Set: (AUG-CC-PVTZ AUX)
    Blend: AUG-CC-PVTZ-RI
    Molecular point group: c1

    Geometry (in Angstrom), charge = 0, multiplicity = 1:

       Center              X                  Y                   Z               Mass
    ------------   -----------------  -----------------  -----------------  -----------------
         O            1.739106271407     1.553299629555    -0.300494483480    15.994914619570
         N            0.955780271407    -0.539019370445     0.196473516520    14.003074004430
         C           -2.263553728593    -0.298036370445    -0.185889483480    12.000000000000
         C           -1.307906728593    -1.482122370445    -0.324659483480    12.000000000000
         C           -1.730477028593     1.160916529555    -0.307347283480    12.000000000000
         C           -0.119004728593    -1.422961370445     0.636268516520    12.000000000000
         C           -0.493351728593     1.413369629555     0.568862516520    12.000000000000
         C            0.835869271407     0.826069629555     0.131091516520    12.000000000000
         C            2.157012271407    -1.165771370445    -0.335342483480    12.000000000000
         H           -2.704786728593    -0.323595370445     0.820382516520     1.007825032230
         H           -3.095733728593    -0.426138370445    -0.889047483480     1.007825032230
         H           -1.867038728593    -2.407656370445    -0.134906483480     1.007825032230
         H           -0.923586728593    -1.547563370445    -1.350347483480     1.007825032230
         H           -2.418341728593     1.835776629555    -0.298722483480     1.007825032230
         H           -1.259479728593     1.162012629555    -1.433211483480     1.007825032230
         H           -0.459309728593    -1.137052370445     1.639857516520     1.007825032230
         H            0.327142271407    -2.417138370445     0.735592516520     1.007825032230
         H           -0.756746728593     1.093044629555     1.585065516520     1.007825032230
         H           -0.325916728593     2.492472629555     0.597120516520     1.007825032230
         H            1.913743271407    -1.804879370445    -1.191922483480     1.007825032230
         H            2.641417271407    -1.775820370445     0.434092516520     1.007825032230
         H            2.832570271407    -0.373942370445    -0.653516483480     1.007825032230

  Basis Set: AUG-CC-PVTZ
    Blend: AUG-CC-PVTZ
  Basis Set: (AUG-CC-PVTZ AUX)
    Blend: AUG-CC-PVTZ-JKFIT
	 Reference Energy          =    -402.0815925731412221 [Eh]
	 Singles Energy            =      -0.0000000000000000 [Eh]
	 Same-Spin Energy          =      -0.4220688145265662 [Eh]
	 Opposite-Spin Energy      =      -1.4066278490985828 [Eh]
	 Correlation Energy        =      -1.8286966636251489 [Eh]
	 Total Energy              =    -403.9102892367663458 [Eh]

	 ================> DF-SCS-MP2 Energies <==================
	-----------------------------------------------------------
	 SCS Same-Spin Scale       =       0.3333333333333333 [-]
	 SCS Opposite-Spin Scale   =       1.2000000000000000 [-]
	 SCS Same-Spin Energy      =      -0.1406896048421887 [Eh]
	 SCS Opposite-Spin Energy  =      -1.6879534189182994 [Eh]
	 SCS Correlation Energy    =      -1.8286430237604883 [Eh]
	 SCS Total Energy          =    -403.9102355969017140 [Eh]
	-----------------------------------------------------------

  Dipole Moment: [D]
     X:    -2.5532      Y:    -3.1337      Z:     0.8473     Total:     4.1300

*** Psi4 exiting successfully. Buy a developer a beer!
