                               Psi4 1.3.2 release

  ==> Input File <==

--------------------------------------------------------------------------
#psi4
#
memory 32 gb

molecule  {
0 1
  O        1.7739800     1.6003060    -0.2911220
  N        0.9906540    -0.4920130     0.2058460
  C       -2.2286800    -0.2510300    -0.1765170
  C       -1.3553598    -1.4993115    -0.2934910
  C       -1.5989250     1.1242550    -0.3956020
  C       -0.0841310    -1.3759550     0.6456410
  C       -0.4584780     1.4603760     0.5782350
  C        0.8707430     0.8730760     0.1404640
  C        2.1918860    -1.1187650    -0.3259700
  H       -2.6699130    -0.2765890     0.8297550
  H       -3.0608600    -0.3791320    -0.8796750
  H       -1.8321650    -2.3606500    -0.1255340
  H       -0.8887130    -1.5005570    -1.3409750
  H       -2.3834680     1.8827830    -0.2893500
  H       -1.2246060     1.2090190    -1.4238390
  H       -0.4244360    -1.0900460     1.6492300
  H        0.3620160    -2.3701320     0.7449650
  H       -0.7218730     1.1400510     1.5944380
  H       -0.2910430     2.5394790     0.6064930
  H        1.9486170    -1.7578730    -1.1825500
  H        2.6762910    -1.7288140     0.4434650
  H        2.8674440    -0.3269360    -0.6441440
units angstrom
no_reorient  #important for SAPT in psi4, default
symmetry c1  #important for SAPT in psi4, default
}

set PROPERTIES_ORIGIN ["COM"]
properties('MP2/aug-cc-pvtz', properties = ['dipole'])
--------------------------------------------------------------------------

    Molecular point group: c1
  Charge       = 0
  Multiplicity = 1
  Basis Set: AUG-CC-PVTZ
    Blend: AUG-CC-PVTZ
  Basis Set: (AUG-CC-PVTZ AUX)
    Blend: AUG-CC-PVTZ-JKFIT

    Orbital Energies [Eh]
    ---------------------

    Doubly Occupied:

       1A    -20.506441     2A    -15.582690     3A    -11.340488
       4A    -11.273574     5A    -11.250718     6A    -11.236977
       7A    -11.233888     8A    -11.232825     9A    -11.231473
      10A     -1.362365    11A     -1.240004    12A     -1.096202
      13A     -1.036354    14A     -0.973828    15A     -0.913061
      16A     -0.883874    17A     -0.793293    18A     -0.723604
      19A     -0.691742    20A     -0.669670    21A     -0.632724
      22A     -0.608330    23A     -0.603934    24A     -0.598070
      25A     -0.584316    26A     -0.558665    27A     -0.544018
      28A     -0.529480    29A     -0.509607    30A     -0.501909
      31A     -0.481697    32A     -0.468021    33A     -0.460187
      34A     -0.408053    35A     -0.363920

  @DF-RHF Final Energy:  -402.09910153589999

   => Energetics <=

    Nuclear Repulsion Energy =            484.8409682654498738
    One-Electron Energy =               -1507.6281294386310492
    Two-Electron Energy =                 620.6880596372811851
    Total Energy =                       -402.0991015358999903
  Basis Set: (AUG-CC-PVTZ AUX)
    Blend: AUG-CC-PVTZ-RI
    Molecular point group: c1

    Geometry (in Angstrom), charge = 0, multiplicity = 1:

       Center              X                  Y                   Z               Mass
    ------------   -----------------  -----------------  -----------------  -----------------
         O            1.737751288028     1.567260013442    -0.293334952030    15.994914619570
         N            0.954425288028    -0.525058986558     0.203633047970    14.003074004430
         C           -2.264908711972    -0.284075986558    -0.178729952030    12.000000000000
         C           -1.391588511972    -1.532357486558    -0.295703952030    12.000000000000
         C           -1.635153711972     1.091209013442    -0.397814952030    12.000000000000
         C           -0.120359711972    -1.409000986558     0.643428047970    12.000000000000
         C           -0.494706711972     1.427330013442     0.576022047970    12.000000000000
         C            0.834514288028     0.840030013442     0.138251047970    12.000000000000
         C            2.155657288028    -1.151810986558    -0.328182952030    12.000000000000
         H           -2.706141711972    -0.309634986558     0.827542047970     1.007825032230
         H           -3.097088711972    -0.412177986558    -0.881887952030     1.007825032230
         H           -1.868393711972    -2.393695986558    -0.127746952030     1.007825032230
         H           -0.924941711972    -1.533602986558    -1.343187952030     1.007825032230
         H           -2.419696711972     1.849737013442    -0.291562952030     1.007825032230
         H           -1.260834711972     1.175973013442    -1.426051952030     1.007825032230
         H           -0.460664711972    -1.123091986558     1.647017047970     1.007825032230
         H            0.325787288028    -2.403177986558     0.742752047970     1.007825032230
         H           -0.758101711972     1.107005013442     1.592225047970     1.007825032230
         H           -0.327271711972     2.506433013442     0.604280047970     1.007825032230
         H            1.912388288028    -1.790918986558    -1.184762952030     1.007825032230
         H            2.640062288028    -1.761859986558     0.441252047970     1.007825032230
         H            2.831215288028    -0.359981986558    -0.646356952030     1.007825032230

  Basis Set: AUG-CC-PVTZ
    Blend: AUG-CC-PVTZ
  Basis Set: (AUG-CC-PVTZ AUX)
    Blend: AUG-CC-PVTZ-JKFIT
	 Reference Energy          =    -402.0991015358999903 [Eh]
	 Singles Energy            =      -0.0000000000000000 [Eh]
	 Same-Spin Energy          =      -0.4216788122223303 [Eh]
	 Opposite-Spin Energy      =      -1.4055222976390591 [Eh]
	 Correlation Energy        =      -1.8272011098613894 [Eh]
	 Total Energy              =    -403.9263026457613819 [Eh]

	 ================> DF-SCS-MP2 Energies <==================
	-----------------------------------------------------------
	 SCS Same-Spin Scale       =       0.3333333333333333 [-]
	 SCS Opposite-Spin Scale   =       1.2000000000000000 [-]
	 SCS Same-Spin Energy      =      -0.1405596040741101 [Eh]
	 SCS Opposite-Spin Energy  =      -1.6866267571668709 [Eh]
	 SCS Correlation Energy    =      -1.8271863612409811 [Eh]
	 SCS Total Energy          =    -403.9262878971409805 [Eh]
	-----------------------------------------------------------

  Dipole Moment: [D]
     X:    -2.5788      Y:    -3.0795      Z:     0.8030     Total:     4.0962

*** Psi4 exiting successfully. Buy a developer a beer!
