                               Psi4 1.3.2 release

  ==> Input File <==

--------------------------------------------------------------------------
#psi4
#
memory 32 gb

molecule  {
0 1
  O        1.7739800     1.6003060    -0.2911220
  N        0.9906540    -0.4920130     0.2058460
  C       -2.2286800    -0.2510300    -0.1765170
  C       -1.2730330    -1.4351160    -0.3152870
  C       -1.5989250     1.1242550    -0.3956020
  C       -0.0841310    -1.3759550     0.6456410
  C       -0.4584780     1.4603760     0.5782350
  C        0.8707430     0.8730760     0.1404640
  C        2.1918860    -1.1187650    -0.3259700
  H       -2.6699130    -0.2765890     0.8297550
  H       -3.0608600    -0.3791320    -0.8796750
  H       -1.8145831    -2.3827066    -0.1967817
  H       -0.8887130    -1.5005570    -1.3409750
  H       -2.3834680     1.8827830    -0.2893500
  H       -1.2246060     1.2090190    -1.4238390
  H       -0.4244360    -1.0900460     1.6492300
  H        0.3620160    -2.3701320     0.7449650
  H       -0.7218730     1.1400510     1.5944380
  H       -0.2910430     2.5394790     0.6064930
  H        1.9486170    -1.7578730    -1.1825500
  H        2.6762910    -1.7288140     0.4434650
  H        2.8674440    -0.3269360    -0.6441440
units angstrom
no_reorient  #important for SAPT in psi4, default
symmetry c1  #important for SAPT in psi4, default
}

set PROPERTIES_ORIGIN ["COM"]
properties('MP2/aug-cc-pvtz', properties = ['dipole'])
--------------------------------------------------------------------------

    Molecular point group: c1
  Charge       = 0
  Multiplicity = 1
  Basis Set: AUG-CC-PVTZ
    Blend: AUG-CC-PVTZ
  Basis Set: (AUG-CC-PVTZ AUX)
    Blend: AUG-CC-PVTZ-JKFIT

    Orbital Energies [Eh]
    ---------------------

    Doubly Occupied:

       1A    -20.505760     2A    -15.580698     3A    -11.339995
       4A    -11.272543     5A    -11.250605     6A    -11.234942
       7A    -11.233603     8A    -11.233124     9A    -11.231823
      10A     -1.361892    11A     -1.241232    12A     -1.097405
      13A     -1.037896    14A     -0.975646    15A     -0.913912
      16A     -0.878533    17A     -0.793594    18A     -0.725495
      19A     -0.690191    20A     -0.668966    21A     -0.633779
      22A     -0.608467    23A     -0.600687    24A     -0.593504
      25A     -0.583311    26A     -0.558203    27A     -0.544261
      28A     -0.528518    29A     -0.509339    30A     -0.507860
      31A     -0.477781    32A     -0.468516    33A     -0.465919
      34A     -0.407503    35A     -0.365366

  @DF-RHF Final Energy:  -402.11145832177363

   => Energetics <=

    Nuclear Repulsion Energy =            486.2556484621774189
    One-Electron Energy =               -1510.4924758850565922
    Two-Electron Energy =                 622.1253691011056617
    Total Energy =                       -402.1114583217736254
  Basis Set: (AUG-CC-PVTZ AUX)
    Blend: AUG-CC-PVTZ-RI
    Molecular point group: c1

    Geometry (in Angstrom), charge = 0, multiplicity = 1:

       Center              X                  Y                   Z               Mass
    ------------   -----------------  -----------------  -----------------  -----------------
         O            1.729839066616     1.561373951369    -0.290712151357    15.994914619570
         N            0.946513066616    -0.530945048631     0.206255848643    14.003074004430
         C           -2.272820933384    -0.289962048631    -0.176107151357    12.000000000000
         C           -1.317173933384    -1.474048048631    -0.314877151357    12.000000000000
         C           -1.643065933384     1.085322951369    -0.395192151357    12.000000000000
         C           -0.128271933384    -1.414887048631     0.646050848643    12.000000000000
         C           -0.502618933384     1.421443951369     0.578644848643    12.000000000000
         C            0.826602066616     0.834143951369     0.140873848643    12.000000000000
         C            2.147745066616    -1.157697048631    -0.325560151357    12.000000000000
         H           -2.714053933384    -0.315521048631     0.830164848643     1.007825032230
         H           -3.105000933384    -0.418064048631    -0.879265151357     1.007825032230
         H           -1.858724033384    -2.421638648631    -0.196371851357     1.007825032230
         H           -0.932853933384    -1.539489048631    -1.340565151357     1.007825032230
         H           -2.427608933384     1.843850951369    -0.288940151357     1.007825032230
         H           -1.268746933384     1.170086951369    -1.423429151357     1.007825032230
         H           -0.468576933384    -1.128978048631     1.649639848643     1.007825032230
         H            0.317875066616    -2.409064048631     0.745374848643     1.007825032230
         H           -0.766013933384     1.101118951369     1.594847848643     1.007825032230
         H           -0.335183933384     2.500546951369     0.606902848643     1.007825032230
         H            1.904476066616    -1.796805048631    -1.182140151357     1.007825032230
         H            2.632150066616    -1.767746048631     0.443874848643     1.007825032230
         H            2.823303066616    -0.365868048631    -0.643734151357     1.007825032230

  Basis Set: AUG-CC-PVTZ
    Blend: AUG-CC-PVTZ
  Basis Set: (AUG-CC-PVTZ AUX)
    Blend: AUG-CC-PVTZ-JKFIT
	 Reference Energy          =    -402.1114583217736254 [Eh]
	 Singles Energy            =      -0.0000000000000000 [Eh]
	 Same-Spin Energy          =      -0.4218068000657758 [Eh]
	 Opposite-Spin Energy      =      -1.4052139552934297 [Eh]
	 Correlation Energy        =      -1.8270207553592055 [Eh]
	 Total Energy              =    -403.9384790771328539 [Eh]

	 ================> DF-SCS-MP2 Energies <==================
	-----------------------------------------------------------
	 SCS Same-Spin Scale       =       0.3333333333333333 [-]
	 SCS Opposite-Spin Scale   =       1.2000000000000000 [-]
	 SCS Same-Spin Energy      =      -0.1406022666885919 [Eh]
	 SCS Opposite-Spin Energy  =      -1.6862567463521156 [Eh]
	 SCS Correlation Energy    =      -1.8268590130407076 [Eh]
	 SCS Total Energy          =    -403.9383173348143146 [Eh]
	-----------------------------------------------------------

  Dipole Moment: [D]
     X:    -2.5757      Y:    -3.1100      Z:     0.7713     Total:     4.1111

*** Psi4 exiting successfully. Buy a developer a beer!
