                               Psi4 1.3.2 release

  ==> Input File <==

--------------------------------------------------------------------------
#psi4
#
memory 32 gb

molecule  {
0 1
  O        1.7739800     1.6003060    -0.2911220
  N        0.9906540    -0.4920130     0.2058460
  C       -2.2286800    -0.2510300    -0.1765170
  C       -1.2850637    -1.4494766    -0.2653534
  C       -1.5989250     1.1242550    -0.3956020
  C       -0.0841310    -1.3759550     0.6456410
  C       -0.4584780     1.4603760     0.5782350
  C        0.8707430     0.8730760     0.1404640
  C        2.1918860    -1.1187650    -0.3259700
  H       -2.6699130    -0.2765890     0.8297550
  H       -3.0608600    -0.3791320    -0.8796750
  H       -1.8321650    -2.3606500    -0.1255340
  H       -0.8887130    -1.5005570    -1.3409750
  H       -2.3834680     1.8827830    -0.2893500
  H       -1.2246060     1.2090190    -1.4238390
  H       -0.4244360    -1.0900460     1.6492300
  H        0.3620160    -2.3701320     0.7449650
  H       -0.7218730     1.1400510     1.5944380
  H       -0.2910430     2.5394790     0.6064930
  H        1.9486170    -1.7578730    -1.1825500
  H        2.6762910    -1.7288140     0.4434650
  H        2.8674440    -0.3269360    -0.6441440
units angstrom
no_reorient  #important for SAPT in psi4, default
symmetry c1  #important for SAPT in psi4, default
}

set PROPERTIES_ORIGIN ["COM"]
properties('MP2/aug-cc-pvtz', properties = ['dipole'])
--------------------------------------------------------------------------

    Molecular point group: c1
  Charge       = 0
  Multiplicity = 1
  Basis Set: AUG-CC-PVTZ
    Blend: AUG-CC-PVTZ
  Basis Set: (AUG-CC-PVTZ AUX)
    Blend: AUG-CC-PVTZ-JKFIT

    Orbital Energies [Eh]
    ---------------------

    Doubly Occupied:

       1A    -20.506106     2A    -15.581478     3A    -11.340353
       4A    -11.271845     5A    -11.250747     6A    -11.235329
       7A    -11.234777     8A    -11.233793     9A    -11.231759
      10A     -1.362213    11A     -1.241771    12A     -1.098281
      13A     -1.040540    14A     -0.976480    15A     -0.914807
      16A     -0.878289    17A     -0.790922    18A     -0.725670
      19A     -0.691357    20A     -0.670892    21A     -0.633577
      22A     -0.608355    23A     -0.600902    24A     -0.594907
      25A     -0.585237    26A     -0.560178    27A     -0.545582
      28A     -0.528459    29A     -0.510703    30A     -0.504696
      31A     -0.473026    32A     -0.468764    33A     -0.465577
      34A     -0.407840    35A     -0.366641

  @DF-RHF Final Energy:  -402.10889696823335

   => Energetics <=

    Nuclear Repulsion Energy =            486.3059167015431399
    One-Electron Energy =               -1510.5659207091648568
    Two-Electron Energy =                 622.1511070393884211
    Total Energy =                       -402.1088969682333527
  Basis Set: (AUG-CC-PVTZ AUX)
    Blend: AUG-CC-PVTZ-RI
    Molecular point group: c1

    Geometry (in Angstrom), charge = 0, multiplicity = 1:

       Center              X                  Y                   Z               Mass
    ------------   -----------------  -----------------  -----------------  -----------------
         O            1.731114347840     1.562554898215    -0.295991537079    15.994914619570
         N            0.947788347840    -0.529764101785     0.200976462921    14.003074004430
         C           -2.271545652160    -0.288781101785    -0.181386537079    12.000000000000
         C           -1.327929352160    -1.487227701785    -0.270222937079    12.000000000000
         C           -1.641790652160     1.086503898215    -0.400471537079    12.000000000000
         C           -0.126996652160    -1.413706101785     0.640771462921    12.000000000000
         C           -0.501343652160     1.422624898215     0.573365462921    12.000000000000
         C            0.827877347840     0.835324898215     0.135594462921    12.000000000000
         C            2.149020347840    -1.156516101785    -0.330839537079    12.000000000000
         H           -2.712778652160    -0.314340101785     0.824885462921     1.007825032230
         H           -3.103725652160    -0.416883101785    -0.884544537079     1.007825032230
         H           -1.875030652160    -2.398401101785    -0.130403537079     1.007825032230
         H           -0.931578652160    -1.538308101785    -1.345844537079     1.007825032230
         H           -2.426333652160     1.845031898215    -0.294219537079     1.007825032230
         H           -1.267471652160     1.171267898215    -1.428708537079     1.007825032230
         H           -0.467301652160    -1.127797101785     1.644360462921     1.007825032230
         H            0.319150347840    -2.407883101785     0.740095462921     1.007825032230
         H           -0.764738652160     1.102299898215     1.589568462921     1.007825032230
         H           -0.333908652160     2.501727898215     0.601623462921     1.007825032230
         H            1.905751347840    -1.795624101785    -1.187419537079     1.007825032230
         H            2.633425347840    -1.766565101785     0.438595462921     1.007825032230
         H            2.824578347840    -0.364687101785    -0.649013537079     1.007825032230

  Basis Set: AUG-CC-PVTZ
    Blend: AUG-CC-PVTZ
  Basis Set: (AUG-CC-PVTZ AUX)
    Blend: AUG-CC-PVTZ-JKFIT
	 Reference Energy          =    -402.1088969682333527 [Eh]
	 Singles Energy            =      -0.0000000000000000 [Eh]
	 Same-Spin Energy          =      -0.4219494861895402 [Eh]
	 Opposite-Spin Energy      =      -1.4054416731792800 [Eh]
	 Correlation Energy        =      -1.8273911593688204 [Eh]
	 Total Energy              =    -403.9362881276021540 [Eh]

	 ================> DF-SCS-MP2 Energies <==================
	-----------------------------------------------------------
	 SCS Same-Spin Scale       =       0.3333333333333333 [-]
	 SCS Opposite-Spin Scale   =       1.2000000000000000 [-]
	 SCS Same-Spin Energy      =      -0.1406498287298467 [Eh]
	 SCS Opposite-Spin Energy  =      -1.6865300078151360 [Eh]
	 SCS Correlation Energy    =      -1.8271798365449827 [Eh]
	 SCS Total Energy          =    -403.9360768047783381 [Eh]
	-----------------------------------------------------------

  Dipole Moment: [D]
     X:    -2.5901      Y:    -3.0983      Z:     0.8068     Total:     4.1181

*** Psi4 exiting successfully. Buy a developer a beer!
