                               Psi4 1.3.2 release

  ==> Input File <==

--------------------------------------------------------------------------
#psi4
#
memory 32 gb

molecule  {
0 1
  O        1.7739800     1.6003060    -0.2911220
  N        0.9049875    -0.4622077     0.0829277
  C       -2.2286800    -0.2510300    -0.1765170
  C       -1.2730330    -1.4351160    -0.3152870
  C       -1.5989250     1.1242550    -0.3956020
  C       -0.0841310    -1.3759550     0.6456410
  C       -0.4584780     1.4603760     0.5782350
  C        0.8707430     0.8730760     0.1404640
  C        2.1918860    -1.1187650    -0.3259700
  H       -2.6699130    -0.2765890     0.8297550
  H       -3.0608600    -0.3791320    -0.8796750
  H       -1.8321650    -2.3606500    -0.1255340
  H       -0.8887130    -1.5005570    -1.3409750
  H       -2.3834680     1.8827830    -0.2893500
  H       -1.2246060     1.2090190    -1.4238390
  H       -0.4244360    -1.0900460     1.6492300
  H        0.3620160    -2.3701320     0.7449650
  H       -0.7218730     1.1400510     1.5944380
  H       -0.2910430     2.5394790     0.6064930
  H        1.9486170    -1.7578730    -1.1825500
  H        2.6762910    -1.7288140     0.4434650
  H        2.8674440    -0.3269360    -0.6441440
units angstrom
no_reorient  #important for SAPT in psi4, default
symmetry c1  #important for SAPT in psi4, default
}

set PROPERTIES_ORIGIN ["COM"]
properties('MP2/aug-cc-pvtz', properties = ['dipole'])
--------------------------------------------------------------------------

    Molecular point group: c1
  Charge       = 0
  Multiplicity = 1
  Basis Set: AUG-CC-PVTZ
    Blend: AUG-CC-PVTZ
  Basis Set: (AUG-CC-PVTZ AUX)
    Blend: AUG-CC-PVTZ-JKFIT

    Orbital Energies [Eh]
    ---------------------

    Doubly Occupied:

       1A    -20.500942     2A    -15.583550     3A    -11.334566
       4A    -11.274268     5A    -11.255890     6A    -11.232609
       7A    -11.230930     8A    -11.230102     9A    -11.230013
      10A     -1.361525    11A     -1.242840    12A     -1.094303
      13A     -1.039722    14A     -0.972173    15A     -0.920960
      16A     -0.874867    17A     -0.791558    18A     -0.730043
      19A     -0.688275    20A     -0.669463    21A     -0.632396
      22A     -0.601962    23A     -0.599143    24A     -0.595217
      25A     -0.582922    26A     -0.560904    27A     -0.544406
      28A     -0.524447    29A     -0.511408    30A     -0.504813
      31A     -0.477717    32A     -0.464335    33A     -0.463241
      34A     -0.404633    35A     -0.369342

  @DF-RHF Final Energy:  -402.10504455689653

   => Energetics <=

    Nuclear Repulsion Energy =            487.4212717121357628
    One-Electron Energy =               -1512.8616563831803887
    Two-Electron Energy =                 623.3353401141481527
    Total Energy =                       -402.1050445568965870
  Basis Set: (AUG-CC-PVTZ AUX)
    Blend: AUG-CC-PVTZ-RI
    Molecular point group: c1

    Geometry (in Angstrom), charge = 0, multiplicity = 1:

       Center              X                  Y                   Z               Mass
    ------------   -----------------  -----------------  -----------------  -----------------
         O            1.739416694916     1.557915288865    -0.277734711964    15.994914619570
         N            0.870424194916    -0.504598411135     0.096314988036    14.003074004430
         C           -2.263243305084    -0.293420711135    -0.163129711964    12.000000000000
         C           -1.307596305084    -1.477506711135    -0.301899711964    12.000000000000
         C           -1.633488305084     1.081864288865    -0.382214711964    12.000000000000
         C           -0.118694305084    -1.418345711135     0.659028288036    12.000000000000
         C           -0.493041305084     1.417985288865     0.591622288036    12.000000000000
         C            0.836179694916     0.830685288865     0.153851288036    12.000000000000
         C            2.157322694916    -1.161155711135    -0.312582711964    12.000000000000
         H           -2.704476305084    -0.318979711135     0.843142288036     1.007825032230
         H           -3.095423305084    -0.421522711135    -0.866287711964     1.007825032230
         H           -1.866728305084    -2.403040711135    -0.112146711964     1.007825032230
         H           -0.923276305084    -1.542947711135    -1.327587711964     1.007825032230
         H           -2.418031305084     1.840392288865    -0.275962711964     1.007825032230
         H           -1.259169305084     1.166628288865    -1.410451711964     1.007825032230
         H           -0.458999305084    -1.132436711135     1.662617288036     1.007825032230
         H            0.327452694916    -2.412522711135     0.758352288036     1.007825032230
         H           -0.756436305084     1.097660288865     1.607825288036     1.007825032230
         H           -0.325606305084     2.497088288865     0.619880288036     1.007825032230
         H            1.914053694916    -1.800263711135    -1.169162711964     1.007825032230
         H            2.641727694916    -1.771204711135     0.456852288036     1.007825032230
         H            2.832880694916    -0.369326711135    -0.630756711964     1.007825032230

  Basis Set: AUG-CC-PVTZ
    Blend: AUG-CC-PVTZ
  Basis Set: (AUG-CC-PVTZ AUX)
    Blend: AUG-CC-PVTZ-JKFIT
	 Reference Energy          =    -402.1050445568965301 [Eh]
	 Singles Energy            =      -0.0000000000000000 [Eh]
	 Same-Spin Energy          =      -0.4219644476089937 [Eh]
	 Opposite-Spin Energy      =      -1.4059094284402687 [Eh]
	 Correlation Energy        =      -1.8278738760492623 [Eh]
	 Total Energy              =    -403.9329184329457689 [Eh]

	 ================> DF-SCS-MP2 Energies <==================
	-----------------------------------------------------------
	 SCS Same-Spin Scale       =       0.3333333333333333 [-]
	 SCS Opposite-Spin Scale   =       1.2000000000000000 [-]
	 SCS Same-Spin Energy      =      -0.1406548158696646 [Eh]
	 SCS Opposite-Spin Energy  =      -1.6870913141283224 [Eh]
	 SCS Correlation Energy    =      -1.8277461299979869 [Eh]
	 SCS Total Energy          =    -403.9327906868945206 [Eh]
	-----------------------------------------------------------

  Dipole Moment: [D]
     X:    -2.4104      Y:    -3.3137      Z:     0.9685     Total:     4.2106

*** Psi4 exiting successfully. Buy a developer a beer!
