                               Psi4 1.3.2 release

  ==> Input File <==

--------------------------------------------------------------------------
#psi4
#
memory 32 gb

molecule  {
0 1
  O        1.7739800     1.6003060    -0.2911220
  N        0.9906540    -0.4920130     0.2058460
  C       -2.2286800    -0.2510300    -0.1765170
  C       -1.1682836    -1.4768824    -0.4289740
  C       -1.5989250     1.1242550    -0.3956020
  C       -0.0841310    -1.3759550     0.6456410
  C       -0.4584780     1.4603760     0.5782350
  C        0.8707430     0.8730760     0.1404640
  C        2.1918860    -1.1187650    -0.3259700
  H       -2.6699130    -0.2765890     0.8297550
  H       -3.0608600    -0.3791320    -0.8796750
  H       -1.8321650    -2.3606500    -0.1255340
  H       -0.8887130    -1.5005570    -1.3409750
  H       -2.3834680     1.8827830    -0.2893500
  H       -1.2246060     1.2090190    -1.4238390
  H       -0.4244360    -1.0900460     1.6492300
  H        0.3620160    -2.3701320     0.7449650
  H       -0.7218730     1.1400510     1.5944380
  H       -0.2910430     2.5394790     0.6064930
  H        1.9486170    -1.7578730    -1.1825500
  H        2.6762910    -1.7288140     0.4434650
  H        2.8674440    -0.3269360    -0.6441440
units angstrom
no_reorient  #important for SAPT in psi4, default
symmetry c1  #important for SAPT in psi4, default
}

set PROPERTIES_ORIGIN ["COM"]
properties('MP2/aug-cc-pvtz', properties = ['dipole'])
--------------------------------------------------------------------------

    Molecular point group: c1
  Charge       = 0
  Multiplicity = 1
  Basis Set: AUG-CC-PVTZ
    Blend: AUG-CC-PVTZ
  Basis Set: (AUG-CC-PVTZ AUX)
    Blend: AUG-CC-PVTZ-JKFIT

    Orbital Energies [Eh]
    ---------------------

    Doubly Occupied:

       1A    -20.505063     2A    -15.579349     3A    -11.339333
       4A    -11.273445     5A    -11.250524     6A    -11.236101
       7A    -11.233145     8A    -11.232560     9A    -11.231454
      10A     -1.361380    11A     -1.241484    12A     -1.089309
      13A     -1.036542    14A     -0.973367    15A     -0.910993
      16A     -0.881192    17A     -0.801561    18A     -0.727512
      19A     -0.688700    20A     -0.664691    21A     -0.638520
      22A     -0.610502    23A     -0.599659    24A     -0.590216
      25A     -0.580293    26A     -0.557952    27A     -0.550279
      28A     -0.537180    29A     -0.515698    30A     -0.506035
      31A     -0.487176    32A     -0.465782    33A     -0.435404
      34A     -0.406834    35A     -0.364511

  @DF-RHF Final Energy:  -402.08224591912420

   => Energetics <=

    Nuclear Repulsion Energy =            485.7967394821370135
    One-Electron Energy =               -1509.5504759249613471
    Two-Electron Energy =                 621.6714905237001858
    Total Energy =                       -402.0822459191241478
  Basis Set: (AUG-CC-PVTZ AUX)
    Blend: AUG-CC-PVTZ-RI
    Molecular point group: c1

    Geometry (in Angstrom), charge = 0, multiplicity = 1:

       Center              X                  Y                   Z               Mass
    ------------   -----------------  -----------------  -----------------  -----------------
         O            1.720088664497     1.565142391054    -0.280543451969    15.994914619570
         N            0.936762664497    -0.527176608946     0.216424548031    14.003074004430
         C           -2.282571335503    -0.286193608946    -0.165938451969    12.000000000000
         C           -1.222174935503    -1.512046008946    -0.418395451969    12.000000000000
         C           -1.652816335503     1.089091391054    -0.385023451969    12.000000000000
         C           -0.138022335503    -1.411118608946     0.656219548031    12.000000000000
         C           -0.512369335503     1.425212391054     0.588813548031    12.000000000000
         C            0.816851664497     0.837912391054     0.151042548031    12.000000000000
         C            2.137994664497    -1.153928608946    -0.315391451969    12.000000000000
         H           -2.723804335503    -0.311752608946     0.840333548031     1.007825032230
         H           -3.114751335503    -0.414295608946    -0.869096451969     1.007825032230
         H           -1.886056335503    -2.395813608946    -0.114955451969     1.007825032230
         H           -0.942604335503    -1.535720608946    -1.330396451969     1.007825032230
         H           -2.437359335503     1.847619391054    -0.278771451969     1.007825032230
         H           -1.278497335503     1.173855391054    -1.413260451969     1.007825032230
         H           -0.478327335503    -1.125209608946     1.659808548031     1.007825032230
         H            0.308124664497    -2.405295608946     0.755543548031     1.007825032230
         H           -0.775764335503     1.104887391054     1.605016548031     1.007825032230
         H           -0.344934335503     2.504315391054     0.617071548031     1.007825032230
         H            1.894725664497    -1.793036608946    -1.171971451969     1.007825032230
         H            2.622399664497    -1.763977608946     0.454043548031     1.007825032230
         H            2.813552664497    -0.362099608946    -0.633565451969     1.007825032230

  Basis Set: AUG-CC-PVTZ
    Blend: AUG-CC-PVTZ
  Basis Set: (AUG-CC-PVTZ AUX)
    Blend: AUG-CC-PVTZ-JKFIT
	 Reference Energy          =    -402.0822459191242046 [Eh]
	 Singles Energy            =      -0.0000000000000000 [Eh]
	 Same-Spin Energy          =      -0.4217702664754823 [Eh]
	 Opposite-Spin Energy      =      -1.4063476636325880 [Eh]
	 Correlation Energy        =      -1.8281179301080703 [Eh]
	 Total Energy              =    -403.9103638492322830 [Eh]

	 ================> DF-SCS-MP2 Energies <==================
	-----------------------------------------------------------
	 SCS Same-Spin Scale       =       0.3333333333333333 [-]
	 SCS Opposite-Spin Scale   =       1.2000000000000000 [-]
	 SCS Same-Spin Energy      =      -0.1405900888251608 [Eh]
	 SCS Opposite-Spin Energy  =      -1.6876171963591056 [Eh]
	 SCS Correlation Energy    =      -1.8282072851842663 [Eh]
	 SCS Total Energy          =    -403.9104532043084532 [Eh]
	-----------------------------------------------------------

  Dipole Moment: [D]
     X:    -2.5488      Y:    -3.0999      Z:     0.8018     Total:     4.0925

*** Psi4 exiting successfully. Buy a developer a beer!
