                               Psi4 1.3.2 release

  ==> Input File <==

--------------------------------------------------------------------------
#psi4
#
memory 32 gb

molecule  {
0 1
  O        1.7739800     1.6003060    -0.2911220
  N        0.9906540    -0.4920130     0.2058460
  C       -2.2286800    -0.2510300    -0.1765170
  C       -1.3355781    -1.3576200    -0.3062048
  C       -1.5989250     1.1242550    -0.3956020
  C       -0.0841310    -1.3759550     0.6456410
  C       -0.4584780     1.4603760     0.5782350
  C        0.8707430     0.8730760     0.1404640
  C        2.1918860    -1.1187650    -0.3259700
  H       -2.6699130    -0.2765890     0.8297550
  H       -3.0608600    -0.3791320    -0.8796750
  H       -1.8321650    -2.3606500    -0.1255340
  H       -0.8887130    -1.5005570    -1.3409750
  H       -2.3834680     1.8827830    -0.2893500
  H       -1.2246060     1.2090190    -1.4238390
  H       -0.4244360    -1.0900460     1.6492300
  H        0.3620160    -2.3701320     0.7449650
  H       -0.7218730     1.1400510     1.5944380
  H       -0.2910430     2.5394790     0.6064930
  H        1.9486170    -1.7578730    -1.1825500
  H        2.6762910    -1.7288140     0.4434650
  H        2.8674440    -0.3269360    -0.6441440
units angstrom
no_reorient  #important for SAPT in psi4, default
symmetry c1  #important for SAPT in psi4, default
}

set PROPERTIES_ORIGIN ["COM"]
properties('MP2/aug-cc-pvtz', properties = ['dipole'])
--------------------------------------------------------------------------

    Molecular point group: c1
  Charge       = 0
  Multiplicity = 1
  Basis Set: AUG-CC-PVTZ
    Blend: AUG-CC-PVTZ
  Basis Set: (AUG-CC-PVTZ AUX)
    Blend: AUG-CC-PVTZ-JKFIT

    Orbital Energies [Eh]
    ---------------------

    Doubly Occupied:

       1A    -20.505745     2A    -15.580151     3A    -11.339945
       4A    -11.274449     5A    -11.250509     6A    -11.237750
       7A    -11.235424     8A    -11.234164     9A    -11.227676
      10A     -1.361820    11A     -1.240528    12A     -1.108685
      13A     -1.037800    14A     -0.976454    15A     -0.916363
      16A     -0.878802    17A     -0.789458    18A     -0.724170
      19A     -0.691267    20A     -0.670220    21A     -0.632914
      22A     -0.615896    23A     -0.602382    24A     -0.597467
      25A     -0.581833    26A     -0.554570    27A     -0.546134
      28A     -0.525716    29A     -0.512453    30A     -0.505243
      31A     -0.485808    32A     -0.464854    33A     -0.460935
      34A     -0.407518    35A     -0.361587

  @DF-RHF Final Energy:  -402.10040044346101

   => Energetics <=

    Nuclear Repulsion Energy =            486.9719308618203968
    One-Electron Energy =               -1511.8712807635331501
    Two-Electron Energy =                 622.7989494582518546
    Total Energy =                       -402.1004004434610124
  Basis Set: (AUG-CC-PVTZ AUX)
    Blend: AUG-CC-PVTZ-RI
    Molecular point group: c1

    Geometry (in Angstrom), charge = 0, multiplicity = 1:

       Center              X                  Y                   Z               Mass
    ------------   -----------------  -----------------  -----------------  -----------------
         O            1.735883617421     1.553882343691    -0.292134590557    15.994914619570
         N            0.952557617421    -0.538436656309     0.204833409443    14.003074004430
         C           -2.266776382579    -0.297453656309    -0.177529590557    12.000000000000
         C           -1.373674482579    -1.404043656309    -0.307217390557    12.000000000000
         C           -1.637021382579     1.077831343691    -0.396614590557    12.000000000000
         C           -0.122227382579    -1.422378656309     0.644628409443    12.000000000000
         C           -0.496574382579     1.413952343691     0.577222409443    12.000000000000
         C            0.832646617421     0.826652343691     0.139451409443    12.000000000000
         C            2.153789617421    -1.165188656309    -0.326982590557    12.000000000000
         H           -2.708009382579    -0.323012656309     0.828742409443     1.007825032230
         H           -3.098956382579    -0.425555656309    -0.880687590557     1.007825032230
         H           -1.870261382579    -2.407073656309    -0.126546590557     1.007825032230
         H           -0.926809382579    -1.546980656309    -1.341987590557     1.007825032230
         H           -2.421564382579     1.836359343691    -0.290362590557     1.007825032230
         H           -1.262702382579     1.162595343691    -1.424851590557     1.007825032230
         H           -0.462532382579    -1.136469656309     1.648217409443     1.007825032230
         H            0.323919617421    -2.416555656309     0.743952409443     1.007825032230
         H           -0.759969382579     1.093627343691     1.593425409443     1.007825032230
         H           -0.329139382579     2.493055343691     0.605480409443     1.007825032230
         H            1.910520617421    -1.804296656309    -1.183562590557     1.007825032230
         H            2.638194617421    -1.775237656309     0.442452409443     1.007825032230
         H            2.829347617421    -0.373359656309    -0.645156590557     1.007825032230

  Basis Set: AUG-CC-PVTZ
    Blend: AUG-CC-PVTZ
  Basis Set: (AUG-CC-PVTZ AUX)
    Blend: AUG-CC-PVTZ-JKFIT
	 Reference Energy          =    -402.1004004434610124 [Eh]
	 Singles Energy            =      -0.0000000000000000 [Eh]
	 Same-Spin Energy          =      -0.4226985570807155 [Eh]
	 Opposite-Spin Energy      =      -1.4064358054246391 [Eh]
	 Correlation Energy        =      -1.8291343625053544 [Eh]
	 Total Energy              =    -403.9295348059663411 [Eh]

	 ================> DF-SCS-MP2 Energies <==================
	-----------------------------------------------------------
	 SCS Same-Spin Scale       =       0.3333333333333333 [-]
	 SCS Opposite-Spin Scale   =       1.2000000000000000 [-]
	 SCS Same-Spin Energy      =      -0.1408995190269051 [Eh]
	 SCS Opposite-Spin Energy  =      -1.6877229665095668 [Eh]
	 SCS Correlation Energy    =      -1.8286224855364719 [Eh]
	 SCS Total Energy          =    -403.9290229289974832 [Eh]
	-----------------------------------------------------------

  Dipole Moment: [D]
     X:    -2.5944      Y:    -3.0650      Z:     0.8099     Total:     4.0964

*** Psi4 exiting successfully. Buy a developer a beer!
