                               Psi4 1.3.2 release

  ==> Input File <==

--------------------------------------------------------------------------
#psi4
#
memory 32 gb

molecule  {
0 1
  O        1.8426416     1.4921640    -0.3102135
  N        0.9906540    -0.4920130     0.2058460
  C       -2.2286800    -0.2510300    -0.1765170
  C       -1.2730330    -1.4351160    -0.3152870
  C       -1.5989250     1.1242550    -0.3956020
  C       -0.0841310    -1.3759550     0.6456410
  C       -0.4584780     1.4603760     0.5782350
  C        0.8707430     0.8730760     0.1404640
  C        2.1918860    -1.1187650    -0.3259700
  H       -2.6699130    -0.2765890     0.8297550
  H       -3.0608600    -0.3791320    -0.8796750
  H       -1.8321650    -2.3606500    -0.1255340
  H       -0.8887130    -1.5005570    -1.3409750
  H       -2.3834680     1.8827830    -0.2893500
  H       -1.2246060     1.2090190    -1.4238390
  H       -0.4244360    -1.0900460     1.6492300
  H        0.3620160    -2.3701320     0.7449650
  H       -0.7218730     1.1400510     1.5944380
  H       -0.2910430     2.5394790     0.6064930
  H        1.9486170    -1.7578730    -1.1825500
  H        2.6762910    -1.7288140     0.4434650
  H        2.8674440    -0.3269360    -0.6441440
units angstrom
no_reorient  #important for SAPT in psi4, default
symmetry c1  #important for SAPT in psi4, default
}

set PROPERTIES_ORIGIN ["COM"]
properties('MP2/aug-cc-pvtz', properties = ['dipole'])
--------------------------------------------------------------------------

    Molecular point group: c1
  Charge       = 0
  Multiplicity = 1
  Basis Set: AUG-CC-PVTZ
    Blend: AUG-CC-PVTZ
  Basis Set: (AUG-CC-PVTZ AUX)
    Blend: AUG-CC-PVTZ-JKFIT

    Orbital Energies [Eh]
    ---------------------

    Doubly Occupied:

       1A    -20.503562     2A    -15.574442     3A    -11.340265
       4A    -11.268944     5A    -11.244913     6A    -11.240306
       7A    -11.237577     8A    -11.232741     9A    -11.232108
      10A     -1.364494    11A     -1.233769    12A     -1.098914
      13A     -1.039637    14A     -0.974447    15A     -0.911435
      16A     -0.878347    17A     -0.793161    18A     -0.722331
      19A     -0.692721    20A     -0.668777    21A     -0.631686
      22A     -0.607644    23A     -0.602552    24A     -0.594817
      25A     -0.583792    26A     -0.557328    27A     -0.543959
      28A     -0.522936    29A     -0.508818    30A     -0.507497
      31A     -0.480031    32A     -0.469387    33A     -0.466491
      34A     -0.408737    35A     -0.360074

  @DF-RHF Final Energy:  -402.10806940443734

   => Energetics <=

    Nuclear Repulsion Energy =            486.9015844189901259
    One-Electron Energy =               -1511.8220203792743632
    Two-Electron Energy =                 622.8123665558470066
    Total Energy =                       -402.1080694044372876
  Basis Set: (AUG-CC-PVTZ AUX)
    Blend: AUG-CC-PVTZ-RI
    Molecular point group: c1

    Geometry (in Angstrom), charge = 0, multiplicity = 1:

       Center              X                  Y                   Z               Mass
    ------------   -----------------  -----------------  -----------------  -----------------
         O            1.789999333951     1.466666229141    -0.307966025689    15.994914619570
         N            0.938011733951    -0.517510770859     0.208093474311    14.003074004430
         C           -2.281322266049    -0.276527770859    -0.174269525689    12.000000000000
         C           -1.325675266049    -1.460613770859    -0.313039525689    12.000000000000
         C           -1.651567266049     1.098757229141    -0.393354525689    12.000000000000
         C           -0.136773266049    -1.401452770859     0.647888474311    12.000000000000
         C           -0.511120266049     1.434878229141     0.580482474311    12.000000000000
         C            0.818100733951     0.847578229141     0.142711474311    12.000000000000
         C            2.139243733951    -1.144262770859    -0.323722525689    12.000000000000
         H           -2.722555266049    -0.302086770859     0.832002474311     1.007825032230
         H           -3.113502266049    -0.404629770859    -0.877427525689     1.007825032230
         H           -1.884807266049    -2.386147770859    -0.123286525689     1.007825032230
         H           -0.941355266049    -1.526054770859    -1.338727525689     1.007825032230
         H           -2.436110266049     1.857285229141    -0.287102525689     1.007825032230
         H           -1.277248266049     1.183521229141    -1.421591525689     1.007825032230
         H           -0.477078266049    -1.115543770859     1.651477474311     1.007825032230
         H            0.309373733951    -2.395629770859     0.747212474311     1.007825032230
         H           -0.774515266049     1.114553229141     1.596685474311     1.007825032230
         H           -0.343685266049     2.513981229141     0.608740474311     1.007825032230
         H            1.895974733951    -1.783370770859    -1.180302525689     1.007825032230
         H            2.623648733951    -1.754311770859     0.445712474311     1.007825032230
         H            2.814801733951    -0.352433770859    -0.641896525689     1.007825032230

  Basis Set: AUG-CC-PVTZ
    Blend: AUG-CC-PVTZ
  Basis Set: (AUG-CC-PVTZ AUX)
    Blend: AUG-CC-PVTZ-JKFIT
	 Reference Energy          =    -402.1080694044373445 [Eh]
	 Singles Energy            =      -0.0000000000000000 [Eh]
	 Same-Spin Energy          =      -0.4222106350407089 [Eh]
	 Opposite-Spin Energy      =      -1.4055958350420892 [Eh]
	 Correlation Energy        =      -1.8278064700827981 [Eh]
	 Total Energy              =    -403.9358758745201499 [Eh]

	 ================> DF-SCS-MP2 Energies <==================
	-----------------------------------------------------------
	 SCS Same-Spin Scale       =       0.3333333333333333 [-]
	 SCS Opposite-Spin Scale   =       1.2000000000000000 [-]
	 SCS Same-Spin Energy      =      -0.1407368783469030 [Eh]
	 SCS Opposite-Spin Energy  =      -1.6867150020505071 [Eh]
	 SCS Correlation Energy    =      -1.8274518803974100 [Eh]
	 SCS Total Energy          =    -403.9355212848347492 [Eh]
	-----------------------------------------------------------

  Dipole Moment: [D]
     X:    -2.7921      Y:    -2.7803      Z:     0.8399     Total:     4.0289

*** Psi4 exiting successfully. Buy a developer a beer!
