                               Psi4 1.4a3.dev225

  ==> Input File <==

--------------------------------------------------------------------------
#psi4
#
memory 32 gb

molecule  {
0 1
  O        1.7739800     1.6003060    -0.2911220
  N        0.9906540    -0.4920130     0.2058460
  C       -2.2286800    -0.2510300    -0.1765170
  C       -1.2730330    -1.4351160    -0.3152870
  C       -1.5989250     1.1242550    -0.3956020
  C       -0.0841310    -1.3759550     0.6456410
  C       -0.4584780     1.4603760     0.5782350
  C        0.8707430     0.8730760     0.1404640
  C        2.1918860    -1.1187650    -0.3259700
  H       -2.6699130    -0.2765890     0.8297550
  H       -3.0608600    -0.3791320    -0.8796750
  H       -1.8321650    -2.3606500    -0.1255340
  H       -0.8887130    -1.5005570    -1.3409750
  H       -2.4192451     1.9173738    -0.2845046
  H       -1.2246060     1.2090190    -1.4238390
  H       -0.4244360    -1.0900460     1.6492300
  H        0.3620160    -2.3701320     0.7449650
  H       -0.7218730     1.1400510     1.5944380
  H       -0.2910430     2.5394790     0.6064930
  H        1.9486170    -1.7578730    -1.1825500
  H        2.6762910    -1.7288140     0.4434650
  H        2.8674440    -0.3269360    -0.6441440
units angstrom
no_reorient  #important for SAPT in psi4, default
symmetry c1  #important for SAPT in psi4, default
}

set PROPERTIES_ORIGIN ["COM"]
properties('MP2/aug-cc-pvtz', properties = ['dipole'])
--------------------------------------------------------------------------

    Molecular point group: c1
  Charge       = 0
  Multiplicity = 1
  Basis Set: AUG-CC-PVTZ
    Blend: AUG-CC-PVTZ
  Basis Set: (AUG-CC-PVTZ AUX)
    Blend: AUG-CC-PVTZ-JKFIT

    Orbital Energies [Eh]
    ---------------------

    Doubly Occupied:

       1A    -20.506058     2A    -15.580915     3A    -11.340301
       4A    -11.272507     5A    -11.250828     6A    -11.240642
       7A    -11.234025     8A    -11.233794     9A    -11.231955
      10A     -1.362179    11A     -1.241523    12A     -1.096925
      13A     -1.037973    14A     -0.975443    15A     -0.914084
      16A     -0.876329    17A     -0.791136    18A     -0.725538
      19A     -0.690529    20A     -0.668333    21A     -0.633579
      22A     -0.607605    23A     -0.602207    24A     -0.591764
      25A     -0.582037    26A     -0.558595    27A     -0.544293
      28A     -0.527327    29A     -0.509611    30A     -0.509275
      31A     -0.479589    32A     -0.467746    33A     -0.462657
      34A     -0.407491    35A     -0.365388

  @DF-RHF Final Energy:  -402.10988128181822

   => Energetics <=

    Nuclear Repulsion Energy =            486.0464865177582965
    One-Electron Energy =               -1510.0723727835943464
    Two-Electron Energy =                 621.9160049840178317
    Total Energy =                       -402.1098812818182751
  Basis Set: (AUG-CC-PVTZ AUX)
    Blend: AUG-CC-PVTZ-RI
    Molecular point group: c1

    Geometry (in Angstrom), charge = 0, multiplicity = 1:

       Center              X                  Y                   Z               Mass
    ------------   -----------------  -----------------  -----------------  -----------------
         O            1.730262171705     1.560924771226    -0.291315524319    15.994914619570
         N            0.946936171705    -0.531394228774     0.205652475681    14.003074004430
         C           -2.272397828295    -0.290411228774    -0.176710524319    12.000000000000
         C           -1.316750828295    -1.474497228774    -0.315480524319    12.000000000000
         C           -1.642642828295     1.084873771226    -0.395795524319    12.000000000000
         C           -0.127848828295    -1.415336228774     0.645447475681    12.000000000000
         C           -0.502195828295     1.420994771226     0.578041475681    12.000000000000
         C            0.827025171705     0.833694771226     0.140270475681    12.000000000000
         C            2.148168171705    -1.158146228774    -0.326163524319    12.000000000000
         H           -2.713630828295    -0.315970228774     0.829561475681     1.007825032230
         H           -3.104577828295    -0.418513228774    -0.879868524319     1.007825032230
         H           -1.875882828295    -2.400031228774    -0.125727524319     1.007825032230
         H           -0.932430828295    -1.539938228774    -1.341168524319     1.007825032230
         H           -2.462962928295     1.877992571226    -0.284698124319     1.007825032230
         H           -1.268323828295     1.169637771226    -1.424032524319     1.007825032230
         H           -0.468153828295    -1.129427228774     1.649036475681     1.007825032230
         H            0.318298171705    -2.409513228774     0.744771475681     1.007825032230
         H           -0.765590828295     1.100669771226     1.594244475681     1.007825032230
         H           -0.334760828295     2.500097771226     0.606299475681     1.007825032230
         H            1.904899171705    -1.797254228774    -1.182743524319     1.007825032230
         H            2.632573171705    -1.768195228774     0.443271475681     1.007825032230
         H            2.823726171705    -0.366317228774    -0.644337524319     1.007825032230

  Basis Set: AUG-CC-PVTZ
    Blend: AUG-CC-PVTZ
  Basis Set: (AUG-CC-PVTZ AUX)
    Blend: AUG-CC-PVTZ-JKFIT
	 Reference Energy          =    -402.1098812818182182 [Eh]
	 Singles Energy            =      -0.0000000000000000 [Eh]
	 Same-Spin Energy          =      -0.4218081418981974 [Eh]
	 Opposite-Spin Energy      =      -1.4056031184265740 [Eh]
	 Correlation Energy        =      -1.8274112603247714 [Eh]
	 Total Energy              =    -403.9372925421429841 [Eh]

	 ================> DF-SCS-MP2 Energies <==================
	-----------------------------------------------------------
	 SCS Same-Spin Scale       =       0.3333333333333333 [-]
	 SCS Opposite-Spin Scale   =       1.2000000000000000 [-]
	 SCS Same-Spin Energy      =      -0.1406027139660658 [Eh]
	 SCS Opposite-Spin Energy  =      -1.6867237421118888 [Eh]
	 SCS Correlation Energy    =      -1.8273264560779545 [Eh]
	 SCS Total Energy          =    -403.9372077378961876 [Eh]
	-----------------------------------------------------------

  Dipole Moment: [D]
     X:    -2.5480      Y:    -3.1345      Z:     0.7963     Total:     4.1172

*** Psi4 exiting successfully. Buy a developer a beer!
