                               Psi4 1.3.2 release

  ==> Input File <==

--------------------------------------------------------------------------
#psi4
#
memory 32 gb

molecule  {
0 1
  O        1.7739800     1.6003060    -0.2911220
  N        0.9906540    -0.4920130     0.2058460
  C       -2.2286800    -0.2510300    -0.1765170
  C       -1.2730330    -1.4351160    -0.3152870
  C       -1.5989250     1.1242550    -0.3956020
  C       -0.0841310    -1.3759550     0.6456410
  C       -0.4584780     1.4603760     0.5782350
  C        0.8707430     0.8730760     0.1404640
  C        2.2744141    -1.1618247    -0.3625073
  H       -2.6699130    -0.2765890     0.8297550
  H       -3.0608600    -0.3791320    -0.8796750
  H       -1.8321650    -2.3606500    -0.1255340
  H       -0.8887130    -1.5005570    -1.3409750
  H       -2.3834680     1.8827830    -0.2893500
  H       -1.2246060     1.2090190    -1.4238390
  H       -0.4244360    -1.0900460     1.6492300
  H        0.3620160    -2.3701320     0.7449650
  H       -0.7218730     1.1400510     1.5944380
  H       -0.2910430     2.5394790     0.6064930
  H        1.9486170    -1.7578730    -1.1825500
  H        2.6762910    -1.7288140     0.4434650
  H        2.8674440    -0.3269360    -0.6441440
units angstrom
no_reorient  #important for SAPT in psi4, default
symmetry c1  #important for SAPT in psi4, default
}

set PROPERTIES_ORIGIN ["COM"]
properties('MP2/aug-cc-pvtz', properties = ['dipole'])
--------------------------------------------------------------------------

    Molecular point group: c1
  Charge       = 0
  Multiplicity = 1
  Basis Set: AUG-CC-PVTZ
    Blend: AUG-CC-PVTZ
  Basis Set: (AUG-CC-PVTZ AUX)
    Blend: AUG-CC-PVTZ-JKFIT

    Orbital Energies [Eh]
    ---------------------

    Doubly Occupied:

       1A    -20.502424     2A    -15.577471     3A    -11.336745
       4A    -11.269839     5A    -11.253795     6A    -11.233020
       7A    -11.231591     8A    -11.231456     9A    -11.230033
      10A     -1.356808    11A     -1.225227    12A     -1.093271
      13A     -1.035624    14A     -0.973816    15A     -0.915444
      16A     -0.877247    17A     -0.790302    18A     -0.716835
      19A     -0.687083    20A     -0.663818    21A     -0.631245
      22A     -0.603366    23A     -0.601251    24A     -0.593580
      25A     -0.581260    26A     -0.569045    27A     -0.543724
      28A     -0.532110    29A     -0.510442    30A     -0.503530
      31A     -0.477601    32A     -0.464139    33A     -0.463860
      34A     -0.403734    35A     -0.364345

  @DF-RHF Final Energy:  -402.10414274399744

   => Energetics <=

    Nuclear Repulsion Energy =            484.2713417358647234
    One-Electron Energy =               -1506.6608084959293592
    Two-Electron Energy =                 620.2853240160671930
    Total Energy =                       -402.1041427439973859
  Basis Set: (AUG-CC-PVTZ AUX)
    Blend: AUG-CC-PVTZ-RI
    Molecular point group: c1

    Geometry (in Angstrom), charge = 0, multiplicity = 1:

       Center              X                  Y                   Z               Mass
    ------------   -----------------  -----------------  -----------------  -----------------
         O            1.722186667644     1.565264496758    -0.287827468357    15.994914619570
         N            0.938860667644    -0.527054503242     0.209140531643    14.003074004430
         C           -2.280473332356    -0.286071503242    -0.173222468357    12.000000000000
         C           -1.324826332356    -1.470157503242    -0.311992468357    12.000000000000
         C           -1.650718332356     1.089213496758    -0.392307468357    12.000000000000
         C           -0.135924332356    -1.410996503242     0.648935531643    12.000000000000
         C           -0.510271332356     1.425334496758     0.581529531643    12.000000000000
         C            0.818949667644     0.838034496758     0.143758531643    12.000000000000
         C            2.222620767644    -1.196866203242    -0.359212768357    12.000000000000
         H           -2.721706332356    -0.311630503242     0.833049531643     1.007825032230
         H           -3.112653332356    -0.414173503242    -0.876380468357     1.007825032230
         H           -1.883958332356    -2.395691503242    -0.122239468357     1.007825032230
         H           -0.940506332356    -1.535598503242    -1.337680468357     1.007825032230
         H           -2.435261332356     1.847741496758    -0.286055468357     1.007825032230
         H           -1.276399332356     1.173977496758    -1.420544468357     1.007825032230
         H           -0.476229332356    -1.125087503242     1.652524531643     1.007825032230
         H            0.310222667644    -2.405173503242     0.748259531643     1.007825032230
         H           -0.773666332356     1.105009496758     1.597732531643     1.007825032230
         H           -0.342836332356     2.504437496758     0.609787531643     1.007825032230
         H            1.896823667644    -1.792914503242    -1.179255468357     1.007825032230
         H            2.624497667644    -1.763855503242     0.446759531643     1.007825032230
         H            2.815650667644    -0.361977503242    -0.640849468357     1.007825032230

  Basis Set: AUG-CC-PVTZ
    Blend: AUG-CC-PVTZ
  Basis Set: (AUG-CC-PVTZ AUX)
    Blend: AUG-CC-PVTZ-JKFIT
	 Reference Energy          =    -402.1041427439974427 [Eh]
	 Singles Energy            =      -0.0000000000000000 [Eh]
	 Same-Spin Energy          =      -0.4215198019804757 [Eh]
	 Opposite-Spin Energy      =      -1.4057383710243063 [Eh]
	 Correlation Energy        =      -1.8272581730047821 [Eh]
	 Total Energy              =    -403.9314009170022359 [Eh]

	 ================> DF-SCS-MP2 Energies <==================
	-----------------------------------------------------------
	 SCS Same-Spin Scale       =       0.3333333333333333 [-]
	 SCS Opposite-Spin Scale   =       1.2000000000000000 [-]
	 SCS Same-Spin Energy      =      -0.1405066006601585 [Eh]
	 SCS Opposite-Spin Energy  =      -1.6868860452291676 [Eh]
	 SCS Correlation Energy    =      -1.8273926458893262 [Eh]
	 SCS Total Energy          =    -403.9315353898867897 [Eh]
	-----------------------------------------------------------

  Dipole Moment: [D]
     X:    -2.3904      Y:    -3.2702      Z:     0.7301     Total:     4.1160

*** Psi4 exiting successfully. Buy a developer a beer!
