                               Psi4 1.3.2 release

  ==> Input File <==

--------------------------------------------------------------------------
#psi4
#
memory 32 gb

molecule  {
0 1
  O        1.7739800     1.6003060    -0.2911220
  N        0.9457778    -0.4943224     0.2223951
  C       -2.2286800    -0.2510300    -0.1765170
  C       -1.2730330    -1.4351160    -0.3152870
  C       -1.5989250     1.1242550    -0.3956020
  C       -0.0841310    -1.3759550     0.6456410
  C       -0.4584780     1.4603760     0.5782350
  C        0.8707430     0.8730760     0.1404640
  C        2.1918860    -1.1187650    -0.3259700
  H       -2.6699130    -0.2765890     0.8297550
  H       -3.0608600    -0.3791320    -0.8796750
  H       -1.8321650    -2.3606500    -0.1255340
  H       -0.8887130    -1.5005570    -1.3409750
  H       -2.3834680     1.8827830    -0.2893500
  H       -1.2246060     1.2090190    -1.4238390
  H       -0.4244360    -1.0900460     1.6492300
  H        0.3620160    -2.3701320     0.7449650
  H       -0.7218730     1.1400510     1.5944380
  H       -0.2910430     2.5394790     0.6064930
  H        1.9486170    -1.7578730    -1.1825500
  H        2.6762910    -1.7288140     0.4434650
  H        2.8674440    -0.3269360    -0.6441440
units angstrom
no_reorient  #important for SAPT in psi4, default
symmetry c1  #important for SAPT in psi4, default
}

set PROPERTIES_ORIGIN ["COM"]
properties('MP2/aug-cc-pvtz', properties = ['dipole'])
--------------------------------------------------------------------------

    Molecular point group: c1
  Charge       = 0
  Multiplicity = 1
  Basis Set: AUG-CC-PVTZ
    Blend: AUG-CC-PVTZ
  Basis Set: (AUG-CC-PVTZ AUX)
    Blend: AUG-CC-PVTZ-JKFIT

    Orbital Energies [Eh]
    ---------------------

    Doubly Occupied:

       1A    -20.507902     2A    -15.581472     3A    -11.341026
       4A    -11.269625     5A    -11.254625     6A    -11.233654
       7A    -11.231690     8A    -11.231323     9A    -11.230557
      10A     -1.362003    11A     -1.245387    12A     -1.094872
      13A     -1.038792    14A     -0.972852    15A     -0.913851
      16A     -0.881592    17A     -0.792292    18A     -0.725771
      19A     -0.689370    20A     -0.670723    21A     -0.633496
      22A     -0.604020    23A     -0.601276    24A     -0.593280
      25A     -0.585087    26A     -0.558410    27A     -0.540649
      28A     -0.531521    29A     -0.511507    30A     -0.508117
      31A     -0.478373    32A     -0.465995    33A     -0.464690
      34A     -0.406970    35A     -0.365986

  @DF-RHF Final Energy:  -402.10875226866438

   => Energetics <=

    Nuclear Repulsion Energy =            486.6150897622015918
    One-Electron Energy =               -1511.2101716803249474
    Two-Electron Energy =                 622.4863296494590941
    Total Energy =                       -402.1087522686643752
  Basis Set: (AUG-CC-PVTZ AUX)
    Blend: AUG-CC-PVTZ-RI
    Molecular point group: c1

    Geometry (in Angstrom), charge = 0, multiplicity = 1:

       Center              X                  Y                   Z               Mass
    ------------   -----------------  -----------------  -----------------  -----------------
         O            1.734922667577     1.561453491323    -0.293100382439    15.994914619570
         N            0.906720467577    -0.533174908677     0.220416717561    14.003074004430
         C           -2.267737332423    -0.289882508677    -0.178495382439    12.000000000000
         C           -1.312090332423    -1.473968508677    -0.317265382439    12.000000000000
         C           -1.637982332423     1.085402491323    -0.397580382439    12.000000000000
         C           -0.123188332423    -1.414807508677     0.643662617561    12.000000000000
         C           -0.497535332423     1.421523491323     0.576256617561    12.000000000000
         C            0.831685667577     0.834223491323     0.138485617561    12.000000000000
         C            2.152828667577    -1.157617508677    -0.327948382439    12.000000000000
         H           -2.708970332423    -0.315441508677     0.827776617561     1.007825032230
         H           -3.099917332423    -0.417984508677    -0.881653382439     1.007825032230
         H           -1.871222332423    -2.399502508677    -0.127512382439     1.007825032230
         H           -0.927770332423    -1.539409508677    -1.342953382439     1.007825032230
         H           -2.422525332423     1.843930491323    -0.291328382439     1.007825032230
         H           -1.263663332423     1.170166491323    -1.425817382439     1.007825032230
         H           -0.463493332423    -1.128898508677     1.647251617561     1.007825032230
         H            0.322958667577    -2.408984508677     0.742986617561     1.007825032230
         H           -0.760930332423     1.101198491323     1.592459617561     1.007825032230
         H           -0.330100332423     2.500626491323     0.604514617561     1.007825032230
         H            1.909559667577    -1.796725508677    -1.184528382439     1.007825032230
         H            2.637233667577    -1.767666508677     0.441486617561     1.007825032230
         H            2.828386667577    -0.365788508677    -0.646122382439     1.007825032230

  Basis Set: AUG-CC-PVTZ
    Blend: AUG-CC-PVTZ
  Basis Set: (AUG-CC-PVTZ AUX)
    Blend: AUG-CC-PVTZ-JKFIT
	 Reference Energy          =    -402.1087522686643752 [Eh]
	 Singles Energy            =      -0.0000000000000000 [Eh]
	 Same-Spin Energy          =      -0.4220669615474044 [Eh]
	 Opposite-Spin Energy      =      -1.4057855773495285 [Eh]
	 Correlation Energy        =      -1.8278525388969329 [Eh]
	 Total Energy              =    -403.9366048075613094 [Eh]

	 ================> DF-SCS-MP2 Energies <==================
	-----------------------------------------------------------
	 SCS Same-Spin Scale       =       0.3333333333333333 [-]
	 SCS Opposite-Spin Scale   =       1.2000000000000000 [-]
	 SCS Same-Spin Energy      =      -0.1406889871824681 [Eh]
	 SCS Opposite-Spin Energy  =      -1.6869426928194342 [Eh]
	 SCS Correlation Energy    =      -1.8276316800019023 [Eh]
	 SCS Total Energy          =    -403.9363839486662755 [Eh]
	-----------------------------------------------------------

  Dipole Moment: [D]
     X:    -2.4355      Y:    -3.1198      Z:     0.7564     Total:     4.0295

*** Psi4 exiting successfully. Buy a developer a beer!
