                               Psi4 1.3.2 release

  ==> Input File <==

--------------------------------------------------------------------------
#psi4
#
memory 32 gb

molecule  {
0 1
  O        1.7739800     1.6003060    -0.2911220
  N        0.9906540    -0.4920130     0.2058460
  C       -2.2286800    -0.2510300    -0.1765170
  C       -1.2730330    -1.4351160    -0.3152870
  C       -1.5989250     1.1242550    -0.3956020
  C       -0.0064162    -1.3720878     0.7084539
  C       -0.4584780     1.4603760     0.5782350
  C        0.8707430     0.8730760     0.1404640
  C        2.1918860    -1.1187650    -0.3259700
  H       -2.6699130    -0.2765890     0.8297550
  H       -3.0608600    -0.3791320    -0.8796750
  H       -1.8321650    -2.3606500    -0.1255340
  H       -0.8887130    -1.5005570    -1.3409750
  H       -2.3834680     1.8827830    -0.2893500
  H       -1.2246060     1.2090190    -1.4238390
  H       -0.4244360    -1.0900460     1.6492300
  H        0.3620160    -2.3701320     0.7449650
  H       -0.7218730     1.1400510     1.5944380
  H       -0.2910430     2.5394790     0.6064930
  H        1.9486170    -1.7578730    -1.1825500
  H        2.6762910    -1.7288140     0.4434650
  H        2.8674440    -0.3269360    -0.6441440
units angstrom
no_reorient  #important for SAPT in psi4, default
symmetry c1  #important for SAPT in psi4, default
}

set PROPERTIES_ORIGIN ["COM"]
properties('MP2/aug-cc-pvtz', properties = ['dipole'])
--------------------------------------------------------------------------

    Molecular point group: c1
  Charge       = 0
  Multiplicity = 1
  Basis Set: AUG-CC-PVTZ
    Blend: AUG-CC-PVTZ
  Basis Set: (AUG-CC-PVTZ AUX)
    Blend: AUG-CC-PVTZ-JKFIT

    Orbital Energies [Eh]
    ---------------------

    Doubly Occupied:

       1A    -20.507657     2A    -15.581965     3A    -11.342242
       4A    -11.269430     5A    -11.251577     6A    -11.234442
       7A    -11.233972     8A    -11.233761     9A    -11.230256
      10A     -1.364253    11A     -1.248890    12A     -1.093396
      13A     -1.029534    14A     -0.976222    15A     -0.916555
      16A     -0.880018    17A     -0.789699    18A     -0.733238
      19A     -0.691483    20A     -0.669750    21A     -0.635496
      22A     -0.606158    23A     -0.601927    24A     -0.598349
      25A     -0.586493    26A     -0.555613    27A     -0.542301
      28A     -0.525792    29A     -0.517596    30A     -0.504909
      31A     -0.478894    32A     -0.467410    33A     -0.460870
      34A     -0.409377    35A     -0.358878

  @DF-RHF Final Energy:  -402.10473865747281

   => Energetics <=

    Nuclear Repulsion Energy =            485.8401434273672521
    One-Electron Energy =               -1509.6329523172039444
    Two-Electron Energy =                 621.6880702323638843
    Total Energy =                       -402.1047386574728080
  Basis Set: (AUG-CC-PVTZ AUX)
    Blend: AUG-CC-PVTZ-RI
    Molecular point group: c1

    Geometry (in Angstrom), charge = 0, multiplicity = 1:

       Center              X                  Y                   Z               Mass
    ------------   -----------------  -----------------  -----------------  -----------------
         O            1.722641110838     1.560833937616    -0.297207524079    15.994914619570
         N            0.939315110838    -0.531485062384     0.199760475921    14.003074004430
         C           -2.280018889162    -0.290502062384    -0.182602524079    12.000000000000
         C           -1.324371889162    -1.474588062384    -0.321372524079    12.000000000000
         C           -1.650263889162     1.084782937616    -0.401687524079    12.000000000000
         C           -0.057755089162    -1.411559862384     0.702368375921    12.000000000000
         C           -0.509816889162     1.420903937616     0.572149475921    12.000000000000
         C            0.819404110838     0.833603937616     0.134378475921    12.000000000000
         C            2.140547110838    -1.158237062384    -0.332055524079    12.000000000000
         H           -2.721251889162    -0.316061062384     0.823669475921     1.007825032230
         H           -3.112198889162    -0.418604062384    -0.885760524079     1.007825032230
         H           -1.883503889162    -2.400122062384    -0.131619524079     1.007825032230
         H           -0.940051889162    -1.540029062384    -1.347060524079     1.007825032230
         H           -2.434806889162     1.843310937616    -0.295435524079     1.007825032230
         H           -1.275944889162     1.169546937616    -1.429924524079     1.007825032230
         H           -0.475774889162    -1.129518062384     1.643144475921     1.007825032230
         H            0.310677110838    -2.409604062384     0.738879475921     1.007825032230
         H           -0.773211889162     1.100578937616     1.588352475921     1.007825032230
         H           -0.342381889162     2.500006937616     0.600407475921     1.007825032230
         H            1.897278110838    -1.797345062384    -1.188635524079     1.007825032230
         H            2.624952110838    -1.768286062384     0.437379475921     1.007825032230
         H            2.816105110838    -0.366408062384    -0.650229524079     1.007825032230

  Basis Set: AUG-CC-PVTZ
    Blend: AUG-CC-PVTZ
  Basis Set: (AUG-CC-PVTZ AUX)
    Blend: AUG-CC-PVTZ-JKFIT
	 Reference Energy          =    -402.1047386574728080 [Eh]
	 Singles Energy            =      -0.0000000000000000 [Eh]
	 Same-Spin Energy          =      -0.4217115744001473 [Eh]
	 Opposite-Spin Energy      =      -1.4052621101455307 [Eh]
	 Correlation Energy        =      -1.8269736845456781 [Eh]
	 Total Energy              =    -403.9317123420184998 [Eh]

	 ================> DF-SCS-MP2 Energies <==================
	-----------------------------------------------------------
	 SCS Same-Spin Scale       =       0.3333333333333333 [-]
	 SCS Opposite-Spin Scale   =       1.2000000000000000 [-]
	 SCS Same-Spin Energy      =      -0.1405705248000491 [Eh]
	 SCS Opposite-Spin Energy  =      -1.6863145321746369 [Eh]
	 SCS Correlation Energy    =      -1.8268850569746860 [Eh]
	 SCS Total Energy          =    -403.9316237144474826 [Eh]
	-----------------------------------------------------------

  Dipole Moment: [D]
     X:    -2.4360      Y:    -3.0326      Z:     0.8540     Total:     3.9825

*** Psi4 exiting successfully. Buy a developer a beer!
