                               Psi4 1.3.2 release

  ==> Input File <==

--------------------------------------------------------------------------
#psi4
#
memory 32 gb

molecule  {
0 1
  O        1.7739800     1.6003060    -0.2911220
  N        0.9906540    -0.4920130     0.2058460
  C       -2.2286800    -0.2510300    -0.1765170
  C       -1.2730330    -1.4351160    -0.3152870
  C       -1.5989250     1.1242550    -0.3956020
  C       -0.0841310    -1.3759550     0.6456410
  C       -0.4584780     1.4603760     0.5782350
  C        0.8707430     0.8730760     0.1404640
  C        2.1918860    -1.1187650    -0.3259700
  H       -2.6699130    -0.2765890     0.8297550
  H       -3.0608600    -0.3791320    -0.8796750
  H       -1.8321650    -2.3606500    -0.1255340
  H       -0.8887130    -1.5005570    -1.3409750
  H       -2.3834680     1.8827830    -0.2893500
  H       -1.2246060     1.2090190    -1.4238390
  H       -0.4244360    -1.0900460     1.6492300
  H        0.3620160    -2.3701320     0.7449650
  H       -0.7147273     1.2130884     1.6164251
  H       -0.2910430     2.5394790     0.6064930
  H        1.9486170    -1.7578730    -1.1825500
  H        2.6762910    -1.7288140     0.4434650
  H        2.8674440    -0.3269360    -0.6441440
units angstrom
no_reorient  #important for SAPT in psi4, default
symmetry c1  #important for SAPT in psi4, default
}

set PROPERTIES_ORIGIN ["COM"]
properties('MP2/aug-cc-pvtz', properties = ['dipole'])
--------------------------------------------------------------------------

    Molecular point group: c1
  Charge       = 0
  Multiplicity = 1
  Basis Set: AUG-CC-PVTZ
    Blend: AUG-CC-PVTZ
  Basis Set: (AUG-CC-PVTZ AUX)
    Blend: AUG-CC-PVTZ-JKFIT

    Orbital Energies [Eh]
    ---------------------

    Doubly Occupied:

       1A    -20.505915     2A    -15.580563     3A    -11.340430
       4A    -11.271919     5A    -11.250524     6A    -11.234979
       7A    -11.233222     8A    -11.233171     9A    -11.231220
      10A     -1.361952    11A     -1.241088    12A     -1.097097
      13A     -1.037856    14A     -0.975416    15A     -0.914094
      16A     -0.878319    17A     -0.792385    18A     -0.725969
      19A     -0.691076    20A     -0.667908    21A     -0.633095
      22A     -0.608739    23A     -0.600856    24A     -0.594556
      25A     -0.582814    26A     -0.556747    27A     -0.544336
      28A     -0.527236    29A     -0.509990    30A     -0.508113
      31A     -0.478969    32A     -0.468194    33A     -0.464690
      34A     -0.407780    35A     -0.364980

  @DF-RHF Final Energy:  -402.11143580949494

   => Energetics <=

    Nuclear Repulsion Energy =            486.1487901361656441
    One-Electron Energy =               -1510.2880595104650183
    Two-Electron Energy =                 622.0278335648044958
    Total Energy =                       -402.1114358094948784
  Basis Set: (AUG-CC-PVTZ AUX)
    Blend: AUG-CC-PVTZ-RI
    Molecular point group: c1

    Geometry (in Angstrom), charge = 0, multiplicity = 1:

       Center              X                  Y                   Z               Mass
    ------------   -----------------  -----------------  -----------------  -----------------
         O            1.729921819466     1.560619912586    -0.291451447791    15.994914619570
         N            0.946595819466    -0.531699087414     0.205516552209    14.003074004430
         C           -2.272738180534    -0.290716087414    -0.176846447791    12.000000000000
         C           -1.317091180534    -1.474802087414    -0.315616447791    12.000000000000
         C           -1.642983180534     1.084568912586    -0.395931447791    12.000000000000
         C           -0.128189180534    -1.415641087414     0.645311552209    12.000000000000
         C           -0.502536180534     1.420689912586     0.577905552209    12.000000000000
         C            0.826684819466     0.833389912586     0.140134552209    12.000000000000
         C            2.147827819466    -1.158451087414    -0.326299447791    12.000000000000
         H           -2.713971180534    -0.316275087414     0.829425552209     1.007825032230
         H           -3.104918180534    -0.418818087414    -0.880004447791     1.007825032230
         H           -1.876223180534    -2.400336087414    -0.125863447791     1.007825032230
         H           -0.932771180534    -1.540243087414    -1.341304447791     1.007825032230
         H           -2.427526180534     1.843096912586    -0.289679447791     1.007825032230
         H           -1.268664180534     1.169332912586    -1.424168447791     1.007825032230
         H           -0.468494180534    -1.129732087414     1.648900552209     1.007825032230
         H            0.317957819466    -2.409818087414     0.744635552209     1.007825032230
         H           -0.758785480534     1.173402312586     1.616095652209     1.007825032230
         H           -0.335101180534     2.499792912586     0.606163552209     1.007825032230
         H            1.904558819466    -1.797559087414    -1.182879447791     1.007825032230
         H            2.632232819466    -1.768500087414     0.443135552209     1.007825032230
         H            2.823385819466    -0.366622087414    -0.644473447791     1.007825032230

  Basis Set: AUG-CC-PVTZ
    Blend: AUG-CC-PVTZ
  Basis Set: (AUG-CC-PVTZ AUX)
    Blend: AUG-CC-PVTZ-JKFIT
	 Reference Energy          =    -402.1114358094949353 [Eh]
	 Singles Energy            =      -0.0000000000000000 [Eh]
	 Same-Spin Energy          =      -0.4217466945625095 [Eh]
	 Opposite-Spin Energy      =      -1.4051589167581660 [Eh]
	 Correlation Energy        =      -1.8269056113206754 [Eh]
	 Total Energy              =    -403.9383414208156182 [Eh]

	 ================> DF-SCS-MP2 Energies <==================
	-----------------------------------------------------------
	 SCS Same-Spin Scale       =       0.3333333333333333 [-]
	 SCS Opposite-Spin Scale   =       1.2000000000000000 [-]
	 SCS Same-Spin Energy      =      -0.1405822315208365 [Eh]
	 SCS Opposite-Spin Energy  =      -1.6861907001097991 [Eh]
	 SCS Correlation Energy    =      -1.8267729316306356 [Eh]
	 SCS Total Energy          =    -403.9382087411255497 [Eh]
	-----------------------------------------------------------

  Dipole Moment: [D]
     X:    -2.5734      Y:    -3.0778      Z:     0.8120     Total:     4.0932

*** Psi4 exiting successfully. Buy a developer a beer!
