                               Psi4 1.3.2 release

  ==> Input File <==

--------------------------------------------------------------------------
#psi4
#
memory 32 gb

molecule  {
0 1
  O        1.7739800     1.6003060    -0.2911220
  N        1.0166354    -0.5041195     0.2479577
  C       -2.2286800    -0.2510300    -0.1765170
  C       -1.2730330    -1.4351160    -0.3152870
  C       -1.5989250     1.1242550    -0.3956020
  C       -0.0841310    -1.3759550     0.6456410
  C       -0.4584780     1.4603760     0.5782350
  C        0.8707430     0.8730760     0.1404640
  C        2.1918860    -1.1187650    -0.3259700
  H       -2.6699130    -0.2765890     0.8297550
  H       -3.0608600    -0.3791320    -0.8796750
  H       -1.8321650    -2.3606500    -0.1255340
  H       -0.8887130    -1.5005570    -1.3409750
  H       -2.3834680     1.8827830    -0.2893500
  H       -1.2246060     1.2090190    -1.4238390
  H       -0.4244360    -1.0900460     1.6492300
  H        0.3620160    -2.3701320     0.7449650
  H       -0.7218730     1.1400510     1.5944380
  H       -0.2910430     2.5394790     0.6064930
  H        1.9486170    -1.7578730    -1.1825500
  H        2.6762910    -1.7288140     0.4434650
  H        2.8674440    -0.3269360    -0.6441440
units angstrom
no_reorient  #important for SAPT in psi4, default
symmetry c1  #important for SAPT in psi4, default
}

set PROPERTIES_ORIGIN ["COM"]
properties('MP2/aug-cc-pvtz', properties = ['dipole'])
--------------------------------------------------------------------------

    Molecular point group: c1
  Charge       = 0
  Multiplicity = 1
  Basis Set: AUG-CC-PVTZ
    Blend: AUG-CC-PVTZ
  Basis Set: (AUG-CC-PVTZ AUX)
    Blend: AUG-CC-PVTZ-JKFIT

    Orbital Energies [Eh]
    ---------------------

    Doubly Occupied:

       1A    -20.509132     2A    -15.579578     3A    -11.342504
       4A    -11.271035     5A    -11.248689     6A    -11.235491
       7A    -11.234788     8A    -11.234006     9A    -11.231890
      10A     -1.362600    11A     -1.240060    12A     -1.098429
      13A     -1.037662    14A     -0.976034    15A     -0.910153
      16A     -0.879214    17A     -0.792600    18A     -0.723835
      19A     -0.691185    20A     -0.668428    21A     -0.632900
      22A     -0.610631    23A     -0.602520    24A     -0.593531
      25A     -0.583366    26A     -0.557784    27A     -0.544905
      28A     -0.526772    29A     -0.510286    30A     -0.508337
      31A     -0.479862    32A     -0.468317    33A     -0.465657
      34A     -0.409146    35A     -0.364546

  @DF-RHF Final Energy:  -402.11078666111638

   => Energetics <=

    Nuclear Repulsion Energy =            485.8075723431403503
    One-Electron Energy =               -1509.5849748144794376
    Two-Electron Energy =                 621.6666158102226518
    Total Energy =                       -402.1107866611164354
  Basis Set: (AUG-CC-PVTZ AUX)
    Blend: AUG-CC-PVTZ-RI
    Molecular point group: c1

    Geometry (in Angstrom), charge = 0, multiplicity = 1:

       Center              X                  Y                   Z               Mass
    ------------   -----------------  -----------------  -----------------  -----------------
         O            1.727116007869     1.562532876257    -0.295916714342    15.994914619570
         N            0.969771407869    -0.541892623743     0.243162985658    14.003074004430
         C           -2.275543992131    -0.288803123743    -0.181311714342    12.000000000000
         C           -1.319896992131    -1.472889123743    -0.320081714342    12.000000000000
         C           -1.645788992131     1.086481876257    -0.400396714342    12.000000000000
         C           -0.130994992131    -1.413728123743     0.640846285658    12.000000000000
         C           -0.505341992131     1.422602876257     0.573440285658    12.000000000000
         C            0.823879007869     0.835302876257     0.135669285658    12.000000000000
         C            2.145022007869    -1.156538123743    -0.330764714342    12.000000000000
         H           -2.716776992131    -0.314362123743     0.824960285658     1.007825032230
         H           -3.107723992131    -0.416905123743    -0.884469714342     1.007825032230
         H           -1.879028992131    -2.398423123743    -0.130328714342     1.007825032230
         H           -0.935576992131    -1.538330123743    -1.345769714342     1.007825032230
         H           -2.430331992131     1.845009876257    -0.294144714342     1.007825032230
         H           -1.271469992131     1.171245876257    -1.428633714342     1.007825032230
         H           -0.471299992131    -1.127819123743     1.644435285658     1.007825032230
         H            0.315152007869    -2.407905123743     0.740170285658     1.007825032230
         H           -0.768736992131     1.102277876257     1.589643285658     1.007825032230
         H           -0.337906992131     2.501705876257     0.601698285658     1.007825032230
         H            1.901753007869    -1.795646123743    -1.187344714342     1.007825032230
         H            2.629427007869    -1.766587123743     0.438670285658     1.007825032230
         H            2.820580007869    -0.364709123743    -0.648938714342     1.007825032230

  Basis Set: AUG-CC-PVTZ
    Blend: AUG-CC-PVTZ
  Basis Set: (AUG-CC-PVTZ AUX)
    Blend: AUG-CC-PVTZ-JKFIT
	 Reference Energy          =    -402.1107866611163786 [Eh]
	 Singles Energy            =      -0.0000000000000000 [Eh]
	 Same-Spin Energy          =      -0.4218486105683941 [Eh]
	 Opposite-Spin Energy      =      -1.4053780068068957 [Eh]
	 Correlation Energy        =      -1.8272266173752898 [Eh]
	 Total Energy              =    -403.9380132784916668 [Eh]

	 ================> DF-SCS-MP2 Energies <==================
	-----------------------------------------------------------
	 SCS Same-Spin Scale       =       0.3333333333333333 [-]
	 SCS Opposite-Spin Scale   =       1.2000000000000000 [-]
	 SCS Same-Spin Energy      =      -0.1406162035227980 [Eh]
	 SCS Opposite-Spin Energy  =      -1.6864536081682748 [Eh]
	 SCS Correlation Energy    =      -1.8270698116910729 [Eh]
	 SCS Total Energy          =    -403.9378564728074252 [Eh]
	-----------------------------------------------------------

  Dipole Moment: [D]
     X:    -2.6261      Y:    -2.9820      Z:     0.7227     Total:     4.0387

*** Psi4 exiting successfully. Buy a developer a beer!
