                               Psi4 1.4a3.dev225

  ==> Input File <==

--------------------------------------------------------------------------
#psi4
#
memory 32 gb

molecule  {
0 1
  O        1.7739800     1.6003060    -0.2911220
  N        0.9906540    -0.4920130     0.2058460
  C       -2.2286800    -0.2510300    -0.1765170
  C       -1.2730330    -1.4351160    -0.3152870
  C       -1.5989250     1.1242550    -0.3956020
  C       -0.0841310    -1.3759550     0.6456410
  C       -0.4584780     1.4603760     0.5782350
  C        0.8751132     0.8233244     0.1428469
  C        2.1918860    -1.1187650    -0.3259700
  H       -2.6699130    -0.2765890     0.8297550
  H       -3.0608600    -0.3791320    -0.8796750
  H       -1.8321650    -2.3606500    -0.1255340
  H       -0.8887130    -1.5005570    -1.3409750
  H       -2.3834680     1.8827830    -0.2893500
  H       -1.2246060     1.2090190    -1.4238390
  H       -0.4244360    -1.0900460     1.6492300
  H        0.3620160    -2.3701320     0.7449650
  H       -0.7218730     1.1400510     1.5944380
  H       -0.2910430     2.5394790     0.6064930
  H        1.9486170    -1.7578730    -1.1825500
  H        2.6762910    -1.7288140     0.4434650
  H        2.8674440    -0.3269360    -0.6441440
units angstrom
no_reorient  #important for SAPT in psi4, default
symmetry c1  #important for SAPT in psi4, default
}

set PROPERTIES_ORIGIN ["COM"]
properties('MP2/aug-cc-pvtz', properties = ['dipole'])
--------------------------------------------------------------------------

    Molecular point group: c1
  Charge       = 0
  Multiplicity = 1
  Basis Set: AUG-CC-PVTZ
    Blend: AUG-CC-PVTZ
  Basis Set: (AUG-CC-PVTZ AUX)
    Blend: AUG-CC-PVTZ-JKFIT

    Orbital Energies [Eh]
    ---------------------

    Doubly Occupied:

       1A    -20.495446     2A    -15.589366     3A    -11.336368
       4A    -11.277129     5A    -11.254978     6A    -11.236430
       7A    -11.233203     8A    -11.232610     9A    -11.232039
      10A     -1.348915    11A     -1.249286    12A     -1.098523
      13A     -1.038005    14A     -0.979296    15A     -0.925836
      16A     -0.877327    17A     -0.793828    18A     -0.730310
      19A     -0.689793    20A     -0.668519    21A     -0.638066
      22A     -0.611153    23A     -0.600399    24A     -0.595890
      25A     -0.579283    26A     -0.559919    27A     -0.538761
      28A     -0.530679    29A     -0.509712    30A     -0.507625
      31A     -0.480032    32A     -0.466362    33A     -0.464261
      34A     -0.398480    35A     -0.369128

  @DF-RHF Final Energy:  -402.10826923906916

   => Energetics <=

    Nuclear Repulsion Energy =            486.6500338505807690
    One-Electron Energy =               -1511.2426889405453494
    Two-Electron Energy =                 622.4843858508954781
    Total Energy =                       -402.1082692390691591
  Basis Set: (AUG-CC-PVTZ AUX)
    Blend: AUG-CC-PVTZ-RI
    Molecular point group: c1

    Geometry (in Angstrom), charge = 0, multiplicity = 1:

       Center              X                  Y                   Z               Mass
    ------------   -----------------  -----------------  -----------------  -----------------
         O            1.729565872287     1.565896306204    -0.291502082446    15.994914619570
         N            0.946239872287    -0.526422693796     0.205465917554    14.003074004430
         C           -2.273094127713    -0.285439693796    -0.176897082446    12.000000000000
         C           -1.317447127713    -1.469525693796    -0.315667082446    12.000000000000
         C           -1.643339127713     1.089845306204    -0.395982082446    12.000000000000
         C           -0.128545127713    -1.410364693796     0.645260917554    12.000000000000
         C           -0.502892127713     1.425966306204     0.577854917554    12.000000000000
         C            0.830699072287     0.788914706204     0.142466817554    12.000000000000
         C            2.147471872287    -1.153174693796    -0.326350082446    12.000000000000
         H           -2.714327127713    -0.310998693796     0.829374917554     1.007825032230
         H           -3.105274127713    -0.413541693796    -0.880055082446     1.007825032230
         H           -1.876579127713    -2.395059693796    -0.125914082446     1.007825032230
         H           -0.933127127713    -1.534966693796    -1.341355082446     1.007825032230
         H           -2.427882127713     1.848373306204    -0.289730082446     1.007825032230
         H           -1.269020127713     1.174609306204    -1.424219082446     1.007825032230
         H           -0.468850127713    -1.124455693796     1.648849917554     1.007825032230
         H            0.317601872287    -2.404541693796     0.744584917554     1.007825032230
         H           -0.766287127713     1.105641306204     1.594057917554     1.007825032230
         H           -0.335457127713     2.505069306204     0.606112917554     1.007825032230
         H            1.904202872287    -1.792282693796    -1.182930082446     1.007825032230
         H            2.631876872287    -1.763223693796     0.443084917554     1.007825032230
         H            2.823029872287    -0.361345693796    -0.644524082446     1.007825032230

  Basis Set: AUG-CC-PVTZ
    Blend: AUG-CC-PVTZ
  Basis Set: (AUG-CC-PVTZ AUX)
    Blend: AUG-CC-PVTZ-JKFIT
	 Reference Energy          =    -402.1082692390691591 [Eh]
	 Singles Energy            =      -0.0000000000000000 [Eh]
	 Same-Spin Energy          =      -0.4220090813830978 [Eh]
	 Opposite-Spin Energy      =      -1.4057751751762624 [Eh]
	 Correlation Energy        =      -1.8277842565593603 [Eh]
	 Total Energy              =    -403.9360534956285278 [Eh]

	 ================> DF-SCS-MP2 Energies <==================
	-----------------------------------------------------------
	 SCS Same-Spin Scale       =       0.3333333333333333 [-]
	 SCS Opposite-Spin Scale   =       1.2000000000000000 [-]
	 SCS Same-Spin Energy      =      -0.1406696937943659 [Eh]
	 SCS Opposite-Spin Energy  =      -1.6869302102115149 [Eh]
	 SCS Correlation Energy    =      -1.8275999040058808 [Eh]
	 SCS Total Energy          =    -403.9358691430750241 [Eh]
	-----------------------------------------------------------

  Dipole Moment: [D]
     X:    -2.6187      Y:    -3.5412      Z:     0.8364     Total:     4.4829

*** Psi4 exiting successfully. Buy a developer a beer!
