                               Psi4 1.4a3.dev225

  ==> Input File <==

--------------------------------------------------------------------------
#psi4
#
memory 32 gb

molecule  {
0 1
  O        1.7739800     1.6003060    -0.2911220
  N        0.9906540    -0.4920130     0.2058460
  C       -2.2286800    -0.2510300    -0.1765170
  C       -1.2855420    -1.4196168    -0.3134706
  C       -1.5989250     1.1242550    -0.3956020
  C       -0.0841310    -1.3759550     0.6456410
  C       -0.4584780     1.4603760     0.5782350
  C        0.8707430     0.8730760     0.1404640
  C        2.1918860    -1.1187650    -0.3259700
  H       -2.6699130    -0.2765890     0.8297550
  H       -3.0608600    -0.3791320    -0.8796750
  H       -1.8321650    -2.3606500    -0.1255340
  H       -0.8887130    -1.5005570    -1.3409750
  H       -2.3834680     1.8827830    -0.2893500
  H       -1.2246060     1.2090190    -1.4238390
  H       -0.4244360    -1.0900460     1.6492300
  H        0.3620160    -2.3701320     0.7449650
  H       -0.7218730     1.1400510     1.5944380
  H       -0.2910430     2.5394790     0.6064930
  H        1.9486170    -1.7578730    -1.1825500
  H        2.6762910    -1.7288140     0.4434650
  H        2.8674440    -0.3269360    -0.6441440
units angstrom
no_reorient  #important for SAPT in psi4, default
symmetry c1  #important for SAPT in psi4, default
}

set PROPERTIES_ORIGIN ["COM"]
properties('MP2/aug-cc-pvtz', properties = ['dipole'])
--------------------------------------------------------------------------

    Molecular point group: c1
  Charge       = 0
  Multiplicity = 1
  Basis Set: AUG-CC-PVTZ
    Blend: AUG-CC-PVTZ
  Basis Set: (AUG-CC-PVTZ AUX)
    Blend: AUG-CC-PVTZ-JKFIT

    Orbital Energies [Eh]
    ---------------------

    Doubly Occupied:

       1A    -20.505705     2A    -15.580478     3A    -11.339926
       4A    -11.272606     5A    -11.250571     6A    -11.234782
       7A    -11.234073     8A    -11.233623     9A    -11.230837
      10A     -1.361833    11A     -1.241047    12A     -1.099399
      13A     -1.037878    14A     -0.975847    15A     -0.914333
      16A     -0.878292    17A     -0.792024    18A     -0.725030
      19A     -0.690694    20A     -0.669020    21A     -0.633046
      22A     -0.609595    23A     -0.601865    24A     -0.594877
      25A     -0.582907    26A     -0.557429    27A     -0.544638
      28A     -0.526488    29A     -0.509944    30A     -0.508303
      31A     -0.479330    32A     -0.468080    33A     -0.466447
      34A     -0.407456    35A     -0.364481

  @DF-RHF Final Energy:  -402.11149129193393

   => Energetics <=

    Nuclear Repulsion Energy =            486.4301991340255427
    One-Electron Energy =               -1510.8376096025067454
    Two-Electron Energy =                 622.2959191765472724
    Total Energy =                       -402.1114912919339304
  Basis Set: (AUG-CC-PVTZ AUX)
    Blend: AUG-CC-PVTZ-RI
    Molecular point group: c1

    Geometry (in Angstrom), charge = 0, multiplicity = 1:

       Center              X                  Y                   Z               Mass
    ------------   -----------------  -----------------  -----------------  -----------------
         O            1.731159506085     1.559735713272    -0.291448596881    15.994914619570
         N            0.947833506085    -0.532583286728     0.205519403119    14.003074004430
         C           -2.271500493915    -0.291600286728    -0.176843596881    12.000000000000
         C           -1.328362493915    -1.460187086728    -0.313797196881    12.000000000000
         C           -1.641745493915     1.083684713272    -0.395928596881    12.000000000000
         C           -0.126951493915    -1.416525286728     0.645314403119    12.000000000000
         C           -0.501298493915     1.419805713272     0.577908403119    12.000000000000
         C            0.827922506085     0.832505713272     0.140137403119    12.000000000000
         C            2.149065506085    -1.159335286728    -0.326296596881    12.000000000000
         H           -2.712733493915    -0.317159286728     0.829428403119     1.007825032230
         H           -3.103680493915    -0.419702286728    -0.880001596881     1.007825032230
         H           -1.874985493915    -2.401220286728    -0.125860596881     1.007825032230
         H           -0.931533493915    -1.541127286728    -1.341301596881     1.007825032230
         H           -2.426288493915     1.842212713272    -0.289676596881     1.007825032230
         H           -1.267426493915     1.168448713272    -1.424165596881     1.007825032230
         H           -0.467256493915    -1.130616286728     1.648903403119     1.007825032230
         H            0.319195506085    -2.410702286728     0.744638403119     1.007825032230
         H           -0.764693493915     1.099480713272     1.594111403119     1.007825032230
         H           -0.333863493915     2.498908713272     0.606166403119     1.007825032230
         H            1.905796506085    -1.798443286728    -1.182876596881     1.007825032230
         H            2.633470506085    -1.769384286728     0.443138403119     1.007825032230
         H            2.824623506085    -0.367506286728    -0.644470596881     1.007825032230

  Basis Set: AUG-CC-PVTZ
    Blend: AUG-CC-PVTZ
  Basis Set: (AUG-CC-PVTZ AUX)
    Blend: AUG-CC-PVTZ-JKFIT
	 Reference Energy          =    -402.1114912919339304 [Eh]
	 Singles Energy            =      -0.0000000000000000 [Eh]
	 Same-Spin Energy          =      -0.4218930161401492 [Eh]
	 Opposite-Spin Energy      =      -1.4053316700288172 [Eh]
	 Correlation Energy        =      -1.8272246861689663 [Eh]
	 Total Energy              =    -403.9387159781028913 [Eh]

	 ================> DF-SCS-MP2 Energies <==================
	-----------------------------------------------------------
	 SCS Same-Spin Scale       =       0.3333333333333333 [-]
	 SCS Opposite-Spin Scale   =       1.2000000000000000 [-]
	 SCS Same-Spin Energy      =      -0.1406310053800497 [Eh]
	 SCS Opposite-Spin Energy  =      -1.6863980040345805 [Eh]
	 SCS Correlation Energy    =      -1.8270290094146302 [Eh]
	 SCS Total Energy          =    -403.9385203013485466 [Eh]
	-----------------------------------------------------------

  Dipole Moment: [D]
     X:    -2.5825      Y:    -3.0983      Z:     0.7960     Total:     4.1112

*** Psi4 exiting successfully. Buy a developer a beer!
