                               Psi4 1.3.2 release

  ==> Input File <==

--------------------------------------------------------------------------
#psi4
#
memory 32 gb

molecule  {
0 1
  O        1.7739800     1.6003060    -0.2911220
  N        0.9906540    -0.4920130     0.2058460
  C       -2.2286800    -0.2510300    -0.1765170
  C       -1.2730330    -1.4351160    -0.3152870
  C       -1.5989250     1.1242550    -0.3956020
  C       -0.0841310    -1.3759550     0.6456410
  C       -0.4584780     1.4603760     0.5782350
  C        0.8707430     0.8730760     0.1404640
  C        2.3569422    -1.2048844    -0.3990446
  H       -2.6699130    -0.2765890     0.8297550
  H       -3.0608600    -0.3791320    -0.8796750
  H       -1.8321650    -2.3606500    -0.1255340
  H       -0.8887130    -1.5005570    -1.3409750
  H       -2.3834680     1.8827830    -0.2893500
  H       -1.2246060     1.2090190    -1.4238390
  H       -0.4244360    -1.0900460     1.6492300
  H        0.3620160    -2.3701320     0.7449650
  H       -0.7218730     1.1400510     1.5944380
  H       -0.2910430     2.5394790     0.6064930
  H        1.9486170    -1.7578730    -1.1825500
  H        2.6762910    -1.7288140     0.4434650
  H        2.8674440    -0.3269360    -0.6441440
units angstrom
no_reorient  #important for SAPT in psi4, default
symmetry c1  #important for SAPT in psi4, default
}

set PROPERTIES_ORIGIN ["COM"]
properties('MP2/aug-cc-pvtz', properties = ['dipole'])
--------------------------------------------------------------------------

    Molecular point group: c1
  Charge       = 0
  Multiplicity = 1
  Basis Set: AUG-CC-PVTZ
    Blend: AUG-CC-PVTZ
  Basis Set: (AUG-CC-PVTZ AUX)
    Blend: AUG-CC-PVTZ-JKFIT

    Orbital Energies [Eh]
    ---------------------

    Doubly Occupied:

       1A    -20.499543     2A    -15.573037     3A    -11.333626
       4A    -11.267424     5A    -11.260635     6A    -11.231418
       7A    -11.229836     8A    -11.229442     9A    -11.228567
      10A     -1.352769    11A     -1.212955    12A     -1.089469
      13A     -1.033228    14A     -0.974486    15A     -0.916659
      16A     -0.875595    17A     -0.788176    18A     -0.710047
      19A     -0.684332    20A     -0.660005    21A     -0.634098
      22A     -0.608197    23A     -0.598392    24A     -0.596065
      25A     -0.579576    26A     -0.573274    27A     -0.547540
      28A     -0.527959    29A     -0.509394    30A     -0.492520
      31A     -0.475338    32A     -0.462325    33A     -0.458829
      34A     -0.399939    35A     -0.361790

  @DF-RHF Final Energy:  -402.08449705587776

   => Energetics <=

    Nuclear Repulsion Energy =            482.3451238388362867
    One-Electron Energy =               -1502.9062707204363960
    Two-Electron Energy =                 618.4766498257222338
    Total Energy =                       -402.0844970558778186
  Basis Set: (AUG-CC-PVTZ AUX)
    Blend: AUG-CC-PVTZ-RI
    Molecular point group: c1

    Geometry (in Angstrom), charge = 0, multiplicity = 1:

       Center              X                  Y                   Z               Mass
    ------------   -----------------  -----------------  -----------------  -----------------
         O            1.714394854677     1.569329937848    -0.284377833530    15.994914619570
         N            0.931068854677    -0.522989062152     0.212590166470    14.003074004430
         C           -2.288265145323    -0.282006062152    -0.169772833530    12.000000000000
         C           -1.332618145323    -1.466092062152    -0.308542833530    12.000000000000
         C           -1.658510145323     1.093278937848    -0.388857833530    12.000000000000
         C           -0.143716145323    -1.406931062152     0.652385166470    12.000000000000
         C           -0.518063145323     1.429399937848     0.584979166470    12.000000000000
         C            0.811157854677     0.842099937848     0.147208166470    12.000000000000
         C            2.297357054677    -1.235860462152    -0.392300433530    12.000000000000
         H           -2.729498145323    -0.307565062152     0.836499166470     1.007825032230
         H           -3.120445145323    -0.410108062152    -0.872930833530     1.007825032230
         H           -1.891750145323    -2.391626062152    -0.118789833530     1.007825032230
         H           -0.948298145323    -1.531533062152    -1.334230833530     1.007825032230
         H           -2.443053145323     1.851806937848    -0.282605833530     1.007825032230
         H           -1.284191145323     1.178042937848    -1.417094833530     1.007825032230
         H           -0.484021145323    -1.121022062152     1.655974166470     1.007825032230
         H            0.302430854677    -2.401108062152     0.751709166470     1.007825032230
         H           -0.781458145323     1.109074937848     1.601182166470     1.007825032230
         H           -0.350628145323     2.508502937848     0.613237166470     1.007825032230
         H            1.889031854677    -1.788849062152    -1.175805833530     1.007825032230
         H            2.616705854677    -1.759790062152     0.450209166470     1.007825032230
         H            2.807858854677    -0.357912062152    -0.637399833530     1.007825032230

  Basis Set: AUG-CC-PVTZ
    Blend: AUG-CC-PVTZ
  Basis Set: (AUG-CC-PVTZ AUX)
    Blend: AUG-CC-PVTZ-JKFIT
	 Reference Energy          =    -402.0844970558777618 [Eh]
	 Singles Energy            =      -0.0000000000000000 [Eh]
	 Same-Spin Energy          =      -0.4218633289185226 [Eh]
	 Opposite-Spin Energy      =      -1.4072484894402342 [Eh]
	 Correlation Energy        =      -1.8291118183587567 [Eh]
	 Total Energy              =    -403.9136088742365018 [Eh]

	 ================> DF-SCS-MP2 Energies <==================
	-----------------------------------------------------------
	 SCS Same-Spin Scale       =       0.3333333333333333 [-]
	 SCS Opposite-Spin Scale   =       1.2000000000000000 [-]
	 SCS Same-Spin Energy      =      -0.1406211096395075 [Eh]
	 SCS Opposite-Spin Energy  =      -1.6886981873282809 [Eh]
	 SCS Correlation Energy    =      -1.8293192969677885 [Eh]
	 SCS Total Energy          =    -403.9138163528455721 [Eh]
	-----------------------------------------------------------

  Dipole Moment: [D]
     X:    -2.2340      Y:    -3.3992      Z:     0.6760     Total:     4.1234

*** Psi4 exiting successfully. Buy a developer a beer!
