                               Psi4 1.3.2 release

  ==> Input File <==

--------------------------------------------------------------------------
#psi4
#
memory 32 gb

molecule  {
0 1
  O        1.7739800     1.6003060    -0.2911220
  N        0.9906540    -0.4920130     0.2058460
  C       -2.2286800    -0.2510300    -0.1765170
  C       -1.2730330    -1.4351160    -0.3152870
  C       -1.5989250     1.1242550    -0.3956020
  C       -0.1419071    -1.2931430     0.6590920
  C       -0.4584780     1.4603760     0.5782350
  C        0.8707430     0.8730760     0.1404640
  C        2.1918860    -1.1187650    -0.3259700
  H       -2.6699130    -0.2765890     0.8297550
  H       -3.0608600    -0.3791320    -0.8796750
  H       -1.8321650    -2.3606500    -0.1255340
  H       -0.8887130    -1.5005570    -1.3409750
  H       -2.3834680     1.8827830    -0.2893500
  H       -1.2246060     1.2090190    -1.4238390
  H       -0.4244360    -1.0900460     1.6492300
  H        0.3620160    -2.3701320     0.7449650
  H       -0.7218730     1.1400510     1.5944380
  H       -0.2910430     2.5394790     0.6064930
  H        1.9486170    -1.7578730    -1.1825500
  H        2.6762910    -1.7288140     0.4434650
  H        2.8674440    -0.3269360    -0.6441440
units angstrom
no_reorient  #important for SAPT in psi4, default
symmetry c1  #important for SAPT in psi4, default
}

set PROPERTIES_ORIGIN ["COM"]
properties('MP2/aug-cc-pvtz', properties = ['dipole'])
--------------------------------------------------------------------------

    Molecular point group: c1
  Charge       = 0
  Multiplicity = 1
  Basis Set: AUG-CC-PVTZ
    Blend: AUG-CC-PVTZ
  Basis Set: (AUG-CC-PVTZ AUX)
    Blend: AUG-CC-PVTZ-JKFIT

    Orbital Energies [Eh]
    ---------------------

    Doubly Occupied:

       1A    -20.505081     2A    -15.581456     3A    -11.338103
       4A    -11.274606     5A    -11.252162     6A    -11.235103
       7A    -11.233947     8A    -11.232958     9A    -11.230348
      10A     -1.361626    11A     -1.241859    12A     -1.100790
      13A     -1.039971    14A     -0.978047    15A     -0.910449
      16A     -0.877172    17A     -0.794505    18A     -0.729626
      19A     -0.692098    20A     -0.666602    21A     -0.635669
      22A     -0.609248    23A     -0.602707    24A     -0.594180
      25A     -0.572058    26A     -0.562480    27A     -0.544513
      28A     -0.530012    29A     -0.515579    30A     -0.504997
      31A     -0.480388    32A     -0.469530    33A     -0.453327
      34A     -0.405847    35A     -0.367944

  @DF-RHF Final Energy:  -402.10003063557127

   => Energetics <=

    Nuclear Repulsion Energy =            487.2327951271530537
    One-Electron Energy =               -1512.4156761986610036
    Two-Electron Energy =                 623.0828504359365070
    Total Energy =                       -402.1000306355713292
  Basis Set: (AUG-CC-PVTZ AUX)
    Blend: AUG-CC-PVTZ-RI
    Molecular point group: c1

    Geometry (in Angstrom), charge = 0, multiplicity = 1:

       Center              X                  Y                   Z               Mass
    ------------   -----------------  -----------------  -----------------  -----------------
         O            1.735433356770     1.553380438549    -0.292547066701    15.994914619570
         N            0.952107356770    -0.538938561451     0.204420933299    14.003074004430
         C           -2.267226643230    -0.297955561451    -0.177942066701    12.000000000000
         C           -1.311579643230    -1.482041561451    -0.316712066701    12.000000000000
         C           -1.637471643230     1.077329438549    -0.397027066701    12.000000000000
         C           -0.180453743230    -1.340068561451     0.657666933299    12.000000000000
         C           -0.497024643230     1.413450438549     0.576809933299    12.000000000000
         C            0.832196356770     0.826150438549     0.139038933299    12.000000000000
         C            2.153339356770    -1.165690561451    -0.327395066701    12.000000000000
         H           -2.708459643230    -0.323514561451     0.828329933299     1.007825032230
         H           -3.099406643230    -0.426057561451    -0.881100066701     1.007825032230
         H           -1.870711643230    -2.407575561451    -0.126959066701     1.007825032230
         H           -0.927259643230    -1.547482561451    -1.342400066701     1.007825032230
         H           -2.422014643230     1.835857438549    -0.290775066701     1.007825032230
         H           -1.263152643230     1.162093438549    -1.425264066701     1.007825032230
         H           -0.462982643230    -1.136971561451     1.647804933299     1.007825032230
         H            0.323469356770    -2.417057561451     0.743539933299     1.007825032230
         H           -0.760419643230     1.093125438549     1.593012933299     1.007825032230
         H           -0.329589643230     2.492553438549     0.605067933299     1.007825032230
         H            1.910070356770    -1.804798561451    -1.183975066701     1.007825032230
         H            2.637744356770    -1.775739561451     0.442039933299     1.007825032230
         H            2.828897356770    -0.373861561451    -0.645569066701     1.007825032230

  Basis Set: AUG-CC-PVTZ
    Blend: AUG-CC-PVTZ
  Basis Set: (AUG-CC-PVTZ AUX)
    Blend: AUG-CC-PVTZ-JKFIT
	 Reference Energy          =    -402.1000306355712723 [Eh]
	 Singles Energy            =      -0.0000000000000000 [Eh]
	 Same-Spin Energy          =      -0.4224445509092447 [Eh]
	 Opposite-Spin Energy      =      -1.4064140510707310 [Eh]
	 Correlation Energy        =      -1.8288586019799757 [Eh]
	 Total Energy              =    -403.9288892375512319 [Eh]

	 ================> DF-SCS-MP2 Energies <==================
	-----------------------------------------------------------
	 SCS Same-Spin Scale       =       0.3333333333333333 [-]
	 SCS Opposite-Spin Scale   =       1.2000000000000000 [-]
	 SCS Same-Spin Energy      =      -0.1408148503030816 [Eh]
	 SCS Opposite-Spin Energy  =      -1.6876968612848773 [Eh]
	 SCS Correlation Energy    =      -1.8285117115879588 [Eh]
	 SCS Total Energy          =    -403.9285423471592367 [Eh]
	-----------------------------------------------------------

  Dipole Moment: [D]
     X:    -2.6031      Y:    -3.0393      Z:     0.7809     Total:     4.0771

*** Psi4 exiting successfully. Buy a developer a beer!
