                               Psi4 1.3.2 release

  ==> Input File <==

--------------------------------------------------------------------------
#psi4
#
memory 32 gb

molecule  {
0 1
  O        1.7739800     1.6003060    -0.2911220
  N        0.9906540    -0.4920130     0.2058460
  C       -2.2286800    -0.2510300    -0.1765170
  C       -1.2730330    -1.4351160    -0.3152870
  C       -1.5989250     1.1242550    -0.3956020
  C       -0.0841310    -1.3759550     0.6456410
  C       -0.4584780     1.4603760     0.5782350
  C        0.8707430     0.8730760     0.1404640
  C        2.1918860    -1.1187650    -0.3259700
  H       -2.6699130    -0.2765890     0.8297550
  H       -3.0608600    -0.3791320    -0.8796750
  H       -1.7812347    -2.2763448    -0.1428182
  H       -0.8887130    -1.5005570    -1.3409750
  H       -2.3834680     1.8827830    -0.2893500
  H       -1.2246060     1.2090190    -1.4238390
  H       -0.4244360    -1.0900460     1.6492300
  H        0.3620160    -2.3701320     0.7449650
  H       -0.7218730     1.1400510     1.5944380
  H       -0.2910430     2.5394790     0.6064930
  H        1.9486170    -1.7578730    -1.1825500
  H        2.6762910    -1.7288140     0.4434650
  H        2.8674440    -0.3269360    -0.6441440
units angstrom
no_reorient  #important for SAPT in psi4, default
symmetry c1  #important for SAPT in psi4, default
}

set PROPERTIES_ORIGIN ["COM"]
properties('MP2/aug-cc-pvtz', properties = ['dipole'])
--------------------------------------------------------------------------

    Molecular point group: c1
  Charge       = 0
  Multiplicity = 1
  Basis Set: AUG-CC-PVTZ
    Blend: AUG-CC-PVTZ
  Basis Set: (AUG-CC-PVTZ AUX)
    Blend: AUG-CC-PVTZ-JKFIT

    Orbital Energies [Eh]
    ---------------------

    Doubly Occupied:

       1A    -20.505145     2A    -15.579850     3A    -11.339381
       4A    -11.271508     5A    -11.250194     6A    -11.233991
       7A    -11.233000     8A    -11.230821     9A    -11.220671
      10A     -1.361292    11A     -1.240617    12A     -1.098788
      13A     -1.041255    14A     -0.975099    15A     -0.913430
      16A     -0.883442    17A     -0.795161    18A     -0.724936
      19A     -0.691643    20A     -0.671630    21A     -0.633581
      22A     -0.607681    23A     -0.604931    24A     -0.596516
      25A     -0.584310    26A     -0.560017    27A     -0.544056
      28A     -0.527849    29A     -0.510260    30A     -0.508684
      31A     -0.480052    32A     -0.469262    33A     -0.465226
      34A     -0.406969    35A     -0.364572

  @DF-RHF Final Energy:  -402.10642086656537

   => Energetics <=

    Nuclear Repulsion Energy =            486.8559039135324724
    One-Electron Energy =               -1511.6730058665605156
    Two-Electron Energy =                 622.7106810864626141
    Total Energy =                       -402.1064208665653723
  Basis Set: (AUG-CC-PVTZ AUX)
    Blend: AUG-CC-PVTZ-RI
    Molecular point group: c1

    Geometry (in Angstrom), charge = 0, multiplicity = 1:

       Center              X                  Y                   Z               Mass
    ------------   -----------------  -----------------  -----------------  -----------------
         O            1.729574633666     1.560530565643    -0.291140049772    15.994914619570
         N            0.946248633666    -0.531788434357     0.205827950228    14.003074004430
         C           -2.273085366334    -0.290805434357    -0.176535049772    12.000000000000
         C           -1.317438366334    -1.474891434357    -0.315305049772    12.000000000000
         C           -1.643330366334     1.084479565643    -0.395620049772    12.000000000000
         C           -0.128536366334    -1.415730434357     0.645622950228    12.000000000000
         C           -0.502883366334     1.420600565643     0.578216950228    12.000000000000
         C            0.826337633666     0.833300565643     0.140445950228    12.000000000000
         C            2.147480633666    -1.158540434357    -0.325988049772    12.000000000000
         H           -2.714318366334    -0.316364434357     0.829736950228     1.007825032230
         H           -3.105265366334    -0.418907434357    -0.879693049772     1.007825032230
         H           -1.825640066334    -2.316120234357    -0.142836249772     1.007825032230
         H           -0.933118366334    -1.540332434357    -1.340993049772     1.007825032230
         H           -2.427873366334     1.843007565643    -0.289368049772     1.007825032230
         H           -1.269011366334     1.169243565643    -1.423857049772     1.007825032230
         H           -0.468841366334    -1.129821434357     1.649211950228     1.007825032230
         H            0.317610633666    -2.409907434357     0.744946950228     1.007825032230
         H           -0.766278366334     1.100275565643     1.594419950228     1.007825032230
         H           -0.335448366334     2.499703565643     0.606474950228     1.007825032230
         H            1.904211633666    -1.797648434357    -1.182568049772     1.007825032230
         H            2.631885633666    -1.768589434357     0.443446950228     1.007825032230
         H            2.823038633666    -0.366711434357    -0.644162049772     1.007825032230

  Basis Set: AUG-CC-PVTZ
    Blend: AUG-CC-PVTZ
  Basis Set: (AUG-CC-PVTZ AUX)
    Blend: AUG-CC-PVTZ-JKFIT
	 Reference Energy          =    -402.1064208665653723 [Eh]
	 Singles Energy            =      -0.0000000000000000 [Eh]
	 Same-Spin Energy          =      -0.4217624419764278 [Eh]
	 Opposite-Spin Energy      =      -1.4046386485345295 [Eh]
	 Correlation Energy        =      -1.8264010905109571 [Eh]
	 Total Energy              =    -403.9328219570763281 [Eh]

	 ================> DF-SCS-MP2 Energies <==================
	-----------------------------------------------------------
	 SCS Same-Spin Scale       =       0.3333333333333333 [-]
	 SCS Opposite-Spin Scale   =       1.2000000000000000 [-]
	 SCS Same-Spin Energy      =      -0.1405874806588092 [Eh]
	 SCS Opposite-Spin Energy  =      -1.6855663782414354 [Eh]
	 SCS Correlation Energy    =      -1.8261538589002446 [Eh]
	 SCS Total Energy          =    -403.9325747254655994 [Eh]
	-----------------------------------------------------------

  Dipole Moment: [D]
     X:    -2.6166      Y:    -3.1703      Z:     0.7962     Total:     4.1870

*** Psi4 exiting successfully. Buy a developer a beer!
