                               Psi4 1.3.2 release

  ==> Input File <==

--------------------------------------------------------------------------
#psi4
#
memory 32 gb

molecule  {
0 1
  O        1.7739800     1.6003060    -0.2911220
  N        0.9906540    -0.4920130     0.2058460
  C       -2.1882126    -0.2182301    -0.1879572
  C       -1.2730330    -1.4351160    -0.3152870
  C       -1.5989250     1.1242550    -0.3956020
  C       -0.0841310    -1.3759550     0.6456410
  C       -0.4584780     1.4603760     0.5782350
  C        0.8707430     0.8730760     0.1404640
  C        2.1918860    -1.1187650    -0.3259700
  H       -2.6699130    -0.2765890     0.8297550
  H       -3.0608600    -0.3791320    -0.8796750
  H       -1.8321650    -2.3606500    -0.1255340
  H       -0.8887130    -1.5005570    -1.3409750
  H       -2.3834680     1.8827830    -0.2893500
  H       -1.2246060     1.2090190    -1.4238390
  H       -0.4244360    -1.0900460     1.6492300
  H        0.3620160    -2.3701320     0.7449650
  H       -0.7218730     1.1400510     1.5944380
  H       -0.2910430     2.5394790     0.6064930
  H        1.9486170    -1.7578730    -1.1825500
  H        2.6762910    -1.7288140     0.4434650
  H        2.8674440    -0.3269360    -0.6441440
units angstrom
no_reorient  #important for SAPT in psi4, default
symmetry c1  #important for SAPT in psi4, default
}

set PROPERTIES_ORIGIN ["COM"]
properties('MP2/aug-cc-pvtz', properties = ['dipole'])
--------------------------------------------------------------------------

    Molecular point group: c1
  Charge       = 0
  Multiplicity = 1
  Basis Set: AUG-CC-PVTZ
    Blend: AUG-CC-PVTZ
  Basis Set: (AUG-CC-PVTZ AUX)
    Blend: AUG-CC-PVTZ-JKFIT

    Orbital Energies [Eh]
    ---------------------

    Doubly Occupied:

       1A    -20.505923     2A    -15.580820     3A    -11.340248
       4A    -11.271826     5A    -11.250678     6A    -11.234622
       7A    -11.233974     8A    -11.233793     9A    -11.233083
      10A     -1.362093    11A     -1.241501    12A     -1.103173
      13A     -1.038691    14A     -0.977223    15A     -0.913168
      16A     -0.881201    17A     -0.788416    18A     -0.725555
      19A     -0.691523    20A     -0.670196    21A     -0.632661
      22A     -0.608554    23A     -0.605199    24A     -0.593651
      25A     -0.584276    26A     -0.557536    27A     -0.545838
      28A     -0.527840    29A     -0.510179    30A     -0.507434
      31A     -0.481429    32A     -0.468171    33A     -0.459960
      34A     -0.407698    35A     -0.365111

  @DF-RHF Final Energy:  -402.10838771715686

   => Energetics <=

    Nuclear Repulsion Energy =            487.0850684682536667
    One-Electron Energy =               -1512.1204281332979917
    Two-Electron Energy =                 622.9269719478875231
    Total Energy =                       -402.1083877171568020
  Basis Set: (AUG-CC-PVTZ AUX)
    Blend: AUG-CC-PVTZ-RI
    Molecular point group: c1

    Geometry (in Angstrom), charge = 0, multiplicity = 1:

       Center              X                  Y                   Z               Mass
    ------------   -----------------  -----------------  -----------------  -----------------
         O            1.726157789088     1.558102283948    -0.290196987457    15.994914619570
         N            0.942831789088    -0.534216716052     0.206771012543    14.003074004430
         C           -2.236034810912    -0.260433816052    -0.187032187457    12.000000000000
         C           -1.320855210912    -1.477319716052    -0.314361987457    12.000000000000
         C           -1.646747210912     1.082051283948    -0.394676987457    12.000000000000
         C           -0.131953210912    -1.418158716052     0.646566012543    12.000000000000
         C           -0.506300210912     1.418172283948     0.579160012543    12.000000000000
         C            0.822920789088     0.830872283948     0.141389012543    12.000000000000
         C            2.144063789088    -1.160968716052    -0.325044987457    12.000000000000
         H           -2.717735210912    -0.318792716052     0.830680012543     1.007825032230
         H           -3.108682210912    -0.421335716052    -0.878749987457     1.007825032230
         H           -1.879987210912    -2.402853716052    -0.124608987457     1.007825032230
         H           -0.936535210912    -1.542760716052    -1.340049987457     1.007825032230
         H           -2.431290210912     1.840579283948    -0.288424987457     1.007825032230
         H           -1.272428210912     1.166815283948    -1.422913987457     1.007825032230
         H           -0.472258210912    -1.132249716052     1.650155012543     1.007825032230
         H            0.314193789088    -2.412335716052     0.745890012543     1.007825032230
         H           -0.769695210912     1.097847283948     1.595363012543     1.007825032230
         H           -0.338865210912     2.497275283948     0.607418012543     1.007825032230
         H            1.900794789088    -1.800076716052    -1.181624987457     1.007825032230
         H            2.628468789088    -1.771017716052     0.444390012543     1.007825032230
         H            2.819621789088    -0.369139716052    -0.643218987457     1.007825032230

  Basis Set: AUG-CC-PVTZ
    Blend: AUG-CC-PVTZ
  Basis Set: (AUG-CC-PVTZ AUX)
    Blend: AUG-CC-PVTZ-JKFIT
	 Reference Energy          =    -402.1083877171568588 [Eh]
	 Singles Energy            =      -0.0000000000000000 [Eh]
	 Same-Spin Energy          =      -0.4222431344420706 [Eh]
	 Opposite-Spin Energy      =      -1.4057946646479738 [Eh]
	 Correlation Energy        =      -1.8280377990900445 [Eh]
	 Total Energy              =    -403.9364255162469135 [Eh]

	 ================> DF-SCS-MP2 Energies <==================
	-----------------------------------------------------------
	 SCS Same-Spin Scale       =       0.3333333333333333 [-]
	 SCS Opposite-Spin Scale   =       1.2000000000000000 [-]
	 SCS Same-Spin Energy      =      -0.1407477114806902 [Eh]
	 SCS Opposite-Spin Energy  =      -1.6869535975775685 [Eh]
	 SCS Correlation Energy    =      -1.8277013090582588 [Eh]
	 SCS Total Energy          =    -403.9360890262151429 [Eh]
	-----------------------------------------------------------

  Dipole Moment: [D]
     X:    -2.5587      Y:    -3.0937      Z:     0.7807     Total:     4.0899

*** Psi4 exiting successfully. Buy a developer a beer!
