                               Psi4 1.3.2 release

  ==> Input File <==

--------------------------------------------------------------------------
#psi4
#
memory 32 gb

molecule  {
0 1
  O        1.7739800     1.6003060    -0.2911220
  N        0.9906540    -0.4920130     0.2058460
  C       -2.2286800    -0.2510300    -0.1765170
  C       -1.2730330    -1.4351160    -0.3152870
  C       -1.6129188     1.1138123    -0.3752403
  C       -0.0841310    -1.3759550     0.6456410
  C       -0.4584780     1.4603760     0.5782350
  C        0.8707430     0.8730760     0.1404640
  C        2.1918860    -1.1187650    -0.3259700
  H       -2.6699130    -0.2765890     0.8297550
  H       -3.0608600    -0.3791320    -0.8796750
  H       -1.8321650    -2.3606500    -0.1255340
  H       -0.8887130    -1.5005570    -1.3409750
  H       -2.3834680     1.8827830    -0.2893500
  H       -1.2246060     1.2090190    -1.4238390
  H       -0.4244360    -1.0900460     1.6492300
  H        0.3620160    -2.3701320     0.7449650
  H       -0.7218730     1.1400510     1.5944380
  H       -0.2910430     2.5394790     0.6064930
  H        1.9486170    -1.7578730    -1.1825500
  H        2.6762910    -1.7288140     0.4434650
  H        2.8674440    -0.3269360    -0.6441440
units angstrom
no_reorient  #important for SAPT in psi4, default
symmetry c1  #important for SAPT in psi4, default
}

set PROPERTIES_ORIGIN ["COM"]
properties('MP2/aug-cc-pvtz', properties = ['dipole'])
--------------------------------------------------------------------------

    Molecular point group: c1
  Charge       = 0
  Multiplicity = 1
  Basis Set: AUG-CC-PVTZ
    Blend: AUG-CC-PVTZ
  Basis Set: (AUG-CC-PVTZ AUX)
    Blend: AUG-CC-PVTZ-JKFIT

    Orbital Energies [Eh]
    ---------------------

    Doubly Occupied:

       1A    -20.505924     2A    -15.580652     3A    -11.340196
       4A    -11.272395     5A    -11.250637     6A    -11.235569
       7A    -11.233763     8A    -11.233733     9A    -11.230984
      10A     -1.361984    11A     -1.241320    12A     -1.099467
      13A     -1.038070    14A     -0.976750    15A     -0.914273
      16A     -0.878645    17A     -0.791084    18A     -0.725341
      19A     -0.690698    20A     -0.669655    21A     -0.633186
      22A     -0.608662    23A     -0.602723    24A     -0.594889
      25A     -0.583748    26A     -0.558402    27A     -0.545025
      28A     -0.526947    29A     -0.509435    30A     -0.507620
      31A     -0.476434    32A     -0.470178    33A     -0.465050
      34A     -0.407838    35A     -0.365194

  @DF-RHF Final Energy:  -402.11108017425397

   => Energetics <=

    Nuclear Repulsion Energy =            486.4080846934581928
    One-Electron Energy =               -1510.7853902944600577
    Two-Electron Energy =                 622.2662254267478374
    Total Energy =                       -402.1110801742539707
  Basis Set: (AUG-CC-PVTZ AUX)
    Blend: AUG-CC-PVTZ-RI
    Molecular point group: c1

    Geometry (in Angstrom), charge = 0, multiplicity = 1:

       Center              X                  Y                   Z               Mass
    ------------   -----------------  -----------------  -----------------  -----------------
         O            1.731299692081     1.562184993370    -0.293199533944    15.994914619570
         N            0.947973692081    -0.530134006630     0.203768466056    14.003074004430
         C           -2.271360307919    -0.289151006630    -0.178594533944    12.000000000000
         C           -1.315713307919    -1.473237006630    -0.317364533944    12.000000000000
         C           -1.655599107919     1.075691293370    -0.377317833944    12.000000000000
         C           -0.126811307919    -1.414076006630     0.643563466056    12.000000000000
         C           -0.501158307919     1.422254993370     0.576157466056    12.000000000000
         C            0.828062692081     0.834954993370     0.138386466056    12.000000000000
         C            2.149205692081    -1.156886006630    -0.328047533944    12.000000000000
         H           -2.712593307919    -0.314710006630     0.827677466056     1.007825032230
         H           -3.103540307919    -0.417253006630    -0.881752533944     1.007825032230
         H           -1.874845307919    -2.398771006630    -0.127611533944     1.007825032230
         H           -0.931393307919    -1.538678006630    -1.343052533944     1.007825032230
         H           -2.426148307919     1.844661993370    -0.291427533944     1.007825032230
         H           -1.267286307919     1.170897993370    -1.425916533944     1.007825032230
         H           -0.467116307919    -1.128167006630     1.647152466056     1.007825032230
         H            0.319335692081    -2.408253006630     0.742887466056     1.007825032230
         H           -0.764553307919     1.101929993370     1.592360466056     1.007825032230
         H           -0.333723307919     2.501357993370     0.604415466056     1.007825032230
         H            1.905936692081    -1.795994006630    -1.184627533944     1.007825032230
         H            2.633610692081    -1.766935006630     0.441387466056     1.007825032230
         H            2.824763692081    -0.365057006630    -0.646221533944     1.007825032230

  Basis Set: AUG-CC-PVTZ
    Blend: AUG-CC-PVTZ
  Basis Set: (AUG-CC-PVTZ AUX)
    Blend: AUG-CC-PVTZ-JKFIT
	 Reference Energy          =    -402.1110801742539707 [Eh]
	 Singles Energy            =      -0.0000000000000000 [Eh]
	 Same-Spin Energy          =      -0.4219220305214952 [Eh]
	 Opposite-Spin Energy      =      -1.4053720781006882 [Eh]
	 Correlation Energy        =      -1.8272941086221834 [Eh]
	 Total Energy              =    -403.9383742828761683 [Eh]

	 ================> DF-SCS-MP2 Energies <==================
	-----------------------------------------------------------
	 SCS Same-Spin Scale       =       0.3333333333333333 [-]
	 SCS Opposite-Spin Scale   =       1.2000000000000000 [-]
	 SCS Same-Spin Energy      =      -0.1406406768404984 [Eh]
	 SCS Opposite-Spin Energy  =      -1.6864464937208259 [Eh]
	 SCS Correlation Energy    =      -1.8270871705613243 [Eh]
	 SCS Total Energy          =    -403.9381673448152696 [Eh]
	-----------------------------------------------------------

  Dipole Moment: [D]
     X:    -2.5840      Y:    -3.1101      Z:     0.8024     Total:     4.1223

*** Psi4 exiting successfully. Buy a developer a beer!
