                               Psi4 1.3.2 release

  ==> Input File <==

--------------------------------------------------------------------------
#psi4
#
memory 32 gb

molecule  {
0 1
  O        1.8445965     1.4926653    -0.3052775
  N        0.9906540    -0.4920130     0.2058460
  C       -2.2286800    -0.2510300    -0.1765170
  C       -1.2730330    -1.4351160    -0.3152870
  C       -1.5989250     1.1242550    -0.3956020
  C       -0.0841310    -1.3759550     0.6456410
  C       -0.4584780     1.4603760     0.5782350
  C        0.8707430     0.8730760     0.1404640
  C        2.1918860    -1.1187650    -0.3259700
  H       -2.6699130    -0.2765890     0.8297550
  H       -3.0608600    -0.3791320    -0.8796750
  H       -1.8321650    -2.3606500    -0.1255340
  H       -0.8887130    -1.5005570    -1.3409750
  H       -2.3834680     1.8827830    -0.2893500
  H       -1.2246060     1.2090190    -1.4238390
  H       -0.4244360    -1.0900460     1.6492300
  H        0.3620160    -2.3701320     0.7449650
  H       -0.7218730     1.1400510     1.5944380
  H       -0.2910430     2.5394790     0.6064930
  H        1.9486170    -1.7578730    -1.1825500
  H        2.6762910    -1.7288140     0.4434650
  H        2.8674440    -0.3269360    -0.6441440
units angstrom
no_reorient  #important for SAPT in psi4, default
symmetry c1  #important for SAPT in psi4, default
}

set PROPERTIES_ORIGIN ["COM"]
properties('MP2/aug-cc-pvtz', properties = ['dipole'])
--------------------------------------------------------------------------

    Molecular point group: c1
  Charge       = 0
  Multiplicity = 1
  Basis Set: AUG-CC-PVTZ
    Blend: AUG-CC-PVTZ
  Basis Set: (AUG-CC-PVTZ AUX)
    Blend: AUG-CC-PVTZ-JKFIT

    Orbital Energies [Eh]
    ---------------------

    Doubly Occupied:

       1A    -20.503567     2A    -15.574443     3A    -11.340263
       4A    -11.268948     5A    -11.244926     6A    -11.240301
       7A    -11.237577     8A    -11.232750     9A    -11.232118
      10A     -1.364484    11A     -1.233780    12A     -1.098923
      13A     -1.039646    14A     -0.974452    15A     -0.911440
      16A     -0.878351    17A     -0.793174    18A     -0.722342
      19A     -0.692723    20A     -0.668777    21A     -0.631676
      22A     -0.607642    23A     -0.602597    24A     -0.594827
      25A     -0.583808    26A     -0.557344    27A     -0.543928
      28A     -0.522958    29A     -0.508793    30A     -0.507523
      31A     -0.480045    32A     -0.469407    33A     -0.466498
      34A     -0.408735    35A     -0.360077

  @DF-RHF Final Energy:  -402.10808147732172

   => Energetics <=

    Nuclear Repulsion Energy =            486.8876363279758266
    One-Electron Energy =               -1511.7937460840398671
    Two-Electron Energy =                 622.7980282787423221
    Total Energy =                       -402.1080814773217753
  Basis Set: (AUG-CC-PVTZ AUX)
    Blend: AUG-CC-PVTZ-RI
    Molecular point group: c1

    Geometry (in Angstrom), charge = 0, multiplicity = 1:

       Center              X                  Y                   Z               Mass
    ------------   -----------------  -----------------  -----------------  -----------------
         O            1.791708218774     1.467104442841    -0.303651198594    15.994914619570
         N            0.937765718774    -0.517573857159     0.207472301406    14.003074004430
         C           -2.281568281226    -0.276590857159    -0.174890698594    12.000000000000
         C           -1.325921281226    -1.460676857159    -0.313660698594    12.000000000000
         C           -1.651813281226     1.098694142841    -0.393975698594    12.000000000000
         C           -0.137019281226    -1.401515857159     0.647267301406    12.000000000000
         C           -0.511366281226     1.434815142841     0.579861301406    12.000000000000
         C            0.817854718774     0.847515142841     0.142090301406    12.000000000000
         C            2.138997718774    -1.144325857159    -0.324343698594    12.000000000000
         H           -2.722801281226    -0.302149857159     0.831381301406     1.007825032230
         H           -3.113748281226    -0.404692857159    -0.878048698594     1.007825032230
         H           -1.885053281226    -2.386210857159    -0.123907698594     1.007825032230
         H           -0.941601281226    -1.526117857159    -1.339348698594     1.007825032230
         H           -2.436356281226     1.857222142841    -0.287723698594     1.007825032230
         H           -1.277494281226     1.183458142841    -1.422212698594     1.007825032230
         H           -0.477324281226    -1.115606857159     1.650856301406     1.007825032230
         H            0.309127718774    -2.395692857159     0.746591301406     1.007825032230
         H           -0.774761281226     1.114490142841     1.596064301406     1.007825032230
         H           -0.343931281226     2.513918142841     0.608119301406     1.007825032230
         H            1.895728718774    -1.783433857159    -1.180923698594     1.007825032230
         H            2.623402718774    -1.754374857159     0.445091301406     1.007825032230
         H            2.814555718774    -0.352496857159    -0.642517698594     1.007825032230

  Basis Set: AUG-CC-PVTZ
    Blend: AUG-CC-PVTZ
  Basis Set: (AUG-CC-PVTZ AUX)
    Blend: AUG-CC-PVTZ-JKFIT
	 Reference Energy          =    -402.1080814773217185 [Eh]
	 Singles Energy            =      -0.0000000000000000 [Eh]
	 Same-Spin Energy          =      -0.4222068775803304 [Eh]
	 Opposite-Spin Energy      =      -1.4055926064098834 [Eh]
	 Correlation Energy        =      -1.8277994839902139 [Eh]
	 Total Energy              =    -403.9358809613119092 [Eh]

	 ================> DF-SCS-MP2 Energies <==================
	-----------------------------------------------------------
	 SCS Same-Spin Scale       =       0.3333333333333333 [-]
	 SCS Opposite-Spin Scale   =       1.2000000000000000 [-]
	 SCS Same-Spin Energy      =      -0.1407356258601101 [Eh]
	 SCS Opposite-Spin Energy  =      -1.6867111276918600 [Eh]
	 SCS Correlation Energy    =      -1.8274467535519703 [Eh]
	 SCS Total Energy          =    -403.9355282308736719 [Eh]
	-----------------------------------------------------------

  Dipole Moment: [D]
     X:    -2.7953      Y:    -2.7814      Z:     0.8318     Total:     4.0302

*** Psi4 exiting successfully. Buy a developer a beer!
