                               Psi4 1.4a3.dev225

  ==> Input File <==

--------------------------------------------------------------------------
#psi4
#
memory 32 gb

molecule  {
0 1
  O        1.7739800     1.6003060    -0.2911220
  N        0.9906540    -0.4920130     0.2058460
  C       -2.2286800    -0.2510300    -0.1765170
  C       -1.2730330    -1.4351160    -0.3152870
  C       -1.5989250     1.1242550    -0.3956020
  C       -0.0841310    -1.3759550     0.6456410
  C       -0.4584780     1.4603760     0.5782350
  C        0.8707430     0.8730760     0.1404640
  C        2.1918860    -1.1187650    -0.3259700
  H       -2.6899863    -0.2777518     0.8755339
  H       -3.0608600    -0.3791320    -0.8796750
  H       -1.8321650    -2.3606500    -0.1255340
  H       -0.8887130    -1.5005570    -1.3409750
  H       -2.3834680     1.8827830    -0.2893500
  H       -1.2246060     1.2090190    -1.4238390
  H       -0.4244360    -1.0900460     1.6492300
  H        0.3620160    -2.3701320     0.7449650
  H       -0.7218730     1.1400510     1.5944380
  H       -0.2910430     2.5394790     0.6064930
  H        1.9486170    -1.7578730    -1.1825500
  H        2.6762910    -1.7288140     0.4434650
  H        2.8674440    -0.3269360    -0.6441440
units angstrom
no_reorient  #important for SAPT in psi4, default
symmetry c1  #important for SAPT in psi4, default
}

set PROPERTIES_ORIGIN ["COM"]
properties('MP2/aug-cc-pvtz', properties = ['dipole'])
--------------------------------------------------------------------------

    Molecular point group: c1
  Charge       = 0
  Multiplicity = 1
  Basis Set: AUG-CC-PVTZ
    Blend: AUG-CC-PVTZ
  Basis Set: (AUG-CC-PVTZ AUX)
    Blend: AUG-CC-PVTZ-JKFIT

    Orbital Energies [Eh]
    ---------------------

    Doubly Occupied:

       1A    -20.505817     2A    -15.580686     3A    -11.340031
       4A    -11.272280     5A    -11.250694     6A    -11.237934
       7A    -11.235211     8A    -11.233942     9A    -11.233596
      10A     -1.361959    11A     -1.241306    12A     -1.096729
      13A     -1.038270    14A     -0.974977    15A     -0.913303
      16A     -0.878516    17A     -0.788926    18A     -0.725420
      19A     -0.690542    20A     -0.669031    21A     -0.632041
      22A     -0.608604    23A     -0.601917    24A     -0.592896
      25A     -0.583063    26A     -0.557654    27A     -0.544690
      28A     -0.527261    29A     -0.509940    30A     -0.508708
      31A     -0.475257    32A     -0.467700    33A     -0.465852
      34A     -0.407572    35A     -0.365240

  @DF-RHF Final Energy:  -402.11002397109479

   => Energetics <=

    Nuclear Repulsion Energy =            486.0673678624386866
    One-Electron Energy =               -1510.1196569808728327
    Two-Electron Energy =                 621.9422651473394126
    Total Energy =                       -402.1100239710947335
  Basis Set: (AUG-CC-PVTZ AUX)
    Blend: AUG-CC-PVTZ-RI
    Molecular point group: c1

    Geometry (in Angstrom), charge = 0, multiplicity = 1:

       Center              X                  Y                   Z               Mass
    ------------   -----------------  -----------------  -----------------  -----------------
         O            1.730137649924     1.561208275979    -0.291640102595    15.994914619570
         N            0.946811649924    -0.531110724021     0.205327897405    14.003074004430
         C           -2.272522350076    -0.290127724021    -0.177035102595    12.000000000000
         C           -1.316875350076    -1.474213724021    -0.315805102595    12.000000000000
         C           -1.642767350076     1.085157275979    -0.396120102595    12.000000000000
         C           -0.127973350076    -1.415052724021     0.645122897405    12.000000000000
         C           -0.502320350076     1.421278275979     0.577716897405    12.000000000000
         C            0.826900649924     0.833978275979     0.139945897405    12.000000000000
         C            2.148043649924    -1.157862724021    -0.326488102595    12.000000000000
         H           -2.733828650076    -0.316849524021     0.875015797405     1.007825032230
         H           -3.104702350076    -0.418229724021    -0.880193102595     1.007825032230
         H           -1.876007350076    -2.399747724021    -0.126052102595     1.007825032230
         H           -0.932555350076    -1.539654724021    -1.341493102595     1.007825032230
         H           -2.427310350076     1.843685275979    -0.289868102595     1.007825032230
         H           -1.268448350076     1.169921275979    -1.424357102595     1.007825032230
         H           -0.468278350076    -1.129143724021     1.648711897405     1.007825032230
         H            0.318173649924    -2.409229724021     0.744446897405     1.007825032230
         H           -0.765715350076     1.100953275979     1.593919897405     1.007825032230
         H           -0.334885350076     2.500381275979     0.605974897405     1.007825032230
         H            1.904774649924    -1.796970724021    -1.183068102595     1.007825032230
         H            2.632448649924    -1.767911724021     0.442946897405     1.007825032230
         H            2.823601649924    -0.366033724021    -0.644662102595     1.007825032230

  Basis Set: AUG-CC-PVTZ
    Blend: AUG-CC-PVTZ
  Basis Set: (AUG-CC-PVTZ AUX)
    Blend: AUG-CC-PVTZ-JKFIT
	 Reference Energy          =    -402.1100239710947903 [Eh]
	 Singles Energy            =      -0.0000000000000000 [Eh]
	 Same-Spin Energy          =      -0.4217953338540738 [Eh]
	 Opposite-Spin Energy      =      -1.4055460061749683 [Eh]
	 Correlation Energy        =      -1.8273413400290421 [Eh]
	 Total Energy              =    -403.9373653111238127 [Eh]

	 ================> DF-SCS-MP2 Energies <==================
	-----------------------------------------------------------
	 SCS Same-Spin Scale       =       0.3333333333333333 [-]
	 SCS Opposite-Spin Scale   =       1.2000000000000000 [-]
	 SCS Same-Spin Energy      =      -0.1405984446180246 [Eh]
	 SCS Opposite-Spin Energy  =      -1.6866552074099619 [Eh]
	 SCS Correlation Energy    =      -1.8272536520279865 [Eh]
	 SCS Total Energy          =    -403.9372776231227817 [Eh]
	-----------------------------------------------------------

  Dipole Moment: [D]
     X:    -2.5572      Y:    -3.1015      Z:     0.7603     Total:     4.0910

*** Psi4 exiting successfully. Buy a developer a beer!
