                               Psi4 1.4a3.dev225

  ==> Input File <==

--------------------------------------------------------------------------
#psi4
#
memory 32 gb

molecule  {
0 1
  O        1.7739800     1.6003060    -0.2911220
  N        0.9906540    -0.4920130     0.2058460
  C       -2.2286800    -0.2510300    -0.1765170
  C       -1.2730330    -1.4351160    -0.3152870
  C       -1.5989250     1.1242550    -0.3956020
  C       -0.0841310    -1.3759550     0.6456410
  C       -0.4584780     1.4603760     0.5782350
  C        0.8342433     0.8436888     0.1579043
  C        2.1918860    -1.1187650    -0.3259700
  H       -2.6699130    -0.2765890     0.8297550
  H       -3.0608600    -0.3791320    -0.8796750
  H       -1.8321650    -2.3606500    -0.1255340
  H       -0.8887130    -1.5005570    -1.3409750
  H       -2.3834680     1.8827830    -0.2893500
  H       -1.2246060     1.2090190    -1.4238390
  H       -0.4244360    -1.0900460     1.6492300
  H        0.3620160    -2.3701320     0.7449650
  H       -0.7218730     1.1400510     1.5944380
  H       -0.2910430     2.5394790     0.6064930
  H        1.9486170    -1.7578730    -1.1825500
  H        2.6762910    -1.7288140     0.4434650
  H        2.8674440    -0.3269360    -0.6441440
units angstrom
no_reorient  #important for SAPT in psi4, default
symmetry c1  #important for SAPT in psi4, default
}

set PROPERTIES_ORIGIN ["COM"]
properties('MP2/aug-cc-pvtz', properties = ['dipole'])
--------------------------------------------------------------------------

    Molecular point group: c1
  Charge       = 0
  Multiplicity = 1
  Basis Set: AUG-CC-PVTZ
    Blend: AUG-CC-PVTZ
  Basis Set: (AUG-CC-PVTZ AUX)
    Blend: AUG-CC-PVTZ-JKFIT

    Orbital Energies [Eh]
    ---------------------

    Doubly Occupied:

       1A    -20.495026     2A    -15.588198     3A    -11.340104
       4A    -11.274777     5A    -11.254040     6A    -11.236181
       7A    -11.235956     8A    -11.234921     9A    -11.233308
      10A     -1.338076    11A     -1.239651    12A     -1.100934
      13A     -1.042250    14A     -0.980670    15A     -0.921842
      16A     -0.881437    17A     -0.795450    18A     -0.728739
      19A     -0.692093    20A     -0.669217    21A     -0.635111
      22A     -0.611736    23A     -0.599892    24A     -0.595163
      25A     -0.580442    26A     -0.559134    27A     -0.542616
      28A     -0.527669    29A     -0.506884    30A     -0.505386
      31A     -0.481148    32A     -0.468935    33A     -0.461042
      34A     -0.402392    35A     -0.364700

  @DF-RHF Final Energy:  -402.10493905734330

   => Energetics <=

    Nuclear Repulsion Energy =            486.5036380268183507
    One-Electron Energy =               -1510.9669099490113240
    Two-Electron Energy =                 622.3583328648496718
    Total Energy =                       -402.1049390573432447
  Basis Set: (AUG-CC-PVTZ AUX)
    Blend: AUG-CC-PVTZ-RI
    Molecular point group: c1

    Geometry (in Angstrom), charge = 0, multiplicity = 1:

       Center              X                  Y                   Z               Mass
    ------------   -----------------  -----------------  -----------------  -----------------
         O            1.733424565469     1.563973620525    -0.292923712710    15.994914619570
         N            0.950098565469    -0.528345379475     0.204044287290    14.003074004430
         C           -2.269235434531    -0.287362379475    -0.178318712710    12.000000000000
         C           -1.313588434531    -1.471448379475    -0.317088712710    12.000000000000
         C           -1.639480434531     1.087922620525    -0.397403712710    12.000000000000
         C           -0.124686434531    -1.412287379475     0.643839287290    12.000000000000
         C           -0.499033434531     1.424043620525     0.576433287290    12.000000000000
         C            0.793687865469     0.807356420525     0.156102587290    12.000000000000
         C            2.151330565469    -1.155097379475    -0.327771712710    12.000000000000
         H           -2.710468434531    -0.312921379475     0.827953287290     1.007825032230
         H           -3.101415434531    -0.415464379475    -0.881476712710     1.007825032230
         H           -1.872720434531    -2.396982379475    -0.127335712710     1.007825032230
         H           -0.929268434531    -1.536889379475    -1.342776712710     1.007825032230
         H           -2.424023434531     1.846450620525    -0.291151712710     1.007825032230
         H           -1.265161434531     1.172686620525    -1.425640712710     1.007825032230
         H           -0.464991434531    -1.126378379475     1.647428287290     1.007825032230
         H            0.321460565469    -2.406464379475     0.743163287290     1.007825032230
         H           -0.762428434531     1.103718620525     1.592636287290     1.007825032230
         H           -0.331598434531     2.503146620525     0.604691287290     1.007825032230
         H            1.908061565469    -1.794205379475    -1.184351712710     1.007825032230
         H            2.635735565469    -1.765146379475     0.441663287290     1.007825032230
         H            2.826888565469    -0.363268379475    -0.645945712710     1.007825032230

  Basis Set: AUG-CC-PVTZ
    Blend: AUG-CC-PVTZ
  Basis Set: (AUG-CC-PVTZ AUX)
    Blend: AUG-CC-PVTZ-JKFIT
	 Reference Energy          =    -402.1049390573433016 [Eh]
	 Singles Energy            =      -0.0000000000000000 [Eh]
	 Same-Spin Energy          =      -0.4228565680913681 [Eh]
	 Opposite-Spin Energy      =      -1.4072661300198877 [Eh]
	 Correlation Energy        =      -1.8301226981112557 [Eh]
	 Total Energy              =    -403.9350617554545693 [Eh]

	 ================> DF-SCS-MP2 Energies <==================
	-----------------------------------------------------------
	 SCS Same-Spin Scale       =       0.3333333333333333 [-]
	 SCS Opposite-Spin Scale   =       1.2000000000000000 [-]
	 SCS Same-Spin Energy      =      -0.1409521893637893 [Eh]
	 SCS Opposite-Spin Energy  =      -1.6887193560238651 [Eh]
	 SCS Correlation Energy    =      -1.8296715453876544 [Eh]
	 SCS Total Energy          =    -403.9346106027309702 [Eh]
	-----------------------------------------------------------

  Dipole Moment: [D]
     X:    -2.7792      Y:    -3.4239      Z:     0.8702     Total:     4.4950

*** Psi4 exiting successfully. Buy a developer a beer!
