                               Psi4 1.3.2 release

  ==> Input File <==

--------------------------------------------------------------------------
#psi4
#
memory 32 gb

molecule  {
0 1
  O        1.7739800     1.6003060    -0.2911220
  N        0.9906540    -0.4920130     0.2058460
  C       -2.2286800    -0.2510300    -0.1765170
  C       -1.2730330    -1.4351160    -0.3152870
  C       -1.5989250     1.1242550    -0.3956020
  C       -0.0841310    -1.3759550     0.6456410
  C       -0.4584780     1.4603760     0.5782350
  C        0.8707430     0.8730760     0.1404640
  C        2.1918860    -1.1187650    -0.3259700
  H       -2.6699130    -0.2765890     0.8297550
  H       -3.0608600    -0.3791320    -0.8796750
  H       -1.8321650    -2.3606500    -0.1255340
  H       -0.8887130    -1.5005570    -1.3409750
  H       -2.3834680     1.8827830    -0.2893500
  H       -1.2246060     1.2090190    -1.4238390
  H       -0.4244360    -1.0900460     1.6492300
  H        0.3620160    -2.3701320     0.7449650
  H       -0.7249666     1.1040956     1.5815802
  H       -0.2910430     2.5394790     0.6064930
  H        1.9486170    -1.7578730    -1.1825500
  H        2.6762910    -1.7288140     0.4434650
  H        2.8674440    -0.3269360    -0.6441440
units angstrom
no_reorient  #important for SAPT in psi4, default
symmetry c1  #important for SAPT in psi4, default
}

set PROPERTIES_ORIGIN ["COM"]
properties('MP2/aug-cc-pvtz', properties = ['dipole'])
--------------------------------------------------------------------------

    Molecular point group: c1
  Charge       = 0
  Multiplicity = 1
  Basis Set: AUG-CC-PVTZ
    Blend: AUG-CC-PVTZ
  Basis Set: (AUG-CC-PVTZ AUX)
    Blend: AUG-CC-PVTZ-JKFIT

    Orbital Energies [Eh]
    ---------------------

    Doubly Occupied:

       1A    -20.505587     2A    -15.580591     3A    -11.339685
       4A    -11.272381     5A    -11.250626     6A    -11.234531
       7A    -11.233631     8A    -11.233503     9A    -11.231641
      10A     -1.361788    11A     -1.241261    12A     -1.097813
      13A     -1.038310    14A     -0.975735    15A     -0.913843
      16A     -0.878108    17A     -0.792616    18A     -0.725013
      19A     -0.690414    20A     -0.669317    21A     -0.633371
      22A     -0.608103    23A     -0.602435    24A     -0.594220
      25A     -0.583398    26A     -0.559061    27A     -0.544484
      28A     -0.527136    29A     -0.509615    30A     -0.509394
      31A     -0.479616    32A     -0.467295    33A     -0.465260
      34A     -0.407241    35A     -0.365172

  @DF-RHF Final Energy:  -402.11193734698776

   => Energetics <=

    Nuclear Repulsion Energy =            486.3823137799386132
    One-Electron Energy =               -1510.7441109137241710
    Two-Electron Energy =                 622.2498597867978560
    Total Energy =                       -402.1119373469877019
  Basis Set: (AUG-CC-PVTZ AUX)
    Blend: AUG-CC-PVTZ-RI
    Molecular point group: c1

    Geometry (in Angstrom), charge = 0, multiplicity = 1:

       Center              X                  Y                   Z               Mass
    ------------   -----------------  -----------------  -----------------  -----------------
         O            1.730003011016     1.561484160575    -0.291175148487    15.994914619570
         N            0.946677011016    -0.530834839425     0.205792851513    14.003074004430
         C           -2.272656988984    -0.289851839425    -0.176570148487    12.000000000000
         C           -1.317009988984    -1.473937839425    -0.315340148487    12.000000000000
         C           -1.642901988984     1.085433160575    -0.395655148487    12.000000000000
         C           -0.128107988984    -1.414776839425     0.645587851513    12.000000000000
         C           -0.502454988984     1.421554160575     0.578181851513    12.000000000000
         C            0.826766011016     0.834254160575     0.140410851513    12.000000000000
         C            2.147909011016    -1.157586839425    -0.326023148487    12.000000000000
         H           -2.713889988984    -0.315410839425     0.829701851513     1.007825032230
         H           -3.104836988984    -0.417953839425    -0.879728148487     1.007825032230
         H           -1.876141988984    -2.399471839425    -0.125587148487     1.007825032230
         H           -0.932689988984    -1.539378839425    -1.341028148487     1.007825032230
         H           -2.427444988984     1.843961160575    -0.289403148487     1.007825032230
         H           -1.268582988984     1.170197160575    -1.423892148487     1.007825032230
         H           -0.468412988984    -1.128867839425     1.649176851513     1.007825032230
         H            0.318039011016    -2.408953839425     0.744911851513     1.007825032230
         H           -0.768943588984     1.065273760575     1.581527051513     1.007825032230
         H           -0.335019988984     2.500657160575     0.606439851513     1.007825032230
         H            1.904640011016    -1.796694839425    -1.182603148487     1.007825032230
         H            2.632314011016    -1.767635839425     0.443411851513     1.007825032230
         H            2.823467011016    -0.365757839425    -0.644197148487     1.007825032230

  Basis Set: AUG-CC-PVTZ
    Blend: AUG-CC-PVTZ
  Basis Set: (AUG-CC-PVTZ AUX)
    Blend: AUG-CC-PVTZ-JKFIT
	 Reference Energy          =    -402.1119373469877587 [Eh]
	 Singles Energy            =      -0.0000000000000000 [Eh]
	 Same-Spin Energy          =      -0.4218236373338005 [Eh]
	 Opposite-Spin Energy      =      -1.4052690711952875 [Eh]
	 Correlation Energy        =      -1.8270927085290880 [Eh]
	 Total Energy              =    -403.9390300555168665 [Eh]

	 ================> DF-SCS-MP2 Energies <==================
	-----------------------------------------------------------
	 SCS Same-Spin Scale       =       0.3333333333333333 [-]
	 SCS Opposite-Spin Scale   =       1.2000000000000000 [-]
	 SCS Same-Spin Energy      =      -0.1406078791112668 [Eh]
	 SCS Opposite-Spin Energy  =      -1.6863228854343451 [Eh]
	 SCS Correlation Energy    =      -1.8269307645456119 [Eh]
	 SCS Total Energy          =    -403.9388681115333952 [Eh]
	-----------------------------------------------------------

  Dipole Moment: [D]
     X:    -2.5831      Y:    -3.1158      Z:     0.7834     Total:     4.1224

*** Psi4 exiting successfully. Buy a developer a beer!
