                               Psi4 1.3.2 release

  ==> Input File <==

--------------------------------------------------------------------------
#psi4
#
memory 32 gb

molecule  {
0 1
  O        1.7739800     1.6003060    -0.2911220
  N        0.9906540    -0.4920130     0.2058460
  C       -2.2286800    -0.2510300    -0.1765170
  C       -1.3051075    -1.4210270    -0.2749868
  C       -1.5989250     1.1242550    -0.3956020
  C       -0.0841310    -1.3759550     0.6456410
  C       -0.4584780     1.4603760     0.5782350
  C        0.8707430     0.8730760     0.1404640
  C        2.1918860    -1.1187650    -0.3259700
  H       -2.6699130    -0.2765890     0.8297550
  H       -3.0608600    -0.3791320    -0.8796750
  H       -1.8321650    -2.3606500    -0.1255340
  H       -0.8887130    -1.5005570    -1.3409750
  H       -2.3834680     1.8827830    -0.2893500
  H       -1.2246060     1.2090190    -1.4238390
  H       -0.4244360    -1.0900460     1.6492300
  H        0.3620160    -2.3701320     0.7449650
  H       -0.7218730     1.1400510     1.5944380
  H       -0.2910430     2.5394790     0.6064930
  H        1.9486170    -1.7578730    -1.1825500
  H        2.6762910    -1.7288140     0.4434650
  H        2.8674440    -0.3269360    -0.6441440
units angstrom
no_reorient  #important for SAPT in psi4, default
symmetry c1  #important for SAPT in psi4, default
}

set PROPERTIES_ORIGIN ["COM"]
properties('MP2/aug-cc-pvtz', properties = ['dipole'])
--------------------------------------------------------------------------

    Molecular point group: c1
  Charge       = 0
  Multiplicity = 1
  Basis Set: AUG-CC-PVTZ
    Blend: AUG-CC-PVTZ
  Basis Set: (AUG-CC-PVTZ AUX)
    Blend: AUG-CC-PVTZ-JKFIT

    Orbital Energies [Eh]
    ---------------------

    Doubly Occupied:

       1A    -20.506000     2A    -15.581094     3A    -11.340231
       4A    -11.272687     5A    -11.250666     6A    -11.235540
       7A    -11.235414     8A    -11.233917     9A    -11.230494
      10A     -1.362089    11A     -1.241312    12A     -1.101231
      13A     -1.039290    14A     -0.976633    15A     -0.915288
      16A     -0.878641    17A     -0.790359    18A     -0.725081
      19A     -0.691332    20A     -0.670677    21A     -0.632896
      22A     -0.610507    23A     -0.601217    24A     -0.595760
      25A     -0.584153    26A     -0.558038    27A     -0.545731
      28A     -0.527315    29A     -0.511383    30A     -0.504654
      31A     -0.473570    32A     -0.470106    33A     -0.466957
      34A     -0.407748    35A     -0.365189

  @DF-RHF Final Energy:  -402.10872502240409

   => Energetics <=

    Nuclear Repulsion Energy =            486.4864381176751067
    One-Electron Energy =               -1510.9239266762772331
    Two-Electron Energy =                 622.3287635361980392
    Total Energy =                       -402.1087250224040872
  Basis Set: (AUG-CC-PVTZ AUX)
    Blend: AUG-CC-PVTZ-RI
    Molecular point group: c1

    Geometry (in Angstrom), charge = 0, multiplicity = 1:

       Center              X                  Y                   Z               Mass
    ------------   -----------------  -----------------  -----------------  -----------------
         O            1.733006764371     1.559868855979    -0.295082008675    15.994914619570
         N            0.949680764371    -0.532450144021     0.201885991325    14.003074004430
         C           -2.269653235629    -0.291467144021    -0.180477008675    12.000000000000
         C           -1.346080735629    -1.461464144021    -0.278946808675    12.000000000000
         C           -1.639898235629     1.083817855979    -0.399562008675    12.000000000000
         C           -0.125104235629    -1.416392144021     0.641680991325    12.000000000000
         C           -0.499451235629     1.419938855979     0.574274991325    12.000000000000
         C            0.829769764371     0.832638855979     0.136503991325    12.000000000000
         C            2.150912764371    -1.159202144021    -0.329930008675    12.000000000000
         H           -2.710886235629    -0.317026144021     0.825794991325     1.007825032230
         H           -3.101833235629    -0.419569144021    -0.883635008675     1.007825032230
         H           -1.873138235629    -2.401087144021    -0.129494008675     1.007825032230
         H           -0.929686235629    -1.540994144021    -1.344935008675     1.007825032230
         H           -2.424441235629     1.842345855979    -0.293310008675     1.007825032230
         H           -1.265579235629     1.168581855979    -1.427799008675     1.007825032230
         H           -0.465409235629    -1.130483144021     1.645269991325     1.007825032230
         H            0.321042764371    -2.410569144021     0.741004991325     1.007825032230
         H           -0.762846235629     1.099613855979     1.590477991325     1.007825032230
         H           -0.332016235629     2.499041855979     0.602532991325     1.007825032230
         H            1.907643764371    -1.798310144021    -1.186510008675     1.007825032230
         H            2.635317764371    -1.769251144021     0.439504991325     1.007825032230
         H            2.826470764371    -0.367373144021    -0.648104008675     1.007825032230

  Basis Set: AUG-CC-PVTZ
    Blend: AUG-CC-PVTZ
  Basis Set: (AUG-CC-PVTZ AUX)
    Blend: AUG-CC-PVTZ-JKFIT
	 Reference Energy          =    -402.1087250224040872 [Eh]
	 Singles Energy            =      -0.0000000000000000 [Eh]
	 Same-Spin Energy          =      -0.4220871766065007 [Eh]
	 Opposite-Spin Energy      =      -1.4055801879982819 [Eh]
	 Correlation Energy        =      -1.8276673646047825 [Eh]
	 Total Energy              =    -403.9363923870088797 [Eh]

	 ================> DF-SCS-MP2 Energies <==================
	-----------------------------------------------------------
	 SCS Same-Spin Scale       =       0.3333333333333333 [-]
	 SCS Opposite-Spin Scale   =       1.2000000000000000 [-]
	 SCS Same-Spin Energy      =      -0.1406957255355002 [Eh]
	 SCS Opposite-Spin Energy  =      -1.6866962255979383 [Eh]
	 SCS Correlation Energy    =      -1.8273919511334384 [Eh]
	 SCS Total Energy          =    -403.9361169735375370 [Eh]
	-----------------------------------------------------------

  Dipole Moment: [D]
     X:    -2.5933      Y:    -3.0905      Z:     0.8093     Total:     4.1148

*** Psi4 exiting successfully. Buy a developer a beer!
