                               Psi4 1.3.2 release

  ==> Input File <==

--------------------------------------------------------------------------
#psi4
#
memory 32 gb

molecule  {
0 1
  O        1.7739800     1.6003060    -0.2911220
  N        0.9906540    -0.4920130     0.2058460
  C       -2.2286800    -0.2510300    -0.1765170
  C       -1.2730330    -1.4351160    -0.3152870
  C       -1.5989250     1.1242550    -0.3956020
  C       -0.0841310    -1.3759550     0.6456410
  C       -0.4584780     1.4603760     0.5782350
  C        0.8769331     0.8025623     0.2826820
  C        2.1918860    -1.1187650    -0.3259700
  H       -2.6699130    -0.2765890     0.8297550
  H       -3.0608600    -0.3791320    -0.8796750
  H       -1.8321650    -2.3606500    -0.1255340
  H       -0.8887130    -1.5005570    -1.3409750
  H       -2.3834680     1.8827830    -0.2893500
  H       -1.2246060     1.2090190    -1.4238390
  H       -0.4244360    -1.0900460     1.6492300
  H        0.3620160    -2.3701320     0.7449650
  H       -0.7218730     1.1400510     1.5944380
  H       -0.2910430     2.5394790     0.6064930
  H        1.9486170    -1.7578730    -1.1825500
  H        2.6762910    -1.7288140     0.4434650
  H        2.8674440    -0.3269360    -0.6441440
units angstrom
no_reorient  #important for SAPT in psi4, default
symmetry c1  #important for SAPT in psi4, default
}

set PROPERTIES_ORIGIN ["COM"]
properties('MP2/aug-cc-pvtz', properties = ['dipole'])
--------------------------------------------------------------------------

    Molecular point group: c1
  Charge       = 0
  Multiplicity = 1
  Basis Set: AUG-CC-PVTZ
    Blend: AUG-CC-PVTZ
  Basis Set: (AUG-CC-PVTZ AUX)
    Blend: AUG-CC-PVTZ-JKFIT

    Orbital Energies [Eh]
    ---------------------

    Doubly Occupied:

       1A    -20.484726     2A    -15.598116     3A    -11.338420
       4A    -11.279485     5A    -11.258681     6A    -11.238552
       7A    -11.236404     8A    -11.235822     9A    -11.233761
      10A     -1.331846    11A     -1.233787    12A     -1.100957
      13A     -1.040871    14A     -0.985563    15A     -0.932350
      16A     -0.881998    17A     -0.797266    18A     -0.734858
      19A     -0.689724    20A     -0.667660    21A     -0.639589
      22A     -0.613052    23A     -0.601448    24A     -0.595985
      25A     -0.574328    26A     -0.560735    27A     -0.543697
      28A     -0.525984    29A     -0.506407    30A     -0.498936
      31A     -0.480898    32A     -0.469439    33A     -0.457935
      34A     -0.391253    35A     -0.363861

  @DF-RHF Final Energy:  -402.08647429317136

   => Energetics <=

    Nuclear Repulsion Energy =            486.0821715206378713
    One-Electron Energy =               -1510.0885014644707098
    Two-Electron Energy =                 621.9198556506615887
    Total Energy =                       -402.0864742931713636
  Basis Set: (AUG-CC-PVTZ AUX)
    Blend: AUG-CC-PVTZ-RI
    Molecular point group: c1

    Geometry (in Angstrom), charge = 0, multiplicity = 1:

       Center              X                  Y                   Z               Mass
    ------------   -----------------  -----------------  -----------------  -----------------
         O            1.729394048139     1.567856540355    -0.304704481937    15.994914619570
         N            0.946068048139    -0.524462459645     0.192263518063    14.003074004430
         C           -2.273265951861    -0.283479459645    -0.190099481937    12.000000000000
         C           -1.317618951861    -1.467565459645    -0.328869481937    12.000000000000
         C           -1.643510951861     1.091805540355    -0.409184481937    12.000000000000
         C           -0.128716951861    -1.408404459645     0.632058518063    12.000000000000
         C           -0.503063951861     1.427926540355     0.564652518063    12.000000000000
         C            0.832347148139     0.770112840355     0.269099518063    12.000000000000
         C            2.147300048139    -1.151214459645    -0.339552481937    12.000000000000
         H           -2.714498951861    -0.309038459645     0.816172518063     1.007825032230
         H           -3.105445951861    -0.411581459645    -0.893257481937     1.007825032230
         H           -1.876750951861    -2.393099459645    -0.139116481937     1.007825032230
         H           -0.933298951861    -1.533006459645    -1.354557481937     1.007825032230
         H           -2.428053951861     1.850333540355    -0.302932481937     1.007825032230
         H           -1.269191951861     1.176569540355    -1.437421481937     1.007825032230
         H           -0.469021951861    -1.122495459645     1.635647518063     1.007825032230
         H            0.317430048139    -2.402581459645     0.731382518063     1.007825032230
         H           -0.766458951861     1.107601540355     1.580855518063     1.007825032230
         H           -0.335628951861     2.507029540355     0.592910518063     1.007825032230
         H            1.904031048139    -1.790322459645    -1.196132481937     1.007825032230
         H            2.631705048139    -1.761263459645     0.429882518063     1.007825032230
         H            2.822858048139    -0.359385459645    -0.657726481937     1.007825032230

  Basis Set: AUG-CC-PVTZ
    Blend: AUG-CC-PVTZ
  Basis Set: (AUG-CC-PVTZ AUX)
    Blend: AUG-CC-PVTZ-JKFIT
	 Reference Energy          =    -402.0864742931713636 [Eh]
	 Singles Energy            =      -0.0000000000000000 [Eh]
	 Same-Spin Energy          =      -0.4236721079052018 [Eh]
	 Opposite-Spin Energy      =      -1.4094589438366154 [Eh]
	 Correlation Energy        =      -1.8331310517418173 [Eh]
	 Total Energy              =    -403.9196053449131796 [Eh]

	 ================> DF-SCS-MP2 Energies <==================
	-----------------------------------------------------------
	 SCS Same-Spin Scale       =       0.3333333333333333 [-]
	 SCS Opposite-Spin Scale   =       1.2000000000000000 [-]
	 SCS Same-Spin Energy      =      -0.1412240359684006 [Eh]
	 SCS Opposite-Spin Energy  =      -1.6913507326039385 [Eh]
	 SCS Correlation Energy    =      -1.8325747685723393 [Eh]
	 SCS Total Energy          =    -403.9190490617436922 [Eh]
	-----------------------------------------------------------

  Dipole Moment: [D]
     X:    -2.8246      Y:    -3.8660      Z:     0.9204     Total:     4.8756

*** Psi4 exiting successfully. Buy a developer a beer!
