                               Psi4 1.3.2 release

  ==> Input File <==

--------------------------------------------------------------------------
#psi4
#
memory 32 gb

molecule  {
0 1
  O        1.7739800     1.6003060    -0.2911220
  N        0.9906540    -0.4920130     0.2058460
  C       -2.2941139    -0.2299239    -0.2580872
  C       -1.2730330    -1.4351160    -0.3152870
  C       -1.5989250     1.1242550    -0.3956020
  C       -0.0841310    -1.3759550     0.6456410
  C       -0.4584780     1.4603760     0.5782350
  C        0.8707430     0.8730760     0.1404640
  C        2.1918860    -1.1187650    -0.3259700
  H       -2.6699130    -0.2765890     0.8297550
  H       -3.0608600    -0.3791320    -0.8796750
  H       -1.8321650    -2.3606500    -0.1255340
  H       -0.8887130    -1.5005570    -1.3409750
  H       -2.3834680     1.8827830    -0.2893500
  H       -1.2246060     1.2090190    -1.4238390
  H       -0.4244360    -1.0900460     1.6492300
  H        0.3620160    -2.3701320     0.7449650
  H       -0.7218730     1.1400510     1.5944380
  H       -0.2910430     2.5394790     0.6064930
  H        1.9486170    -1.7578730    -1.1825500
  H        2.6762910    -1.7288140     0.4434650
  H        2.8674440    -0.3269360    -0.6441440
units angstrom
no_reorient  #important for SAPT in psi4, default
symmetry c1  #important for SAPT in psi4, default
}

set PROPERTIES_ORIGIN ["COM"]
properties('MP2/aug-cc-pvtz', properties = ['dipole'])
--------------------------------------------------------------------------

    Molecular point group: c1
  Charge       = 0
  Multiplicity = 1
  Basis Set: AUG-CC-PVTZ
    Blend: AUG-CC-PVTZ
  Basis Set: (AUG-CC-PVTZ AUX)
    Blend: AUG-CC-PVTZ-JKFIT

    Orbital Energies [Eh]
    ---------------------

    Doubly Occupied:

       1A    -20.506200     2A    -15.580731     3A    -11.340443
       4A    -11.273834     5A    -11.250672     6A    -11.236137
       7A    -11.234959     8A    -11.234751     9A    -11.231437
      10A     -1.362265    11A     -1.241156    12A     -1.093466
      13A     -1.035347    14A     -0.978432    15A     -0.916059
      16A     -0.876665    17A     -0.795503    18A     -0.725758
      19A     -0.691946    20A     -0.669800    21A     -0.631348
      22A     -0.615830    23A     -0.600868    24A     -0.591459
      25A     -0.581822    26A     -0.557227    27A     -0.548288
      28A     -0.526111    29A     -0.517885    30A     -0.508460
      31A     -0.481552    32A     -0.465164    33A     -0.451455
      34A     -0.408412    35A     -0.365694

  @DF-RHF Final Energy:  -402.09901887486978

   => Energetics <=

    Nuclear Repulsion Energy =            485.1076027125532732
    One-Electron Energy =               -1508.1589714393446684
    Two-Electron Energy =                 620.9523498519216673
    Total Energy =                       -402.0990188748697847
  Basis Set: (AUG-CC-PVTZ AUX)
    Blend: AUG-CC-PVTZ-RI
    Molecular point group: c1

    Geometry (in Angstrom), charge = 0, multiplicity = 1:

       Center              X                  Y                   Z               Mass
    ------------   -----------------  -----------------  -----------------  -----------------
         O            1.736156360757     1.559206343080    -0.283575729444    15.994914619570
         N            0.952830360757    -0.533112656920     0.213392270556    14.003074004430
         C           -2.331937539243    -0.271023556920    -0.250540929444    12.000000000000
         C           -1.310856639243    -1.476215656920    -0.307740729444    12.000000000000
         C           -1.636748639243     1.083155343080    -0.388055729444    12.000000000000
         C           -0.121954639243    -1.417054656920     0.653187270556    12.000000000000
         C           -0.496301639243     1.419276343080     0.585781270556    12.000000000000
         C            0.832919360757     0.831976343080     0.148010270556    12.000000000000
         C            2.154062360757    -1.159864656920    -0.318423729444    12.000000000000
         H           -2.707736639243    -0.317688656920     0.837301270556     1.007825032230
         H           -3.098683639243    -0.420231656920    -0.872128729444     1.007825032230
         H           -1.869988639243    -2.401749656920    -0.117987729444     1.007825032230
         H           -0.926536639243    -1.541656656920    -1.333428729444     1.007825032230
         H           -2.421291639243     1.841683343080    -0.281803729444     1.007825032230
         H           -1.262429639243     1.167919343080    -1.416292729444     1.007825032230
         H           -0.462259639243    -1.131145656920     1.656776270556     1.007825032230
         H            0.324192360757    -2.411231656920     0.752511270556     1.007825032230
         H           -0.759696639243     1.098951343080     1.601984270556     1.007825032230
         H           -0.328866639243     2.498379343080     0.614039270556     1.007825032230
         H            1.910793360757    -1.798972656920    -1.175003729444     1.007825032230
         H            2.638467360757    -1.769913656920     0.451011270556     1.007825032230
         H            2.829620360757    -0.368035656920    -0.636597729444     1.007825032230

  Basis Set: AUG-CC-PVTZ
    Blend: AUG-CC-PVTZ
  Basis Set: (AUG-CC-PVTZ AUX)
    Blend: AUG-CC-PVTZ-JKFIT
	 Reference Energy          =    -402.0990188748697847 [Eh]
	 Singles Energy            =      -0.0000000000000000 [Eh]
	 Same-Spin Energy          =      -0.4216360496805331 [Eh]
	 Opposite-Spin Energy      =      -1.4055187922182113 [Eh]
	 Correlation Energy        =      -1.8271548418987444 [Eh]
	 Total Energy              =    -403.9261737167685169 [Eh]

	 ================> DF-SCS-MP2 Energies <==================
	-----------------------------------------------------------
	 SCS Same-Spin Scale       =       0.3333333333333333 [-]
	 SCS Opposite-Spin Scale   =       1.2000000000000000 [-]
	 SCS Same-Spin Energy      =      -0.1405453498935110 [Eh]
	 SCS Opposite-Spin Energy  =      -1.6866225506618535 [Eh]
	 SCS Correlation Energy    =      -1.8271679005553645 [Eh]
	 SCS Total Energy          =    -403.9261867754251512 [Eh]
	-----------------------------------------------------------

  Dipole Moment: [D]
     X:    -2.5636      Y:    -3.0871      Z:     0.7613     Total:     4.0843

*** Psi4 exiting successfully. Buy a developer a beer!
