                               Psi4 1.3.2 release

  ==> Input File <==

--------------------------------------------------------------------------
#psi4
#
memory 32 gb

molecule  {
0 1
  O        1.7739800     1.6003060    -0.2911220
  N        0.9906540    -0.4920130     0.2058460
  C       -2.2286800    -0.2510300    -0.1765170
  C       -1.1953621    -1.3651517    -0.3364069
  C       -1.5989250     1.1242550    -0.3956020
  C       -0.0841310    -1.3759550     0.6456410
  C       -0.4584780     1.4603760     0.5782350
  C        0.8707430     0.8730760     0.1404640
  C        2.1918860    -1.1187650    -0.3259700
  H       -2.6699130    -0.2765890     0.8297550
  H       -3.0608600    -0.3791320    -0.8796750
  H       -1.8321650    -2.3606500    -0.1255340
  H       -0.8887130    -1.5005570    -1.3409750
  H       -2.3834680     1.8827830    -0.2893500
  H       -1.2246060     1.2090190    -1.4238390
  H       -0.4244360    -1.0900460     1.6492300
  H        0.3620160    -2.3701320     0.7449650
  H       -0.7218730     1.1400510     1.5944380
  H       -0.2910430     2.5394790     0.6064930
  H        1.9486170    -1.7578730    -1.1825500
  H        2.6762910    -1.7288140     0.4434650
  H        2.8674440    -0.3269360    -0.6441440
units angstrom
no_reorient  #important for SAPT in psi4, default
symmetry c1  #important for SAPT in psi4, default
}

set PROPERTIES_ORIGIN ["COM"]
properties('MP2/aug-cc-pvtz', properties = ['dipole'])
--------------------------------------------------------------------------

    Molecular point group: c1
  Charge       = 0
  Multiplicity = 1
  Basis Set: AUG-CC-PVTZ
    Blend: AUG-CC-PVTZ
  Basis Set: (AUG-CC-PVTZ AUX)
    Blend: AUG-CC-PVTZ-JKFIT

    Orbital Energies [Eh]
    ---------------------

    Doubly Occupied:

       1A    -20.505408     2A    -15.578910     3A    -11.339818
       4A    -11.272000     5A    -11.250721     6A    -11.237006
       7A    -11.233858     8A    -11.233366     9A    -11.232668
      10A     -1.361807    11A     -1.243425    12A     -1.100025
      13A     -1.040961    14A     -0.977843    15A     -0.915027
      16A     -0.874611    17A     -0.795020    18A     -0.727808
      19A     -0.690232    20A     -0.669704    21A     -0.636455
      22A     -0.612961    23A     -0.601039    24A     -0.592600
      25A     -0.580340    26A     -0.558358    27A     -0.545498
      28A     -0.530662    29A     -0.511653    30A     -0.508073
      31A     -0.485220    32A     -0.470557    33A     -0.447595
      34A     -0.407160    35A     -0.364866

  @DF-RHF Final Energy:  -402.09985296462474

   => Energetics <=

    Nuclear Repulsion Energy =            487.7971416496894221
    One-Electron Energy =               -1513.5274854435983798
    Two-Electron Energy =                 623.6304908292843265
    Total Energy =                       -402.0998529646246880
  Basis Set: (AUG-CC-PVTZ AUX)
    Blend: AUG-CC-PVTZ-RI
    Molecular point group: c1

    Geometry (in Angstrom), charge = 0, multiplicity = 1:

       Center              X                  Y                   Z               Mass
    ------------   -----------------  -----------------  -----------------  -----------------
         O            1.722645255615     1.554593442065    -0.289283087682    15.994914619570
         N            0.939319255615    -0.537725557935     0.207684912318    14.003074004430
         C           -2.280014744385    -0.296742557935    -0.174678087682    12.000000000000
         C           -1.246696844385    -1.410864257935    -0.334567987682    12.000000000000
         C           -1.650259744385     1.078542442065    -0.393763087682    12.000000000000
         C           -0.135465744385    -1.421667557935     0.647479912318    12.000000000000
         C           -0.509812744385     1.414663442065     0.580073912318    12.000000000000
         C            0.819408255615     0.827363442065     0.142302912318    12.000000000000
         C            2.140551255615    -1.164477557935    -0.324131087682    12.000000000000
         H           -2.721247744385    -0.322301557935     0.831593912318     1.007825032230
         H           -3.112194744385    -0.424844557935    -0.877836087682     1.007825032230
         H           -1.883499744385    -2.406362557935    -0.123695087682     1.007825032230
         H           -0.940047744385    -1.546269557935    -1.339136087682     1.007825032230
         H           -2.434802744385     1.837070442065    -0.287511087682     1.007825032230
         H           -1.275940744385     1.163306442065    -1.422000087682     1.007825032230
         H           -0.475770744385    -1.135758557935     1.651068912318     1.007825032230
         H            0.310681255615    -2.415844557935     0.746803912318     1.007825032230
         H           -0.773207744385     1.094338442065     1.596276912318     1.007825032230
         H           -0.342377744385     2.493766442065     0.608331912318     1.007825032230
         H            1.897282255615    -1.803585557935    -1.180711087682     1.007825032230
         H            2.624956255615    -1.774526557935     0.445303912318     1.007825032230
         H            2.816109255615    -0.372648557935    -0.642305087682     1.007825032230

  Basis Set: AUG-CC-PVTZ
    Blend: AUG-CC-PVTZ
  Basis Set: (AUG-CC-PVTZ AUX)
    Blend: AUG-CC-PVTZ-JKFIT
	 Reference Energy          =    -402.0998529646247448 [Eh]
	 Singles Energy            =      -0.0000000000000000 [Eh]
	 Same-Spin Energy          =      -0.4224703765821806 [Eh]
	 Opposite-Spin Energy      =      -1.4063755162234632 [Eh]
	 Correlation Energy        =      -1.8288458928056439 [Eh]
	 Total Energy              =    -403.9286988574303905 [Eh]

	 ================> DF-SCS-MP2 Energies <==================
	-----------------------------------------------------------
	 SCS Same-Spin Scale       =       0.3333333333333333 [-]
	 SCS Opposite-Spin Scale   =       1.2000000000000000 [-]
	 SCS Same-Spin Energy      =      -0.1408234588607269 [Eh]
	 SCS Opposite-Spin Energy  =      -1.6876506194681558 [Eh]
	 SCS Correlation Energy    =      -1.8284740783288826 [Eh]
	 SCS Total Energy          =    -403.9283270429536401 [Eh]
	-----------------------------------------------------------

  Dipole Moment: [D]
     X:    -2.5538      Y:    -3.0743      Z:     0.7982     Total:     4.0756

*** Psi4 exiting successfully. Buy a developer a beer!
