                               Psi4 1.3.2 release

  ==> Input File <==

--------------------------------------------------------------------------
#psi4
#
memory 32 gb

molecule  {
0 1
  O        1.7739800     1.6003060    -0.2911220
  N        1.0130407    -0.4902343     0.1975403
  C       -2.2286800    -0.2510300    -0.1765170
  C       -1.2730330    -1.4351160    -0.3152870
  C       -1.5989250     1.1242550    -0.3956020
  C       -0.0841310    -1.3759550     0.6456410
  C       -0.4584780     1.4603760     0.5782350
  C        0.8707430     0.8730760     0.1404640
  C        2.1918860    -1.1187650    -0.3259700
  H       -2.6699130    -0.2765890     0.8297550
  H       -3.0608600    -0.3791320    -0.8796750
  H       -1.8321650    -2.3606500    -0.1255340
  H       -0.8887130    -1.5005570    -1.3409750
  H       -2.3834680     1.8827830    -0.2893500
  H       -1.2246060     1.2090190    -1.4238390
  H       -0.4244360    -1.0900460     1.6492300
  H        0.3620160    -2.3701320     0.7449650
  H       -0.7218730     1.1400510     1.5944380
  H       -0.2910430     2.5394790     0.6064930
  H        1.9486170    -1.7578730    -1.1825500
  H        2.6762910    -1.7288140     0.4434650
  H        2.8674440    -0.3269360    -0.6441440
units angstrom
no_reorient  #important for SAPT in psi4, default
symmetry c1  #important for SAPT in psi4, default
}

set PROPERTIES_ORIGIN ["COM"]
properties('MP2/aug-cc-pvtz', properties = ['dipole'])
--------------------------------------------------------------------------

    Molecular point group: c1
  Charge       = 0
  Multiplicity = 1
  Basis Set: AUG-CC-PVTZ
    Blend: AUG-CC-PVTZ
  Basis Set: (AUG-CC-PVTZ AUX)
    Blend: AUG-CC-PVTZ-JKFIT

    Orbital Energies [Eh]
    ---------------------

    Doubly Occupied:

       1A    -20.504654     2A    -15.580102     3A    -11.339555
       4A    -11.273485     5A    -11.248577     6A    -11.235248
       7A    -11.234570     8A    -11.234239     9A    -11.231969
      10A     -1.361908    11A     -1.239738    12A     -1.098929
      13A     -1.037930    14A     -0.976983    15A     -0.914094
      16A     -0.876520    17A     -0.792674    18A     -0.725184
      19A     -0.691254    20A     -0.667965    21A     -0.633399
      22A     -0.610766    23A     -0.602139    24A     -0.595062
      25A     -0.582267    26A     -0.558442    27A     -0.546537
      28A     -0.525298    29A     -0.509052    30A     -0.507900
      31A     -0.479875    32A     -0.468052    33A     -0.465658
      34A     -0.407576    35A     -0.364407

  @DF-RHF Final Energy:  -402.11159163935628

   => Energetics <=

    Nuclear Repulsion Energy =            486.1595168106463802
    One-Electron Energy =               -1510.2982010666651149
    Two-Electron Energy =                 622.0270926166623440
    Total Energy =                       -402.1115916393563339
  Basis Set: (AUG-CC-PVTZ AUX)
    Blend: AUG-CC-PVTZ-RI
    Molecular point group: c1

    Geometry (in Angstrom), charge = 0, multiplicity = 1:

       Center              X                  Y                   Z               Mass
    ------------   -----------------  -----------------  -----------------  -----------------
         O            1.727512050067     1.561003089312    -0.290362031638    15.994914619570
         N            0.966572750067    -0.529537210688     0.198300268362    14.003074004430
         C           -2.275147949933    -0.290332910688    -0.175757031638    12.000000000000
         C           -1.319500949933    -1.474418910688    -0.314527031638    12.000000000000
         C           -1.645392949933     1.084952089312    -0.394842031638    12.000000000000
         C           -0.130598949933    -1.415257910688     0.646400968362    12.000000000000
         C           -0.504945949933     1.421073089312     0.578994968362    12.000000000000
         C            0.824275050067     0.833773089312     0.141223968362    12.000000000000
         C            2.145418050067    -1.158067910688    -0.325210031638    12.000000000000
         H           -2.716380949933    -0.315891910688     0.830514968362     1.007825032230
         H           -3.107327949933    -0.418434910688    -0.878915031638     1.007825032230
         H           -1.878632949933    -2.399952910688    -0.124774031638     1.007825032230
         H           -0.935180949933    -1.539859910688    -1.340215031638     1.007825032230
         H           -2.429935949933     1.843480089312    -0.288590031638     1.007825032230
         H           -1.271073949933     1.169716089312    -1.423079031638     1.007825032230
         H           -0.470903949933    -1.129348910688     1.649989968362     1.007825032230
         H            0.315548050067    -2.409434910688     0.745724968362     1.007825032230
         H           -0.768340949933     1.100748089312     1.595197968362     1.007825032230
         H           -0.337510949933     2.500176089312     0.607252968362     1.007825032230
         H            1.902149050067    -1.797175910688    -1.181790031638     1.007825032230
         H            2.629823050067    -1.768116910688     0.444224968362     1.007825032230
         H            2.820976050067    -0.366238910688    -0.643384031638     1.007825032230

  Basis Set: AUG-CC-PVTZ
    Blend: AUG-CC-PVTZ
  Basis Set: (AUG-CC-PVTZ AUX)
    Blend: AUG-CC-PVTZ-JKFIT
	 Reference Energy          =    -402.1115916393562770 [Eh]
	 Singles Energy            =      -0.0000000000000000 [Eh]
	 Same-Spin Energy          =      -0.4217314408136063 [Eh]
	 Opposite-Spin Energy      =      -1.4051058492883091 [Eh]
	 Correlation Energy        =      -1.8268372901019152 [Eh]
	 Total Energy              =    -403.9384289294582118 [Eh]

	 ================> DF-SCS-MP2 Energies <==================
	-----------------------------------------------------------
	 SCS Same-Spin Scale       =       0.3333333333333333 [-]
	 SCS Opposite-Spin Scale   =       1.2000000000000000 [-]
	 SCS Same-Spin Energy      =      -0.1405771469378687 [Eh]
	 SCS Opposite-Spin Energy  =      -1.6861270191459707 [Eh]
	 SCS Correlation Energy    =      -1.8267041660838395 [Eh]
	 SCS Total Energy          =    -403.9382958054401342 [Eh]
	-----------------------------------------------------------

  Dipole Moment: [D]
     X:    -2.6524      Y:    -3.0937      Z:     0.8117     Total:     4.1552

*** Psi4 exiting successfully. Buy a developer a beer!
