                               Psi4 1.3.2 release

  ==> Input File <==

--------------------------------------------------------------------------
#psi4
#
memory 32 gb

molecule  {
0 1
  O        1.7739800     1.6003060    -0.2911220
  N        0.9906540    -0.4920130     0.2058460
  C       -2.2286800    -0.2510300    -0.1765170
  C       -1.2730330    -1.4351160    -0.3152870
  C       -1.5989250     1.1242550    -0.3956020
  C       -0.1620589    -1.2497757     0.6822750
  C       -0.4584780     1.4603760     0.5782350
  C        0.8707430     0.8730760     0.1404640
  C        2.1918860    -1.1187650    -0.3259700
  H       -2.6699130    -0.2765890     0.8297550
  H       -3.0608600    -0.3791320    -0.8796750
  H       -1.8321650    -2.3606500    -0.1255340
  H       -0.8887130    -1.5005570    -1.3409750
  H       -2.3834680     1.8827830    -0.2893500
  H       -1.2246060     1.2090190    -1.4238390
  H       -0.4244360    -1.0900460     1.6492300
  H        0.3620160    -2.3701320     0.7449650
  H       -0.7218730     1.1400510     1.5944380
  H       -0.2910430     2.5394790     0.6064930
  H        1.9486170    -1.7578730    -1.1825500
  H        2.6762910    -1.7288140     0.4434650
  H        2.8674440    -0.3269360    -0.6441440
units angstrom
no_reorient  #important for SAPT in psi4, default
symmetry c1  #important for SAPT in psi4, default
}

set PROPERTIES_ORIGIN ["COM"]
properties('MP2/aug-cc-pvtz', properties = ['dipole'])
--------------------------------------------------------------------------

    Molecular point group: c1
  Charge       = 0
  Multiplicity = 1
  Basis Set: AUG-CC-PVTZ
    Blend: AUG-CC-PVTZ
  Basis Set: (AUG-CC-PVTZ AUX)
    Blend: AUG-CC-PVTZ-JKFIT

    Orbital Energies [Eh]
    ---------------------

    Doubly Occupied:

       1A    -20.504878     2A    -15.582344     3A    -11.337428
       4A    -11.276226     5A    -11.253144     6A    -11.235345
       7A    -11.234359     8A    -11.233888     9A    -11.229765
      10A     -1.361668    11A     -1.242308    12A     -1.101615
      13A     -1.039305    14A     -0.979633    15A     -0.909501
      16A     -0.877264    17A     -0.795850    18A     -0.733313
      19A     -0.692918    20A     -0.666608    21A     -0.636903
      22A     -0.609958    23A     -0.603249    24A     -0.595553
      25A     -0.570664    26A     -0.560484    27A     -0.543811
      28A     -0.530557    29A     -0.519217    30A     -0.502941
      31A     -0.480865    32A     -0.469977    33A     -0.445596
      34A     -0.404898    35A     -0.368344

  @DF-RHF Final Energy:  -402.08617188412188

   => Energetics <=

    Nuclear Repulsion Energy =            487.5256786228414398
    One-Electron Energy =               -1512.9629518293372712
    Two-Electron Energy =                 623.3511013223738928
    Total Energy =                       -402.0861718841218817
  Basis Set: (AUG-CC-PVTZ AUX)
    Blend: AUG-CC-PVTZ-RI
    Molecular point group: c1

    Geometry (in Angstrom), charge = 0, multiplicity = 1:

       Center              X                  Y                   Z               Mass
    ------------   -----------------  -----------------  -----------------  -----------------
         O            1.737335970020     1.549285955694    -0.294735867849    15.994914619570
         N            0.954009970020    -0.543033044306     0.202232132151    14.003074004430
         C           -2.265324029980    -0.302050044306    -0.180130867849    12.000000000000
         C           -1.309677029980    -1.486136044306    -0.318900867849    12.000000000000
         C           -1.635569029980     1.073234955694    -0.399215867849    12.000000000000
         C           -0.198702929980    -1.300795744306     0.678661132151    12.000000000000
         C           -0.495122029980     1.409355955694     0.574621132151    12.000000000000
         C            0.834098970020     0.822055955694     0.136850132151    12.000000000000
         C            2.155241970020    -1.169785044306    -0.329583867849    12.000000000000
         H           -2.706557029980    -0.327609044306     0.826141132151     1.007825032230
         H           -3.097504029980    -0.430152044306    -0.883288867849     1.007825032230
         H           -1.868809029980    -2.411670044306    -0.129147867849     1.007825032230
         H           -0.925357029980    -1.551577044306    -1.344588867849     1.007825032230
         H           -2.420112029980     1.831762955694    -0.292963867849     1.007825032230
         H           -1.261250029980     1.157998955694    -1.427452867849     1.007825032230
         H           -0.461080029980    -1.141066044306     1.645616132151     1.007825032230
         H            0.325371970020    -2.421152044306     0.741351132151     1.007825032230
         H           -0.758517029980     1.089030955694     1.590824132151     1.007825032230
         H           -0.327687029980     2.488458955694     0.602879132151     1.007825032230
         H            1.911972970020    -1.808893044306    -1.186163867849     1.007825032230
         H            2.639646970020    -1.779834044306     0.439851132151     1.007825032230
         H            2.830799970020    -0.377956044306    -0.647757867849     1.007825032230

  Basis Set: AUG-CC-PVTZ
    Blend: AUG-CC-PVTZ
  Basis Set: (AUG-CC-PVTZ AUX)
    Blend: AUG-CC-PVTZ-JKFIT
	 Reference Energy          =    -402.0861718841218817 [Eh]
	 Singles Energy            =      -0.0000000000000000 [Eh]
	 Same-Spin Energy          =      -0.4228434649627665 [Eh]
	 Opposite-Spin Energy      =      -1.4074373700784357 [Eh]
	 Correlation Energy        =      -1.8302808350412021 [Eh]
	 Total Energy              =    -403.9164527191630896 [Eh]

	 ================> DF-SCS-MP2 Energies <==================
	-----------------------------------------------------------
	 SCS Same-Spin Scale       =       0.3333333333333333 [-]
	 SCS Opposite-Spin Scale   =       1.2000000000000000 [-]
	 SCS Same-Spin Energy      =      -0.1409478216542555 [Eh]
	 SCS Opposite-Spin Energy  =      -1.6889248440941229 [Eh]
	 SCS Correlation Energy    =      -1.8298726657483784 [Eh]
	 SCS Total Energy          =    -403.9160445498702643 [Eh]
	-----------------------------------------------------------

  Dipole Moment: [D]
     X:    -2.6006      Y:    -2.9944      Z:     0.7836     Total:     4.0427

*** Psi4 exiting successfully. Buy a developer a beer!
