                               Psi4 1.3.2 release

  ==> Input File <==

--------------------------------------------------------------------------
#psi4
#
memory 32 gb

molecule  {
0 1
  O        1.7739800     1.6003060    -0.2911220
  N        0.9906540    -0.4920130     0.2058460
  C       -2.2679831    -0.2852726    -0.1652459
  C       -1.2730330    -1.4351160    -0.3152870
  C       -1.5989250     1.1242550    -0.3956020
  C       -0.0841310    -1.3759550     0.6456410
  C       -0.4584780     1.4603760     0.5782350
  C        0.8707430     0.8730760     0.1404640
  C        2.1918860    -1.1187650    -0.3259700
  H       -2.6699130    -0.2765890     0.8297550
  H       -3.0608600    -0.3791320    -0.8796750
  H       -1.8321650    -2.3606500    -0.1255340
  H       -0.8887130    -1.5005570    -1.3409750
  H       -2.3834680     1.8827830    -0.2893500
  H       -1.2246060     1.2090190    -1.4238390
  H       -0.4244360    -1.0900460     1.6492300
  H        0.3620160    -2.3701320     0.7449650
  H       -0.7218730     1.1400510     1.5944380
  H       -0.2910430     2.5394790     0.6064930
  H        1.9486170    -1.7578730    -1.1825500
  H        2.6762910    -1.7288140     0.4434650
  H        2.8674440    -0.3269360    -0.6441440
units angstrom
no_reorient  #important for SAPT in psi4, default
symmetry c1  #important for SAPT in psi4, default
}

set PROPERTIES_ORIGIN ["COM"]
properties('MP2/aug-cc-pvtz', properties = ['dipole'])
--------------------------------------------------------------------------

    Molecular point group: c1
  Charge       = 0
  Multiplicity = 1
  Basis Set: AUG-CC-PVTZ
    Blend: AUG-CC-PVTZ
  Basis Set: (AUG-CC-PVTZ AUX)
    Blend: AUG-CC-PVTZ-JKFIT

    Orbital Energies [Eh]
    ---------------------

    Doubly Occupied:

       1A    -20.505544     2A    -15.580411     3A    -11.339678
       4A    -11.272687     5A    -11.250549     6A    -11.235643
       7A    -11.233465     8A    -11.233026     9A    -11.229601
      10A     -1.361657    11A     -1.240984    12A     -1.092923
      13A     -1.037755    14A     -0.974340    15A     -0.914833
      16A     -0.875291    17A     -0.796425    18A     -0.725150
      19A     -0.690076    20A     -0.667585    21A     -0.634419
      22A     -0.609745    23A     -0.599496    24A     -0.594009
      25A     -0.582147    26A     -0.559351    27A     -0.543306
      28A     -0.526404    29A     -0.511683    30A     -0.509279
      31A     -0.485330    32A     -0.470856    33A     -0.454360
      34A     -0.407148    35A     -0.365116

  @DF-RHF Final Energy:  -402.11001421310476

   => Energetics <=

    Nuclear Repulsion Energy =            485.5444687706774403
    One-Electron Energy =               -1509.0884221364979112
    Two-Electron Energy =                 621.4339391527156522
    Total Energy =                       -402.1100142131048187
  Basis Set: (AUG-CC-PVTZ AUX)
    Blend: AUG-CC-PVTZ-RI
    Molecular point group: c1

    Geometry (in Angstrom), charge = 0, multiplicity = 1:

       Center              X                  Y                   Z               Mass
    ------------   -----------------  -----------------  -----------------  -----------------
         O            1.733689245844     1.564432038551    -0.292341253492    15.994914619570
         N            0.950363245844    -0.527886961449     0.204626746508    14.003074004430
         C           -2.308273854156    -0.321146561449    -0.166465153492    12.000000000000
         C           -1.313323754156    -1.470989961449    -0.316506253492    12.000000000000
         C           -1.639215754156     1.088381038551    -0.396821253492    12.000000000000
         C           -0.124421754156    -1.411828961449     0.644421746508    12.000000000000
         C           -0.498768754156     1.424502038551     0.577015746508    12.000000000000
         C            0.830452245844     0.837202038551     0.139244746508    12.000000000000
         C            2.151595245844    -1.154638961449    -0.327189253492    12.000000000000
         H           -2.710203754156    -0.312462961449     0.828535746508     1.007825032230
         H           -3.101150754156    -0.415005961449    -0.880894253492     1.007825032230
         H           -1.872455754156    -2.396523961449    -0.126753253492     1.007825032230
         H           -0.929003754156    -1.536430961449    -1.342194253492     1.007825032230
         H           -2.423758754156     1.846909038551    -0.290569253492     1.007825032230
         H           -1.264896754156     1.173145038551    -1.425058253492     1.007825032230
         H           -0.464726754156    -1.125919961449     1.648010746508     1.007825032230
         H            0.321725245844    -2.406005961449     0.743745746508     1.007825032230
         H           -0.762163754156     1.104177038551     1.593218746508     1.007825032230
         H           -0.331333754156     2.503605038551     0.605273746508     1.007825032230
         H            1.908326245844    -1.793746961449    -1.183769253492     1.007825032230
         H            2.636000245844    -1.764687961449     0.442245746508     1.007825032230
         H            2.827153245844    -0.362809961449    -0.645363253492     1.007825032230

  Basis Set: AUG-CC-PVTZ
    Blend: AUG-CC-PVTZ
  Basis Set: (AUG-CC-PVTZ AUX)
    Blend: AUG-CC-PVTZ-JKFIT
	 Reference Energy          =    -402.1100142131047619 [Eh]
	 Singles Energy            =      -0.0000000000000000 [Eh]
	 Same-Spin Energy          =      -0.4215190409088626 [Eh]
	 Opposite-Spin Energy      =      -1.4050157403986967 [Eh]
	 Correlation Energy        =      -1.8265347813075592 [Eh]
	 Total Energy              =    -403.9365489944123055 [Eh]

	 ================> DF-SCS-MP2 Energies <==================
	-----------------------------------------------------------
	 SCS Same-Spin Scale       =       0.3333333333333333 [-]
	 SCS Opposite-Spin Scale   =       1.2000000000000000 [-]
	 SCS Same-Spin Energy      =      -0.1405063469696209 [Eh]
	 SCS Opposite-Spin Energy  =      -1.6860188884784360 [Eh]
	 SCS Correlation Energy    =      -1.8265252354480568 [Eh]
	 SCS Total Energy          =    -403.9365394485528213 [Eh]
	-----------------------------------------------------------

  Dipole Moment: [D]
     X:    -2.5927      Y:    -3.1124      Z:     0.8044     Total:     4.1299

*** Psi4 exiting successfully. Buy a developer a beer!
