                               Psi4 1.3.2 release

  ==> Input File <==

--------------------------------------------------------------------------
#psi4
#
memory 32 gb

molecule  {
0 1
  O        1.7739800     1.6003060    -0.2911220
  N        0.9906540    -0.4920130     0.2058460
  C       -2.2286800    -0.2510300    -0.1765170
  C       -1.3136390    -1.4679551    -0.3044669
  C       -1.5989250     1.1242550    -0.3956020
  C       -0.0841310    -1.3759550     0.6456410
  C       -0.4584780     1.4603760     0.5782350
  C        0.8707430     0.8730760     0.1404640
  C        2.1918860    -1.1187650    -0.3259700
  H       -2.6699130    -0.2765890     0.8297550
  H       -3.0608600    -0.3791320    -0.8796750
  H       -1.8321650    -2.3606500    -0.1255340
  H       -0.8887130    -1.5005570    -1.3409750
  H       -2.3834680     1.8827830    -0.2893500
  H       -1.2246060     1.2090190    -1.4238390
  H       -0.4244360    -1.0900460     1.6492300
  H        0.3620160    -2.3701320     0.7449650
  H       -0.7218730     1.1400510     1.5944380
  H       -0.2910430     2.5394790     0.6064930
  H        1.9486170    -1.7578730    -1.1825500
  H        2.6762910    -1.7288140     0.4434650
  H        2.8674440    -0.3269360    -0.6441440
units angstrom
no_reorient  #important for SAPT in psi4, default
symmetry c1  #important for SAPT in psi4, default
}

set PROPERTIES_ORIGIN ["COM"]
properties('MP2/aug-cc-pvtz', properties = ['dipole'])
--------------------------------------------------------------------------

    Molecular point group: c1
  Charge       = 0
  Multiplicity = 1
  Basis Set: AUG-CC-PVTZ
    Blend: AUG-CC-PVTZ
  Basis Set: (AUG-CC-PVTZ AUX)
    Blend: AUG-CC-PVTZ-JKFIT

    Orbital Energies [Eh]
    ---------------------

    Doubly Occupied:

       1A    -20.506030     2A    -15.581596     3A    -11.340166
       4A    -11.272771     5A    -11.250628     6A    -11.235718
       7A    -11.233653     8A    -11.232743     9A    -11.231270
      10A     -1.362057    11A     -1.240488    12A     -1.096738
      13A     -1.037081    14A     -0.974668    15A     -0.913456
      16A     -0.880719    17A     -0.792365    18A     -0.724290
      19A     -0.691120    20A     -0.669078    21A     -0.632627
      22A     -0.606343    23A     -0.603749    24A     -0.596716
      25A     -0.583933    26A     -0.558519    27A     -0.544149
      28A     -0.527848    29A     -0.509624    30A     -0.505814
      31A     -0.477617    32A     -0.471342    33A     -0.463560
      34A     -0.407716    35A     -0.364694

  @DF-RHF Final Energy:  -402.10918703822898

   => Energetics <=

    Nuclear Repulsion Energy =            485.5644482681636305
    One-Electron Energy =               -1509.1054997022483803
    Two-Electron Energy =                 621.4318643958556549
    Total Energy =                       -402.1091870382290381
  Basis Set: (AUG-CC-PVTZ AUX)
    Blend: AUG-CC-PVTZ-RI
    Molecular point group: c1

    Geometry (in Angstrom), charge = 0, multiplicity = 1:

       Center              X                  Y                   Z               Mass
    ------------   -----------------  -----------------  -----------------  -----------------
         O            1.733812257922     1.564299528418    -0.292298672752    15.994914619570
         N            0.950486257922    -0.528019471582     0.204669327248    14.003074004430
         C           -2.268847742078    -0.287036471582    -0.177693672752    12.000000000000
         C           -1.353806742078    -1.503961571582    -0.305643572752    12.000000000000
         C           -1.639092742078     1.088248528418    -0.396778672752    12.000000000000
         C           -0.124298742078    -1.411961471582     0.644464327248    12.000000000000
         C           -0.498645742078     1.424369528418     0.577058327248    12.000000000000
         C            0.830575257922     0.837069528418     0.139287327248    12.000000000000
         C            2.151718257922    -1.154771471582    -0.327146672752    12.000000000000
         H           -2.710080742078    -0.312595471582     0.828578327248     1.007825032230
         H           -3.101027742078    -0.415138471582    -0.880851672752     1.007825032230
         H           -1.872332742078    -2.396656471582    -0.126710672752     1.007825032230
         H           -0.928880742078    -1.536563471582    -1.342151672752     1.007825032230
         H           -2.423635742078     1.846776528418    -0.290526672752     1.007825032230
         H           -1.264773742078     1.173012528418    -1.425015672752     1.007825032230
         H           -0.464603742078    -1.126052471582     1.648053327248     1.007825032230
         H            0.321848257922    -2.406138471582     0.743788327248     1.007825032230
         H           -0.762040742078     1.104044528418     1.593261327248     1.007825032230
         H           -0.331210742078     2.503472528418     0.605316327248     1.007825032230
         H            1.908449257922    -1.793879471582    -1.183726672752     1.007825032230
         H            2.636123257922    -1.764820471582     0.442288327248     1.007825032230
         H            2.827276257922    -0.362942471582    -0.645320672752     1.007825032230

  Basis Set: AUG-CC-PVTZ
    Blend: AUG-CC-PVTZ
  Basis Set: (AUG-CC-PVTZ AUX)
    Blend: AUG-CC-PVTZ-JKFIT
	 Reference Energy          =    -402.1091870382289812 [Eh]
	 Singles Energy            =      -0.0000000000000000 [Eh]
	 Same-Spin Energy          =      -0.4216541115920305 [Eh]
	 Opposite-Spin Energy      =      -1.4051726696209594 [Eh]
	 Correlation Energy        =      -1.8268267812129899 [Eh]
	 Total Energy              =    -403.9360138194419960 [Eh]

	 ================> DF-SCS-MP2 Energies <==================
	-----------------------------------------------------------
	 SCS Same-Spin Scale       =       0.3333333333333333 [-]
	 SCS Opposite-Spin Scale   =       1.2000000000000000 [-]
	 SCS Same-Spin Energy      =      -0.1405513705306768 [Eh]
	 SCS Opposite-Spin Energy  =      -1.6862072035451512 [Eh]
	 SCS Correlation Energy    =      -1.8267585740758281 [Eh]
	 SCS Total Energy          =    -403.9359456123048062 [Eh]
	-----------------------------------------------------------

  Dipole Moment: [D]
     X:    -2.5823      Y:    -3.0983      Z:     0.7962     Total:     4.1111

*** Psi4 exiting successfully. Buy a developer a beer!
