                               Psi4 1.3.2 release

  ==> Input File <==

--------------------------------------------------------------------------
#psi4
#
memory 32 gb

molecule  {
0 1
  O        1.7739800     1.6003060    -0.2911220
  N        0.9906540    -0.4920130     0.2058460
  C       -2.2286800    -0.2510300    -0.1765170
  C       -1.2730330    -1.4351160    -0.3152870
  C       -1.5989250     1.1242550    -0.3956020
  C       -0.0841310    -1.3759550     0.6456410
  C       -0.4584780     1.4603760     0.5782350
  C        0.8682913     0.8854758     0.1171859
  C        2.1918860    -1.1187650    -0.3259700
  H       -2.6699130    -0.2765890     0.8297550
  H       -3.0608600    -0.3791320    -0.8796750
  H       -1.8321650    -2.3606500    -0.1255340
  H       -0.8887130    -1.5005570    -1.3409750
  H       -2.3834680     1.8827830    -0.2893500
  H       -1.2246060     1.2090190    -1.4238390
  H       -0.4244360    -1.0900460     1.6492300
  H        0.3620160    -2.3701320     0.7449650
  H       -0.7218730     1.1400510     1.5944380
  H       -0.2910430     2.5394790     0.6064930
  H        1.9486170    -1.7578730    -1.1825500
  H        2.6762910    -1.7288140     0.4434650
  H        2.8674440    -0.3269360    -0.6441440
units angstrom
no_reorient  #important for SAPT in psi4, default
symmetry c1  #important for SAPT in psi4, default
}

set PROPERTIES_ORIGIN ["COM"]
properties('MP2/aug-cc-pvtz', properties = ['dipole'])
--------------------------------------------------------------------------

    Molecular point group: c1
  Charge       = 0
  Multiplicity = 1
  Basis Set: AUG-CC-PVTZ
    Blend: AUG-CC-PVTZ
  Basis Set: (AUG-CC-PVTZ AUX)
    Blend: AUG-CC-PVTZ-JKFIT

    Orbital Energies [Eh]
    ---------------------

    Doubly Occupied:

       1A    -20.509410     2A    -15.577596     3A    -11.340386
       4A    -11.270834     5A    -11.249181     6A    -11.234492
       7A    -11.233408     8A    -11.232520     9A    -11.231135
      10A     -1.370196    11A     -1.238766    12A     -1.097056
      13A     -1.037647    14A     -0.974082    15A     -0.910336
      16A     -0.877523    17A     -0.791747    18A     -0.723912
      19A     -0.691634    20A     -0.668644    21A     -0.632437
      22A     -0.607597    23A     -0.603501    24A     -0.593736
      25A     -0.583952    26A     -0.558016    27A     -0.545935
      28A     -0.526497    29A     -0.510643    30A     -0.509481
      31A     -0.479070    32A     -0.468428    33A     -0.464900
      34A     -0.409223    35A     -0.364044

  @DF-RHF Final Energy:  -402.11223005967435

   => Energetics <=

    Nuclear Repulsion Energy =            486.3008303414056854
    One-Electron Energy =               -1510.5901866940880609
    Two-Electron Energy =                 622.1771262930079729
    Total Energy =                       -402.1122300596742889
  Basis Set: (AUG-CC-PVTZ AUX)
    Blend: AUG-CC-PVTZ-RI
    Molecular point group: c1

    Geometry (in Angstrom), charge = 0, multiplicity = 1:

       Center              X                  Y                   Z               Mass
    ------------   -----------------  -----------------  -----------------  -----------------
         O            1.730209955561     1.560028340209    -0.289079323258    15.994914619570
         N            0.946883955561    -0.532290659791     0.207888676742    14.003074004430
         C           -2.272450044439    -0.291307659791    -0.174474323258    12.000000000000
         C           -1.316803044439    -1.475393659791    -0.313244323258    12.000000000000
         C           -1.642695044439     1.083977340209    -0.393559323258    12.000000000000
         C           -0.127901044439    -1.416232659791     0.647683676742    12.000000000000
         C           -0.502248044439     1.420098340209     0.580277676742    12.000000000000
         C            0.824521255561     0.845198140209     0.119228576742    12.000000000000
         C            2.148115955561    -1.159042659791    -0.323927323258    12.000000000000
         H           -2.713683044439    -0.316866659791     0.831797676742     1.007825032230
         H           -3.104630044439    -0.419409659791    -0.877632323258     1.007825032230
         H           -1.875935044439    -2.400927659791    -0.123491323258     1.007825032230
         H           -0.932483044439    -1.540834659791    -1.338932323258     1.007825032230
         H           -2.427238044439     1.842505340209    -0.287307323258     1.007825032230
         H           -1.268376044439     1.168741340209    -1.421796323258     1.007825032230
         H           -0.468206044439    -1.130323659791     1.651272676742     1.007825032230
         H            0.318245955561    -2.410409659791     0.747007676742     1.007825032230
         H           -0.765643044439     1.099773340209     1.596480676742     1.007825032230
         H           -0.334813044439     2.499201340209     0.608535676742     1.007825032230
         H            1.904846955561    -1.798150659791    -1.180507323258     1.007825032230
         H            2.632520955561    -1.769091659791     0.445507676742     1.007825032230
         H            2.823673955561    -0.367213659791    -0.642101323258     1.007825032230

  Basis Set: AUG-CC-PVTZ
    Blend: AUG-CC-PVTZ
  Basis Set: (AUG-CC-PVTZ AUX)
    Blend: AUG-CC-PVTZ-JKFIT
	 Reference Energy          =    -402.1122300596743457 [Eh]
	 Singles Energy            =      -0.0000000000000000 [Eh]
	 Same-Spin Energy          =      -0.4215824292936383 [Eh]
	 Opposite-Spin Energy      =      -1.4048141643025183 [Eh]
	 Correlation Energy        =      -1.8263965935961566 [Eh]
	 Total Energy              =    -403.9386266532704894 [Eh]

	 ================> DF-SCS-MP2 Energies <==================
	-----------------------------------------------------------
	 SCS Same-Spin Scale       =       0.3333333333333333 [-]
	 SCS Opposite-Spin Scale   =       1.2000000000000000 [-]
	 SCS Same-Spin Energy      =      -0.1405274764312127 [Eh]
	 SCS Opposite-Spin Energy  =      -1.6857769971630219 [Eh]
	 SCS Correlation Energy    =      -1.8263044735942346 [Eh]
	 SCS Total Energy          =    -403.9385345332685802 [Eh]
	-----------------------------------------------------------

  Dipole Moment: [D]
     X:    -2.5436      Y:    -2.9657      Z:     0.7644     Total:     3.9812

*** Psi4 exiting successfully. Buy a developer a beer!
