                               Psi4 1.3.2 release

  ==> Input File <==

--------------------------------------------------------------------------
#psi4
#
memory 32 gb

molecule  {
0 1
  O        1.7739800     1.6003060    -0.2911220
  N        0.9906540    -0.4920130     0.2058460
  C       -2.2286800    -0.2510300    -0.1765170
  C       -1.2730330    -1.4351160    -0.3152870
  C       -1.5989250     1.1242550    -0.3956020
  C       -0.0841310    -1.3759550     0.6456410
  C       -0.4584780     1.4603760     0.5782350
  C        0.8707430     0.8730760     0.1404640
  C        2.1918860    -1.1187650    -0.3259700
  H       -2.6699130    -0.2765890     0.8297550
  H       -3.0608600    -0.3791320    -0.8796750
  H       -1.8321650    -2.3606500    -0.1255340
  H       -0.8887130    -1.5005570    -1.3409750
  H       -2.3834680     1.8827830    -0.2893500
  H       -1.2246060     1.2090190    -1.4238390
  H       -0.4244360    -1.0900460     1.6492300
  H        0.3620160    -2.3701320     0.7449650
  H       -0.7301764     1.0335302     1.5522146
  H       -0.2910430     2.5394790     0.6064930
  H        1.9486170    -1.7578730    -1.1825500
  H        2.6762910    -1.7288140     0.4434650
  H        2.8674440    -0.3269360    -0.6441440
units angstrom
no_reorient  #important for SAPT in psi4, default
symmetry c1  #important for SAPT in psi4, default
}

set PROPERTIES_ORIGIN ["COM"]
properties('MP2/aug-cc-pvtz', properties = ['dipole'])
--------------------------------------------------------------------------

    Molecular point group: c1
  Charge       = 0
  Multiplicity = 1
  Basis Set: AUG-CC-PVTZ
    Blend: AUG-CC-PVTZ
  Basis Set: (AUG-CC-PVTZ AUX)
    Blend: AUG-CC-PVTZ-JKFIT

    Orbital Energies [Eh]
    ---------------------

    Doubly Occupied:

       1A    -20.505306     2A    -15.580623     3A    -11.339182
       4A    -11.272730     5A    -11.250701     6A    -11.234362
       7A    -11.233788     8A    -11.233726     9A    -11.231916
      10A     -1.361650    11A     -1.241403    12A     -1.098388
      13A     -1.038686    14A     -0.975999    15A     -0.913737
      16A     -0.878003    17A     -0.792833    18A     -0.724567
      19A     -0.690044    20A     -0.670375    21A     -0.633573
      22A     -0.607730    23A     -0.603718    24A     -0.594064
      25A     -0.583779    26A     -0.560391    27A     -0.544554
      28A     -0.527389    29A     -0.509964    30A     -0.508894
      31A     -0.480034    32A     -0.467640    33A     -0.464201
      34A     -0.406715    35A     -0.365308

  @DF-RHF Final Energy:  -402.11078005355682

   => Energetics <=

    Nuclear Repulsion Energy =            486.5531477674525718
    One-Electron Energy =               -1511.0759105281645134
    Two-Electron Energy =                 622.4119827071550617
    Total Energy =                       -402.1107800535568231
  Basis Set: (AUG-CC-PVTZ AUX)
    Blend: AUG-CC-PVTZ-RI
    Molecular point group: c1

    Geometry (in Angstrom), charge = 0, multiplicity = 1:

       Center              X                  Y                   Z               Mass
    ------------   -----------------  -----------------  -----------------  -----------------
         O            1.730044321627     1.562043702168    -0.290942296769    15.994914619570
         N            0.946718321627    -0.530275297832     0.206025703231    14.003074004430
         C           -2.272615678373    -0.289292297832    -0.176337296769    12.000000000000
         C           -1.316968678373    -1.473378297832    -0.315107296769    12.000000000000
         C           -1.642860678373     1.085992702168    -0.395422296769    12.000000000000
         C           -0.128066678373    -1.414217297832     0.645820703231    12.000000000000
         C           -0.502413678373     1.422113702168     0.578414703231    12.000000000000
         C            0.826807321627     0.834813702168     0.140643703231    12.000000000000
         C            2.147950321627    -1.157027297832    -0.325790296769    12.000000000000
         H           -2.713848678373    -0.314851297832     0.829934703231     1.007825032230
         H           -3.104795678373    -0.417394297832    -0.879495296769     1.007825032230
         H           -1.876100678373    -2.398912297832    -0.125354296769     1.007825032230
         H           -0.932648678373    -1.538819297832    -1.340795296769     1.007825032230
         H           -2.427403678373     1.844520702168    -0.289170296769     1.007825032230
         H           -1.268541678373     1.170756702168    -1.423659296769     1.007825032230
         H           -0.468371678373    -1.128308297832     1.649409703231     1.007825032230
         H            0.318080321627    -2.408394297832     0.745144703231     1.007825032230
         H           -0.774112078373     0.995267902168     1.552394303231     1.007825032230
         H           -0.334978678373     2.501216702168     0.606672703231     1.007825032230
         H            1.904681321627    -1.796135297832    -1.182370296769     1.007825032230
         H            2.632355321627    -1.767076297832     0.443644703231     1.007825032230
         H            2.823508321627    -0.365198297832    -0.643964296769     1.007825032230

  Basis Set: AUG-CC-PVTZ
    Blend: AUG-CC-PVTZ
  Basis Set: (AUG-CC-PVTZ AUX)
    Blend: AUG-CC-PVTZ-JKFIT
	 Reference Energy          =    -402.1107800535568231 [Eh]
	 Singles Energy            =      -0.0000000000000000 [Eh]
	 Same-Spin Energy          =      -0.4219645126124770 [Eh]
	 Opposite-Spin Energy      =      -1.4054635185330504 [Eh]
	 Correlation Energy        =      -1.8274280311455273 [Eh]
	 Total Energy              =    -403.9382080847023531 [Eh]

	 ================> DF-SCS-MP2 Energies <==================
	-----------------------------------------------------------
	 SCS Same-Spin Scale       =       0.3333333333333333 [-]
	 SCS Opposite-Spin Scale   =       1.2000000000000000 [-]
	 SCS Same-Spin Energy      =      -0.1406548375374923 [Eh]
	 SCS Opposite-Spin Energy  =      -1.6865562222396604 [Eh]
	 SCS Correlation Energy    =      -1.8272110597771527 [Eh]
	 SCS Total Energy          =    -403.9379911133339647 [Eh]
	-----------------------------------------------------------

  Dipole Moment: [D]
     X:    -2.5894      Y:    -3.1384      Z:     0.7624     Total:     4.1395

*** Psi4 exiting successfully. Buy a developer a beer!
