                               Psi4 1.3.2 release

  ==> Input File <==

--------------------------------------------------------------------------
#psi4
#
memory 32 gb

molecule  {
0 1
  O        1.7739800     1.6003060    -0.2911220
  N        0.9906540    -0.4920130     0.2058460
  C       -2.2286800    -0.2510300    -0.1765170
  C       -1.2730330    -1.4351160    -0.3152870
  C       -1.5989250     1.1242550    -0.3956020
  C       -0.0990774    -1.3556403     0.6492074
  C       -0.4584780     1.4603760     0.5782350
  C        0.8707430     0.8730760     0.1404640
  C        2.1918860    -1.1187650    -0.3259700
  H       -2.6699130    -0.2765890     0.8297550
  H       -3.0608600    -0.3791320    -0.8796750
  H       -1.8321650    -2.3606500    -0.1255340
  H       -0.8887130    -1.5005570    -1.3409750
  H       -2.3834680     1.8827830    -0.2893500
  H       -1.2246060     1.2090190    -1.4238390
  H       -0.4244360    -1.0900460     1.6492300
  H        0.3620160    -2.3701320     0.7449650
  H       -0.7218730     1.1400510     1.5944380
  H       -0.2910430     2.5394790     0.6064930
  H        1.9486170    -1.7578730    -1.1825500
  H        2.6762910    -1.7288140     0.4434650
  H        2.8674440    -0.3269360    -0.6441440
units angstrom
no_reorient  #important for SAPT in psi4, default
symmetry c1  #important for SAPT in psi4, default
}

set PROPERTIES_ORIGIN ["COM"]
properties('MP2/aug-cc-pvtz', properties = ['dipole'])
--------------------------------------------------------------------------

    Molecular point group: c1
  Charge       = 0
  Multiplicity = 1
  Basis Set: AUG-CC-PVTZ
    Blend: AUG-CC-PVTZ
  Basis Set: (AUG-CC-PVTZ AUX)
    Blend: AUG-CC-PVTZ-JKFIT

    Orbital Energies [Eh]
    ---------------------

    Doubly Occupied:

       1A    -20.505506     2A    -15.580676     3A    -11.339411
       4A    -11.272544     5A    -11.250946     6A    -11.234733
       7A    -11.233576     8A    -11.233138     9A    -11.231170
      10A     -1.361738    11A     -1.241264    12A     -1.098276
      13A     -1.038586    14A     -0.976173    15A     -0.912818
      16A     -0.877909    17A     -0.792907    18A     -0.726245
      19A     -0.690951    20A     -0.667774    21A     -0.633739
      22A     -0.608339    23A     -0.601984    24A     -0.593767
      25A     -0.580365    26A     -0.559653    27A     -0.544464
      28A     -0.527935    29A     -0.511448    30A     -0.508184
      31A     -0.479658    32A     -0.467972    33A     -0.463002
      34A     -0.407071    35A     -0.365890

  @DF-RHF Final Energy:  -402.11114071233698

   => Energetics <=

    Nuclear Repulsion Energy =            486.5312064108491086
    One-Electron Energy =               -1511.0450712631395618
    Two-Electron Energy =                 622.4027241399535342
    Total Energy =                       -402.1111407123369190
  Basis Set: (AUG-CC-PVTZ AUX)
    Blend: AUG-CC-PVTZ-RI
    Molecular point group: c1

    Geometry (in Angstrom), charge = 0, multiplicity = 1:

       Center              X                  Y                   Z               Mass
    ------------   -----------------  -----------------  -----------------  -----------------
         O            1.731389630914     1.559281062367    -0.291613821486    15.994914619570
         N            0.948063630914    -0.533037937633     0.205354178514    14.003074004430
         C           -2.271270369086    -0.292054937633    -0.177008821486    12.000000000000
         C           -1.315623369086    -1.476140937633    -0.315778821486    12.000000000000
         C           -1.641515369086     1.083230062367    -0.396093821486    12.000000000000
         C           -0.141667769086    -1.396665237633     0.648715578514    12.000000000000
         C           -0.501068369086     1.419351062367     0.577743178514    12.000000000000
         C            0.828152630914     0.832051062367     0.139972178514    12.000000000000
         C            2.149295630914    -1.159789937633    -0.326461821486    12.000000000000
         H           -2.712503369086    -0.317613937633     0.829263178514     1.007825032230
         H           -3.103450369086    -0.420156937633    -0.880166821486     1.007825032230
         H           -1.874755369086    -2.401674937633    -0.126025821486     1.007825032230
         H           -0.931303369086    -1.541581937633    -1.341466821486     1.007825032230
         H           -2.426058369086     1.841758062367    -0.289841821486     1.007825032230
         H           -1.267196369086     1.167994062367    -1.424330821486     1.007825032230
         H           -0.467026369086    -1.131070937633     1.648738178514     1.007825032230
         H            0.319425630914    -2.411156937633     0.744473178514     1.007825032230
         H           -0.764463369086     1.099026062367     1.593946178514     1.007825032230
         H           -0.333633369086     2.498454062367     0.606001178514     1.007825032230
         H            1.906026630914    -1.798897937633    -1.183041821486     1.007825032230
         H            2.633700630914    -1.769838937633     0.442973178514     1.007825032230
         H            2.824853630914    -0.367960937633    -0.644635821486     1.007825032230

  Basis Set: AUG-CC-PVTZ
    Blend: AUG-CC-PVTZ
  Basis Set: (AUG-CC-PVTZ AUX)
    Blend: AUG-CC-PVTZ-JKFIT
	 Reference Energy          =    -402.1111407123369759 [Eh]
	 Singles Energy            =      -0.0000000000000000 [Eh]
	 Same-Spin Energy          =      -0.4218892806954945 [Eh]
	 Opposite-Spin Energy      =      -1.4053674169826833 [Eh]
	 Correlation Energy        =      -1.8272566976781777 [Eh]
	 Total Energy              =    -403.9383974100151704 [Eh]

	 ================> DF-SCS-MP2 Energies <==================
	-----------------------------------------------------------
	 SCS Same-Spin Scale       =       0.3333333333333333 [-]
	 SCS Opposite-Spin Scale   =       1.2000000000000000 [-]
	 SCS Same-Spin Energy      =      -0.1406297602318315 [Eh]
	 SCS Opposite-Spin Energy  =      -1.6864409003792200 [Eh]
	 SCS Correlation Energy    =      -1.8270706606110516 [Eh]
	 SCS Total Energy          =    -403.9382113729480466 [Eh]
	-----------------------------------------------------------

  Dipole Moment: [D]
     X:    -2.5859      Y:    -3.0918      Z:     0.7929     Total:     4.1079

*** Psi4 exiting successfully. Buy a developer a beer!
