                               Psi4 1.3.2 release

  ==> Input File <==

--------------------------------------------------------------------------
#psi4
#
memory 32 gb

molecule  {
0 1
  O        1.7739800     1.6003060    -0.2911220
  N        0.9906540    -0.4920130     0.2058460
  C       -2.2523181    -0.2393175    -0.1725643
  C       -1.2730330    -1.4351160    -0.3152870
  C       -1.5989250     1.1242550    -0.3956020
  C       -0.0841310    -1.3759550     0.6456410
  C       -0.4584780     1.4603760     0.5782350
  C        0.8707430     0.8730760     0.1404640
  C        2.1918860    -1.1187650    -0.3259700
  H       -2.6699130    -0.2765890     0.8297550
  H       -3.0608600    -0.3791320    -0.8796750
  H       -1.8321650    -2.3606500    -0.1255340
  H       -0.8887130    -1.5005570    -1.3409750
  H       -2.3834680     1.8827830    -0.2893500
  H       -1.2246060     1.2090190    -1.4238390
  H       -0.4244360    -1.0900460     1.6492300
  H        0.3620160    -2.3701320     0.7449650
  H       -0.7218730     1.1400510     1.5944380
  H       -0.2910430     2.5394790     0.6064930
  H        1.9486170    -1.7578730    -1.1825500
  H        2.6762910    -1.7288140     0.4434650
  H        2.8674440    -0.3269360    -0.6441440
units angstrom
no_reorient  #important for SAPT in psi4, default
symmetry c1  #important for SAPT in psi4, default
}

set PROPERTIES_ORIGIN ["COM"]
properties('MP2/aug-cc-pvtz', properties = ['dipole'])
--------------------------------------------------------------------------

    Molecular point group: c1
  Charge       = 0
  Multiplicity = 1
  Basis Set: AUG-CC-PVTZ
    Blend: AUG-CC-PVTZ
  Basis Set: (AUG-CC-PVTZ AUX)
    Blend: AUG-CC-PVTZ-JKFIT

    Orbital Energies [Eh]
    ---------------------

    Doubly Occupied:

       1A    -20.505681     2A    -15.580419     3A    -11.339883
       4A    -11.272171     5A    -11.250492     6A    -11.234486
       7A    -11.233872     8A    -11.233713     9A    -11.230520
      10A     -1.361799    11A     -1.240953    12A     -1.095705
      13A     -1.036649    14A     -0.976003    15A     -0.913959
      16A     -0.876925    17A     -0.794443    18A     -0.724956
      19A     -0.690626    20A     -0.668078    21A     -0.633478
      22A     -0.607600    23A     -0.601732    24A     -0.594533
      25A     -0.582622    26A     -0.558365    27A     -0.544466
      28A     -0.526580    29A     -0.510421    30A     -0.509615
      31A     -0.482104    32A     -0.469789    33A     -0.459658
      34A     -0.407554    35A     -0.365041

  @DF-RHF Final Energy:  -402.11170364126883

   => Energetics <=

    Nuclear Repulsion Energy =            485.9136335355688061
    One-Electron Energy =               -1509.8208982027720140
    Two-Electron Energy =                 621.7955610259343757
    Total Energy =                       -402.1117036412688321
  Basis Set: (AUG-CC-PVTZ AUX)
    Blend: AUG-CC-PVTZ-RI
    Molecular point group: c1

    Geometry (in Angstrom), charge = 0, multiplicity = 1:

       Center              X                  Y                   Z               Mass
    ------------   -----------------  -----------------  -----------------  -----------------
         O            1.732210249597     1.560093230992    -0.291650293637    15.994914619570
         N            0.948884249597    -0.532225769008     0.205317706363    14.003074004430
         C           -2.294087850403    -0.279530269008    -0.173092593637    12.000000000000
         C           -1.314802750403    -1.475328769008    -0.315815293637    12.000000000000
         C           -1.640694750403     1.084042230992    -0.396130293637    12.000000000000
         C           -0.125900750403    -1.416167769008     0.645112706363    12.000000000000
         C           -0.500247750403     1.420163230992     0.577706706363    12.000000000000
         C            0.828973249597     0.832863230992     0.139935706363    12.000000000000
         C            2.150116249597    -1.158977769008    -0.326498293637    12.000000000000
         H           -2.711682750403    -0.316801769008     0.829226706363     1.007825032230
         H           -3.102629750403    -0.419344769008    -0.880203293637     1.007825032230
         H           -1.873934750403    -2.400862769008    -0.126062293637     1.007825032230
         H           -0.930482750403    -1.540769769008    -1.341503293637     1.007825032230
         H           -2.425237750403     1.842570230992    -0.289878293637     1.007825032230
         H           -1.266375750403     1.168806230992    -1.424367293637     1.007825032230
         H           -0.466205750403    -1.130258769008     1.648701706363     1.007825032230
         H            0.320246249597    -2.410344769008     0.744436706363     1.007825032230
         H           -0.763642750403     1.099838230992     1.593909706363     1.007825032230
         H           -0.332812750403     2.499266230992     0.605964706363     1.007825032230
         H            1.906847249597    -1.798085769008    -1.183078293637     1.007825032230
         H            2.634521249597    -1.769026769008     0.442936706363     1.007825032230
         H            2.825674249597    -0.367148769008    -0.644672293637     1.007825032230

  Basis Set: AUG-CC-PVTZ
    Blend: AUG-CC-PVTZ
  Basis Set: (AUG-CC-PVTZ AUX)
    Blend: AUG-CC-PVTZ-JKFIT
	 Reference Energy          =    -402.1117036412688321 [Eh]
	 Singles Energy            =      -0.0000000000000000 [Eh]
	 Same-Spin Energy          =      -0.4216299203651981 [Eh]
	 Opposite-Spin Energy      =      -1.4050792058016173 [Eh]
	 Correlation Energy        =      -1.8267091261668154 [Eh]
	 Total Energy              =    -403.9384127674356364 [Eh]

	 ================> DF-SCS-MP2 Energies <==================
	-----------------------------------------------------------
	 SCS Same-Spin Scale       =       0.3333333333333333 [-]
	 SCS Opposite-Spin Scale   =       1.2000000000000000 [-]
	 SCS Same-Spin Energy      =      -0.1405433067883994 [Eh]
	 SCS Opposite-Spin Energy  =      -1.6860950469619407 [Eh]
	 SCS Correlation Energy    =      -1.8266383537503401 [Eh]
	 SCS Total Energy          =    -403.9383419950191865 [Eh]
	-----------------------------------------------------------

  Dipole Moment: [D]
     X:    -2.5902      Y:    -3.0991      Z:     0.7987     Total:     4.1172

*** Psi4 exiting successfully. Buy a developer a beer!
