                               Psi4 1.3.2 release

  ==> Input File <==

--------------------------------------------------------------------------
#psi4
#
memory 32 gb

molecule  {
0 1
  O        1.7482006     1.6344715    -0.2853436
  N        0.9906540    -0.4920130     0.2058460
  C       -2.2286800    -0.2510300    -0.1765170
  C       -1.2730330    -1.4351160    -0.3152870
  C       -1.5989250     1.1242550    -0.3956020
  C       -0.0841310    -1.3759550     0.6456410
  C       -0.4584780     1.4603760     0.5782350
  C        0.8707430     0.8730760     0.1404640
  C        2.1918860    -1.1187650    -0.3259700
  H       -2.6699130    -0.2765890     0.8297550
  H       -3.0608600    -0.3791320    -0.8796750
  H       -1.8321650    -2.3606500    -0.1255340
  H       -0.8887130    -1.5005570    -1.3409750
  H       -2.3834680     1.8827830    -0.2893500
  H       -1.2246060     1.2090190    -1.4238390
  H       -0.4244360    -1.0900460     1.6492300
  H        0.3620160    -2.3701320     0.7449650
  H       -0.7218730     1.1400510     1.5944380
  H       -0.2910430     2.5394790     0.6064930
  H        1.9486170    -1.7578730    -1.1825500
  H        2.6762910    -1.7288140     0.4434650
  H        2.8674440    -0.3269360    -0.6441440
units angstrom
no_reorient  #important for SAPT in psi4, default
symmetry c1  #important for SAPT in psi4, default
}

set PROPERTIES_ORIGIN ["COM"]
properties('MP2/aug-cc-pvtz', properties = ['dipole'])
--------------------------------------------------------------------------

    Molecular point group: c1
  Charge       = 0
  Multiplicity = 1
  Basis Set: AUG-CC-PVTZ
    Blend: AUG-CC-PVTZ
  Basis Set: (AUG-CC-PVTZ AUX)
    Blend: AUG-CC-PVTZ-JKFIT

    Orbital Energies [Eh]
    ---------------------

    Doubly Occupied:

       1A    -20.506261     2A    -15.582573     3A    -11.339899
       4A    -11.273208     5A    -11.252336     6A    -11.233660
       7A    -11.233557     8A    -11.231290     9A    -11.231128
      10A     -1.361301    11A     -1.243506    12A     -1.097083
      13A     -1.037543    14A     -0.975992    15A     -0.914667
      16A     -0.878003    17A     -0.792250    18A     -0.726225
      19A     -0.690016    20A     -0.668839    21A     -0.633848
      22A     -0.608539    23A     -0.601728    24A     -0.594159
      25A     -0.582952    26A     -0.558751    27A     -0.544553
      28A     -0.528366    29A     -0.510261    30A     -0.509156
      31A     -0.479129    32A     -0.466689    33A     -0.464875
      34A     -0.406258    35A     -0.366697

  @DF-RHF Final Energy:  -402.11174758906259

   => Energetics <=

    Nuclear Repulsion Energy =            486.1657014183899150
    One-Electron Energy =               -1510.3043039541523740
    Two-Electron Energy =                 622.0268549466998138
    Total Energy =                       -402.1117475890625883
  Basis Set: (AUG-CC-PVTZ AUX)
    Blend: AUG-CC-PVTZ-RI
    Molecular point group: c1

    Geometry (in Angstrom), charge = 0, multiplicity = 1:

       Center              X                  Y                   Z               Mass
    ------------   -----------------  -----------------  -----------------  -----------------
         O            1.707443299570     1.591064984582    -0.286225888255    15.994914619570
         N            0.949896699570    -0.535419515418     0.204963711745    14.003074004430
         C           -2.269437300430    -0.294436515418    -0.177399288255    12.000000000000
         C           -1.313790300430    -1.478522515418    -0.316169288255    12.000000000000
         C           -1.639682300430     1.080848484582    -0.396484288255    12.000000000000
         C           -0.124888300430    -1.419361515418     0.644758711745    12.000000000000
         C           -0.499235300430     1.416969484582     0.577352711745    12.000000000000
         C            0.829985699570     0.829669484582     0.139581711745    12.000000000000
         C            2.151128699570    -1.162171515418    -0.326852288255    12.000000000000
         H           -2.710670300430    -0.319995515418     0.828872711745     1.007825032230
         H           -3.101617300430    -0.422538515418    -0.880557288255     1.007825032230
         H           -1.872922300430    -2.404056515418    -0.126416288255     1.007825032230
         H           -0.929470300430    -1.543963515418    -1.341857288255     1.007825032230
         H           -2.424225300430     1.839376484582    -0.290232288255     1.007825032230
         H           -1.265363300430     1.165612484582    -1.424721288255     1.007825032230
         H           -0.465193300430    -1.133452515418     1.648347711745     1.007825032230
         H            0.321258699570    -2.413538515418     0.744082711745     1.007825032230
         H           -0.762630300430     1.096644484582     1.593555711745     1.007825032230
         H           -0.331800300430     2.496072484582     0.605610711745     1.007825032230
         H            1.907859699570    -1.801279515418    -1.183432288255     1.007825032230
         H            2.635533699570    -1.772220515418     0.442582711745     1.007825032230
         H            2.826686699570    -0.370342515418    -0.645026288255     1.007825032230

  Basis Set: AUG-CC-PVTZ
    Blend: AUG-CC-PVTZ
  Basis Set: (AUG-CC-PVTZ AUX)
    Blend: AUG-CC-PVTZ-JKFIT
	 Reference Energy          =    -402.1117475890625883 [Eh]
	 Singles Energy            =      -0.0000000000000000 [Eh]
	 Same-Spin Energy          =      -0.4217098475287678 [Eh]
	 Opposite-Spin Energy      =      -1.4052097737403013 [Eh]
	 Correlation Energy        =      -1.8269196212690690 [Eh]
	 Total Energy              =    -403.9386672103316300 [Eh]

	 ================> DF-SCS-MP2 Energies <==================
	-----------------------------------------------------------
	 SCS Same-Spin Scale       =       0.3333333333333333 [-]
	 SCS Opposite-Spin Scale   =       1.2000000000000000 [-]
	 SCS Same-Spin Energy      =      -0.1405699491762559 [Eh]
	 SCS Opposite-Spin Energy  =      -1.6862517284883616 [Eh]
	 SCS Correlation Energy    =      -1.8268216776646176 [Eh]
	 SCS Total Energy          =    -403.9385692667271996 [Eh]
	-----------------------------------------------------------

  Dipole Moment: [D]
     X:    -2.5013      Y:    -3.2043      Z:     0.7780     Total:     4.1387

*** Psi4 exiting successfully. Buy a developer a beer!
