                               Psi4 1.3.2 release

  ==> Input File <==

--------------------------------------------------------------------------
#psi4
#
memory 32 gb

molecule  {
0 1
  O        1.7739800     1.6003060    -0.2911220
  N        0.9906540    -0.4920130     0.2058460
  C       -2.2286800    -0.2510300    -0.1765170
  C       -1.2335913    -1.4008343    -0.3259380
  C       -1.5989250     1.1242550    -0.3956020
  C       -0.0841310    -1.3759550     0.6456410
  C       -0.4584780     1.4603760     0.5782350
  C        0.8707430     0.8730760     0.1404640
  C        2.1918860    -1.1187650    -0.3259700
  H       -2.6699130    -0.2765890     0.8297550
  H       -3.0608600    -0.3791320    -0.8796750
  H       -1.8321650    -2.3606500    -0.1255340
  H       -0.8887130    -1.5005570    -1.3409750
  H       -2.3834680     1.8827830    -0.2893500
  H       -1.2246060     1.2090190    -1.4238390
  H       -0.4244360    -1.0900460     1.6492300
  H        0.3620160    -2.3701320     0.7449650
  H       -0.7218730     1.1400510     1.5944380
  H       -0.2910430     2.5394790     0.6064930
  H        1.9486170    -1.7578730    -1.1825500
  H        2.6762910    -1.7288140     0.4434650
  H        2.8674440    -0.3269360    -0.6441440
units angstrom
no_reorient  #important for SAPT in psi4, default
symmetry c1  #important for SAPT in psi4, default
}

set PROPERTIES_ORIGIN ["COM"]
properties('MP2/aug-cc-pvtz', properties = ['dipole'])
--------------------------------------------------------------------------

    Molecular point group: c1
  Charge       = 0
  Multiplicity = 1
  Basis Set: AUG-CC-PVTZ
    Blend: AUG-CC-PVTZ
  Basis Set: (AUG-CC-PVTZ AUX)
    Blend: AUG-CC-PVTZ-JKFIT

    Orbital Energies [Eh]
    ---------------------

    Doubly Occupied:

       1A    -20.505495     2A    -15.579672     3A    -11.339813
       4A    -11.271954     5A    -11.250617     6A    -11.234802
       7A    -11.233943     8A    -11.233364     9A    -11.232122
      10A     -1.361758    11A     -1.242168    12A     -1.098655
      13A     -1.039463    14A     -0.976676    15A     -0.914436
      16A     -0.876157    17A     -0.793495    18A     -0.726501
      19A     -0.690314    20A     -0.669010    21A     -0.634576
      22A     -0.610581    23A     -0.601190    24A     -0.592654
      25A     -0.581872    26A     -0.558197    27A     -0.544917
      28A     -0.528194    29A     -0.510958    30A     -0.509298
      31A     -0.482529    32A     -0.468799    33A     -0.457685
      34A     -0.407268    35A     -0.365176

  @DF-RHF Final Energy:  -402.10865226759540

   => Energetics <=

    Nuclear Repulsion Energy =            487.0473183403253756
    One-Electron Energy =               -1512.0633254094309450
    Two-Electron Energy =                 622.9073548015102233
    Total Energy =                       -402.1086522675954029
  Basis Set: (AUG-CC-PVTZ AUX)
    Blend: AUG-CC-PVTZ-RI
    Molecular point group: c1

    Geometry (in Angstrom), charge = 0, multiplicity = 1:

       Center              X                  Y                   Z               Mass
    ------------   -----------------  -----------------  -----------------  -----------------
         O            1.726254629589     1.557962381194    -0.290271499033    15.994914619570
         N            0.942928629589    -0.534356618806     0.206696500967    14.003074004430
         C           -2.276405370411    -0.293373618806    -0.175666499033    12.000000000000
         C           -1.281316670411    -1.443177918806    -0.325087499033    12.000000000000
         C           -1.646650370411     1.081911381194    -0.394751499033    12.000000000000
         C           -0.131856370411    -1.418298618806     0.646491500967    12.000000000000
         C           -0.506203370411     1.418032381194     0.579085500967    12.000000000000
         C            0.823017629589     0.830732381194     0.141314500967    12.000000000000
         C            2.144160629589    -1.161108618806    -0.325119499033    12.000000000000
         H           -2.717638370411    -0.318932618806     0.830605500967     1.007825032230
         H           -3.108585370411    -0.421475618806    -0.878824499033     1.007825032230
         H           -1.879890370411    -2.402993618806    -0.124683499033     1.007825032230
         H           -0.936438370411    -1.542900618806    -1.340124499033     1.007825032230
         H           -2.431193370411     1.840439381194    -0.288499499033     1.007825032230
         H           -1.272331370411     1.166675381194    -1.422988499033     1.007825032230
         H           -0.472161370411    -1.132389618806     1.650080500967     1.007825032230
         H            0.314290629589    -2.412475618806     0.745815500967     1.007825032230
         H           -0.769598370411     1.097707381194     1.595288500967     1.007825032230
         H           -0.338768370411     2.497135381194     0.607343500967     1.007825032230
         H            1.900891629589    -1.800216618806    -1.181699499033     1.007825032230
         H            2.628565629589    -1.771157618806     0.444315500967     1.007825032230
         H            2.819718629589    -0.369279618806    -0.643293499033     1.007825032230

  Basis Set: AUG-CC-PVTZ
    Blend: AUG-CC-PVTZ
  Basis Set: (AUG-CC-PVTZ AUX)
    Blend: AUG-CC-PVTZ-JKFIT
	 Reference Energy          =    -402.1086522675954029 [Eh]
	 Singles Energy            =      -0.0000000000000000 [Eh]
	 Same-Spin Energy          =      -0.4220533427698620 [Eh]
	 Opposite-Spin Energy      =      -1.4056131627828587 [Eh]
	 Correlation Energy        =      -1.8276665055527208 [Eh]
	 Total Energy              =    -403.9363187731481162 [Eh]

	 ================> DF-SCS-MP2 Energies <==================
	-----------------------------------------------------------
	 SCS Same-Spin Scale       =       0.3333333333333333 [-]
	 SCS Opposite-Spin Scale   =       1.2000000000000000 [-]
	 SCS Same-Spin Energy      =      -0.1406844475899540 [Eh]
	 SCS Opposite-Spin Energy  =      -1.6867357953394304 [Eh]
	 SCS Correlation Energy    =      -1.8274202429293844 [Eh]
	 SCS Total Energy          =    -403.9360725105248093 [Eh]
	-----------------------------------------------------------

  Dipole Moment: [D]
     X:    -2.5707      Y:    -3.0959      Z:     0.7942     Total:     4.1017

*** Psi4 exiting successfully. Buy a developer a beer!
