                               Psi4 1.3.2 release

  ==> Input File <==

--------------------------------------------------------------------------
#psi4
#
memory 32 gb

molecule  {
0 1
  O        1.7739800     1.6003060    -0.2911220
  N        0.9906540    -0.4920130     0.2058460
  C       -2.2286800    -0.2510300    -0.1765170
  C       -1.2730330    -1.4351160    -0.3152870
  C       -1.5989250     1.1242550    -0.3956020
  C       -0.0841310    -1.3759550     0.6456410
  C       -0.3100659     1.5041171     0.7049653
  C        0.8707430     0.8730760     0.1404640
  C        2.1918860    -1.1187650    -0.3259700
  H       -2.6699130    -0.2765890     0.8297550
  H       -3.0608600    -0.3791320    -0.8796750
  H       -1.8321650    -2.3606500    -0.1255340
  H       -0.8887130    -1.5005570    -1.3409750
  H       -2.3834680     1.8827830    -0.2893500
  H       -1.2246060     1.2090190    -1.4238390
  H       -0.4244360    -1.0900460     1.6492300
  H        0.3620160    -2.3701320     0.7449650
  H       -0.7218730     1.1400510     1.5944380
  H       -0.2910430     2.5394790     0.6064930
  H        1.9486170    -1.7578730    -1.1825500
  H        2.6762910    -1.7288140     0.4434650
  H        2.8674440    -0.3269360    -0.6441440
units angstrom
no_reorient  #important for SAPT in psi4, default
symmetry c1  #important for SAPT in psi4, default
}

set PROPERTIES_ORIGIN ["COM"]
properties('MP2/aug-cc-pvtz', properties = ['dipole'])
--------------------------------------------------------------------------

    Molecular point group: c1
  Charge       = 0
  Multiplicity = 1
  Basis Set: AUG-CC-PVTZ
    Blend: AUG-CC-PVTZ
  Basis Set: (AUG-CC-PVTZ AUX)
    Blend: AUG-CC-PVTZ-JKFIT

    Orbital Energies [Eh]
    ---------------------

    Doubly Occupied:

       1A    -20.501004     2A    -15.579611     3A    -11.336980
       4A    -11.272339     5A    -11.250283     6A    -11.245652
       7A    -11.233571     8A    -11.232949     9A    -11.230730
      10A     -1.361838    11A     -1.240298    12A     -1.088427
      13A     -1.033703    14A     -0.979380    15A     -0.912985
      16A     -0.882032    17A     -0.791159    18A     -0.729298
      19A     -0.698702    20A     -0.668022    21A     -0.634124
      22A     -0.608865    23A     -0.600943    24A     -0.597914
      25A     -0.581553    26A     -0.564619    27A     -0.546703
      28A     -0.525063    29A     -0.514397    30A     -0.507886
      31A     -0.481316    32A     -0.473844    33A     -0.433588
      34A     -0.403672    35A     -0.364220

  @DF-RHF Final Energy:  -402.08707378088258

   => Energetics <=

    Nuclear Repulsion Energy =            485.1745973824878888
    One-Electron Energy =               -1508.3079991608562977
    Two-Electron Energy =                 621.0463279974858324
    Total Energy =                       -402.0870737808825197
  Basis Set: (AUG-CC-PVTZ AUX)
    Blend: AUG-CC-PVTZ-RI
    Molecular point group: c1

    Geometry (in Angstrom), charge = 0, multiplicity = 1:

       Center              X                  Y                   Z               Mass
    ------------   -----------------  -----------------  -----------------  -----------------
         O            1.715966291729     1.557069280837    -0.303242225304    15.994914619570
         N            0.932640291729    -0.535249719163     0.193725774696    14.003074004430
         C           -2.286693708271    -0.294266719163    -0.188637225304    12.000000000000
         C           -1.331046708271    -1.478352719163    -0.327407225304    12.000000000000
         C           -1.656938708271     1.081018280837    -0.407722225304    12.000000000000
         C           -0.142144708271    -1.419191719163     0.633520774696    12.000000000000
         C           -0.368079608271     1.460880380837     0.692845074696    12.000000000000
         C            0.812729291729     0.829839280837     0.128343774696    12.000000000000
         C            2.133872291729    -1.162001719163    -0.338090225304    12.000000000000
         H           -2.727926708271    -0.319825719163     0.817634774696     1.007825032230
         H           -3.118873708271    -0.422368719163    -0.891795225304     1.007825032230
         H           -1.890178708271    -2.403886719163    -0.137654225304     1.007825032230
         H           -0.946726708271    -1.543793719163    -1.353095225304     1.007825032230
         H           -2.441481708271     1.839546280837    -0.301470225304     1.007825032230
         H           -1.282619708271     1.165782280837    -1.435959225304     1.007825032230
         H           -0.482449708271    -1.133282719163     1.637109774696     1.007825032230
         H            0.304002291729    -2.413368719163     0.732844774696     1.007825032230
         H           -0.779886708271     1.096814280837     1.582317774696     1.007825032230
         H           -0.349056708271     2.496242280837     0.594372774696     1.007825032230
         H            1.890603291729    -1.801109719163    -1.194670225304     1.007825032230
         H            2.618277291729    -1.772050719163     0.431344774696     1.007825032230
         H            2.809430291729    -0.370172719163    -0.656264225304     1.007825032230

  Basis Set: AUG-CC-PVTZ
    Blend: AUG-CC-PVTZ
  Basis Set: (AUG-CC-PVTZ AUX)
    Blend: AUG-CC-PVTZ-JKFIT
	 Reference Energy          =    -402.0870737808825766 [Eh]
	 Singles Energy            =      -0.0000000000000000 [Eh]
	 Same-Spin Energy          =      -0.4220329844737635 [Eh]
	 Opposite-Spin Energy      =      -1.4063715480259156 [Eh]
	 Correlation Energy        =      -1.8284045324996789 [Eh]
	 Total Energy              =    -403.9154783133822662 [Eh]

	 ================> DF-SCS-MP2 Energies <==================
	-----------------------------------------------------------
	 SCS Same-Spin Scale       =       0.3333333333333333 [-]
	 SCS Opposite-Spin Scale   =       1.2000000000000000 [-]
	 SCS Same-Spin Energy      =      -0.1406776614912545 [Eh]
	 SCS Opposite-Spin Energy  =      -1.6876458576310986 [Eh]
	 SCS Correlation Energy    =      -1.8283235191223532 [Eh]
	 SCS Total Energy          =    -403.9153973000049405 [Eh]
	-----------------------------------------------------------

  Dipole Moment: [D]
     X:    -2.7530      Y:    -3.0752      Z:     0.8326     Total:     4.2106

*** Psi4 exiting successfully. Buy a developer a beer!
