                               Psi4 1.3.2 release

  ==> Input File <==

--------------------------------------------------------------------------
#psi4
#
memory 32 gb

molecule  {
0 1
  O        1.7739800     1.6003060    -0.2911220
  N        0.8558061    -0.4939426     0.2551738
  C       -2.2286800    -0.2510300    -0.1765170
  C       -1.2730330    -1.4351160    -0.3152870
  C       -1.5989250     1.1242550    -0.3956020
  C       -0.0841310    -1.3759550     0.6456410
  C       -0.4584780     1.4603760     0.5782350
  C        0.8707430     0.8730760     0.1404640
  C        2.1918860    -1.1187650    -0.3259700
  H       -2.6699130    -0.2765890     0.8297550
  H       -3.0608600    -0.3791320    -0.8796750
  H       -1.8321650    -2.3606500    -0.1255340
  H       -0.8887130    -1.5005570    -1.3409750
  H       -2.3834680     1.8827830    -0.2893500
  H       -1.2246060     1.2090190    -1.4238390
  H       -0.4244360    -1.0900460     1.6492300
  H        0.3620160    -2.3701320     0.7449650
  H       -0.7218730     1.1400510     1.5944380
  H       -0.2910430     2.5394790     0.6064930
  H        1.9486170    -1.7578730    -1.1825500
  H        2.6762910    -1.7288140     0.4434650
  H        2.8674440    -0.3269360    -0.6441440
units angstrom
no_reorient  #important for SAPT in psi4, default
symmetry c1  #important for SAPT in psi4, default
}

set PROPERTIES_ORIGIN ["COM"]
properties('MP2/aug-cc-pvtz', properties = ['dipole'])
--------------------------------------------------------------------------

    Molecular point group: c1
  Charge       = 0
  Multiplicity = 1
  Basis Set: AUG-CC-PVTZ
    Blend: AUG-CC-PVTZ
  Basis Set: (AUG-CC-PVTZ AUX)
    Blend: AUG-CC-PVTZ-JKFIT

    Orbital Energies [Eh]
    ---------------------

    Doubly Occupied:

       1A    -20.512517     2A    -15.583036     3A    -11.344471
       4A    -11.264609     5A    -11.262401     6A    -11.231838
       7A    -11.229043     8A    -11.228056     9A    -11.227182
      10A     -1.363260    11A     -1.258187    12A     -1.090016
      13A     -1.041126    14A     -0.967504    15A     -0.915092
      16A     -0.888204    17A     -0.792094    18A     -0.727783
      19A     -0.686986    20A     -0.675107    21A     -0.635590
      22A     -0.601123    23A     -0.600327    24A     -0.592457
      25A     -0.586346    26A     -0.559838    27A     -0.540926
      28A     -0.533200    29A     -0.513909    30A     -0.500188
      31A     -0.476154    32A     -0.463766    33A     -0.461379
      34A     -0.404699    35A     -0.365630

  @DF-RHF Final Energy:  -402.08544599547565

   => Energetics <=

    Nuclear Repulsion Energy =            487.3544968287351935
    One-Electron Energy =               -1512.6317949346380374
    Two-Electron Energy =                 623.1918521104272486
    Total Energy =                       -402.0854459954756521
  Basis Set: (AUG-CC-PVTZ AUX)
    Blend: AUG-CC-PVTZ-RI
    Molecular point group: c1

    Geometry (in Angstrom), charge = 0, multiplicity = 1:

       Center              X                  Y                   Z               Mass
    ------------   -----------------  -----------------  -----------------  -----------------
         O            1.744835202652     1.561411647268    -0.296711740382    15.994914619570
         N            0.826661302652    -0.532836952732     0.249584059618    14.003074004430
         C           -2.257824797348    -0.289924352732    -0.182106740382    12.000000000000
         C           -1.302177797348    -1.474010352732    -0.320876740382    12.000000000000
         C           -1.628069797348     1.085360647268    -0.401191740382    12.000000000000
         C           -0.113275797348    -1.414849352732     0.640051259618    12.000000000000
         C           -0.487622797348     1.421481647268     0.572645259618    12.000000000000
         C            0.841598202652     0.834181647268     0.134874259618    12.000000000000
         C            2.162741202652    -1.157659352732    -0.331559740382    12.000000000000
         H           -2.699057797348    -0.315483352732     0.824165259618     1.007825032230
         H           -3.090004797348    -0.418026352732    -0.885264740382     1.007825032230
         H           -1.861309797348    -2.399544352732    -0.131123740382     1.007825032230
         H           -0.917857797348    -1.539451352732    -1.346564740382     1.007825032230
         H           -2.412612797348     1.843888647268    -0.294939740382     1.007825032230
         H           -1.253750797348     1.170124647268    -1.429428740382     1.007825032230
         H           -0.453580797348    -1.128940352732     1.643640259618     1.007825032230
         H            0.332871202652    -2.409026352732     0.739375259618     1.007825032230
         H           -0.751017797348     1.101156647268     1.588848259618     1.007825032230
         H           -0.320187797348     2.500584647268     0.600903259618     1.007825032230
         H            1.919472202652    -1.796767352732    -1.188139740382     1.007825032230
         H            2.647146202652    -1.767708352732     0.437875259618     1.007825032230
         H            2.838299202652    -0.365830352732    -0.649733740382     1.007825032230

  Basis Set: AUG-CC-PVTZ
    Blend: AUG-CC-PVTZ
  Basis Set: (AUG-CC-PVTZ AUX)
    Blend: AUG-CC-PVTZ-JKFIT
	 Reference Energy          =    -402.0854459954756521 [Eh]
	 Singles Energy            =      -0.0000000000000000 [Eh]
	 Same-Spin Energy          =      -0.4233958111750518 [Eh]
	 Opposite-Spin Energy      =      -1.4083721164866101 [Eh]
	 Correlation Energy        =      -1.8317679276616619 [Eh]
	 Total Energy              =    -403.9172139231372967 [Eh]

	 ================> DF-SCS-MP2 Energies <==================
	-----------------------------------------------------------
	 SCS Same-Spin Scale       =       0.3333333333333333 [-]
	 SCS Opposite-Spin Scale   =       1.2000000000000000 [-]
	 SCS Same-Spin Energy      =      -0.1411319370583506 [Eh]
	 SCS Opposite-Spin Energy  =      -1.6900465397839322 [Eh]
	 SCS Correlation Energy    =      -1.8311784768422827 [Eh]
	 SCS Total Energy          =    -403.9166244723179489 [Eh]
	-----------------------------------------------------------

  Dipole Moment: [D]
     X:    -2.1610      Y:    -3.1372      Z:     0.6845     Total:     3.8704

*** Psi4 exiting successfully. Buy a developer a beer!
