                               Psi4 1.3.2 release

  ==> Input File <==

--------------------------------------------------------------------------
#psi4
#
memory 32 gb

molecule  {
0 1
  O        1.7739800     1.6003060    -0.2911220
  N        0.9906540    -0.4920130     0.2058460
  C       -2.2286800    -0.2510300    -0.1765170
  C       -1.2730330    -1.4351160    -0.3152870
  C       -1.5989250     1.1242550    -0.3956020
  C       -0.0841310    -1.3759550     0.6456410
  C       -0.4584780     1.4603760     0.5782350
  C        0.8499897     0.9500243     0.0030423
  C        2.1918860    -1.1187650    -0.3259700
  H       -2.6699130    -0.2765890     0.8297550
  H       -3.0608600    -0.3791320    -0.8796750
  H       -1.8321650    -2.3606500    -0.1255340
  H       -0.8887130    -1.5005570    -1.3409750
  H       -2.3834680     1.8827830    -0.2893500
  H       -1.2246060     1.2090190    -1.4238390
  H       -0.4244360    -1.0900460     1.6492300
  H        0.3620160    -2.3701320     0.7449650
  H       -0.7218730     1.1400510     1.5944380
  H       -0.2910430     2.5394790     0.6064930
  H        1.9486170    -1.7578730    -1.1825500
  H        2.6762910    -1.7288140     0.4434650
  H        2.8674440    -0.3269360    -0.6441440
units angstrom
no_reorient  #important for SAPT in psi4, default
symmetry c1  #important for SAPT in psi4, default
}

set PROPERTIES_ORIGIN ["COM"]
properties('MP2/aug-cc-pvtz', properties = ['dipole'])
--------------------------------------------------------------------------

    Molecular point group: c1
  Charge       = 0
  Multiplicity = 1
  Basis Set: AUG-CC-PVTZ
    Blend: AUG-CC-PVTZ
  Basis Set: (AUG-CC-PVTZ AUX)
    Blend: AUG-CC-PVTZ-JKFIT

    Orbital Energies [Eh]
    ---------------------

    Doubly Occupied:

       1A    -20.528244     2A    -15.562620     3A    -11.343982
       4A    -11.263375     5A    -11.242066     6A    -11.234852
       7A    -11.233900     8A    -11.229761     9A    -11.228053
      10A     -1.414130    11A     -1.220941    12A     -1.095145
      13A     -1.035320    14A     -0.967080    15A     -0.891657
      16A     -0.874038    17A     -0.788082    18A     -0.720057
      19A     -0.697490    20A     -0.668257    21A     -0.631588
      22A     -0.612998    23A     -0.604424    24A     -0.590096
      25A     -0.583462    26A     -0.559913    27A     -0.551782
      28A     -0.527652    29A     -0.514190    30A     -0.507332
      31A     -0.477639    32A     -0.470926    33A     -0.462024
      34A     -0.411782    35A     -0.355077

  @DF-RHF Final Energy:  -402.09603784559209

   => Energetics <=

    Nuclear Repulsion Energy =            486.1200244559685757
    One-Electron Energy =               -1510.2322580943418870
    Two-Electron Energy =                 622.0161957927812182
    Total Energy =                       -402.0960378455920363
  Basis Set: (AUG-CC-PVTZ AUX)
    Blend: AUG-CC-PVTZ-RI
    Molecular point group: c1

    Geometry (in Angstrom), charge = 0, multiplicity = 1:

       Center              X                  Y                   Z               Mass
    ------------   -----------------  -----------------  -----------------  -----------------
         O            1.731937883918     1.553934054271    -0.278302562584    15.994914619570
         N            0.948611883918    -0.538384945729     0.218665437416    14.003074004430
         C           -2.270722116082    -0.297401945729    -0.163697562584    12.000000000000
         C           -1.315075116082    -1.481487945729    -0.302467562584    12.000000000000
         C           -1.640967116082     1.077883054271    -0.382782562584    12.000000000000
         C           -0.126173116082    -1.422326945729     0.658460437416    12.000000000000
         C           -0.500520116082     1.414004054271     0.591054437416    12.000000000000
         C            0.807947583918     0.903652354271     0.015861737416    12.000000000000
         C            2.149843883918    -1.165136945729    -0.313150562584    12.000000000000
         H           -2.711955116082    -0.322960945729     0.842574437416     1.007825032230
         H           -3.102902116082    -0.425503945729    -0.866855562584     1.007825032230
         H           -1.874207116082    -2.407021945729    -0.112714562584     1.007825032230
         H           -0.930755116082    -1.546928945729    -1.328155562584     1.007825032230
         H           -2.425510116082     1.836411054271    -0.276530562584     1.007825032230
         H           -1.266648116082     1.162647054271    -1.411019562584     1.007825032230
         H           -0.466478116082    -1.136417945729     1.662049437416     1.007825032230
         H            0.319973883918    -2.416503945729     0.757784437416     1.007825032230
         H           -0.763915116082     1.093679054271     1.607257437416     1.007825032230
         H           -0.333085116082     2.493107054271     0.619312437416     1.007825032230
         H            1.906574883918    -1.804244945729    -1.169730562584     1.007825032230
         H            2.634248883918    -1.775185945729     0.456284437416     1.007825032230
         H            2.825401883918    -0.373307945729    -0.631324562584     1.007825032230

  Basis Set: AUG-CC-PVTZ
    Blend: AUG-CC-PVTZ
  Basis Set: (AUG-CC-PVTZ AUX)
    Blend: AUG-CC-PVTZ-JKFIT
	 Reference Energy          =    -402.0960378455920932 [Eh]
	 Singles Energy            =      -0.0000000000000000 [Eh]
	 Same-Spin Energy          =      -0.4212151346660338 [Eh]
	 Opposite-Spin Energy      =      -1.4043763691527973 [Eh]
	 Correlation Energy        =      -1.8255915038188311 [Eh]
	 Total Energy              =    -403.9216293494109209 [Eh]

	 ================> DF-SCS-MP2 Energies <==================
	-----------------------------------------------------------
	 SCS Same-Spin Scale       =       0.3333333333333333 [-]
	 SCS Opposite-Spin Scale   =       1.2000000000000000 [-]
	 SCS Same-Spin Energy      =      -0.1404050448886779 [Eh]
	 SCS Opposite-Spin Energy  =      -1.6852516429833566 [Eh]
	 SCS Correlation Energy    =      -1.8256566878720346 [Eh]
	 SCS Total Energy          =    -403.9216945334641196 [Eh]
	-----------------------------------------------------------

  Dipole Moment: [D]
     X:    -2.3927      Y:    -2.2475      Z:     0.5959     Total:     3.3364

*** Psi4 exiting successfully. Buy a developer a beer!
