                               Psi4 1.4a3.dev225

  ==> Input File <==

--------------------------------------------------------------------------
#psi4
#
memory 32 gb

molecule  {
0 1
  O        1.7739800     1.6003060    -0.2911220
  N        0.9906540    -0.4920130     0.2058460
  C       -2.2286800    -0.2510300    -0.1765170
  C       -1.2730330    -1.4351160    -0.3152870
  C       -1.5989250     1.1242550    -0.3956020
  C       -0.0841310    -1.3759550     0.6456410
  C       -0.4584780     1.4603760     0.5782350
  C        0.8707430     0.8730760     0.1404640
  C        2.1918860    -1.1187650    -0.3259700
  H       -2.6699130    -0.2765890     0.8297550
  H       -3.0608600    -0.3791320    -0.8796750
  H       -1.8321650    -2.3606500    -0.1255340
  H       -0.8887130    -1.5005570    -1.3409750
  H       -2.3834680     1.8827830    -0.2893500
  H       -1.2246060     1.2090190    -1.4238390
  H       -0.4089339    -1.1030702     1.6035129
  H        0.3620160    -2.3701320     0.7449650
  H       -0.7218730     1.1400510     1.5944380
  H       -0.2910430     2.5394790     0.6064930
  H        1.9486170    -1.7578730    -1.1825500
  H        2.6762910    -1.7288140     0.4434650
  H        2.8674440    -0.3269360    -0.6441440
units angstrom
no_reorient  #important for SAPT in psi4, default
symmetry c1  #important for SAPT in psi4, default
}

set PROPERTIES_ORIGIN ["COM"]
properties('MP2/aug-cc-pvtz', properties = ['dipole'])
--------------------------------------------------------------------------

    Molecular point group: c1
  Charge       = 0
  Multiplicity = 1
  Basis Set: AUG-CC-PVTZ
    Blend: AUG-CC-PVTZ
  Basis Set: (AUG-CC-PVTZ AUX)
    Blend: AUG-CC-PVTZ-JKFIT

    Orbital Energies [Eh]
    ---------------------

    Doubly Occupied:

       1A    -20.505465     2A    -15.579985     3A    -11.339754
       4A    -11.266085     5A    -11.250203     6A    -11.234684
       7A    -11.233640     8A    -11.232862     9A    -11.231484
      10A     -1.361628    11A     -1.241204    12A     -1.097697
      13A     -1.039020    14A     -0.976784    15A     -0.914629
      16A     -0.878949    17A     -0.793393    18A     -0.729141
      19A     -0.690903    20A     -0.668561    21A     -0.633650
      22A     -0.608758    23A     -0.602143    24A     -0.594746
      25A     -0.584169    26A     -0.559131    27A     -0.544264
      28A     -0.527100    29A     -0.512262    30A     -0.508917
      31A     -0.479484    32A     -0.467343    33A     -0.465521
      34A     -0.407304    35A     -0.365150

  @DF-RHF Final Energy:  -402.11131236861655

   => Energetics <=

    Nuclear Repulsion Energy =            486.5536396439201212
    One-Electron Energy =               -1511.0778792473543035
    Two-Electron Energy =                 622.4129272348175164
    Total Energy =                       -402.1113123686166091
  Basis Set: (AUG-CC-PVTZ AUX)
    Blend: AUG-CC-PVTZ-RI
    Molecular point group: c1

    Geometry (in Angstrom), charge = 0, multiplicity = 1:

       Center              X                  Y                   Z               Mass
    ------------   -----------------  -----------------  -----------------  -----------------
         O            1.729855558191     1.561302329816    -0.290914593809    15.994914619570
         N            0.946529558191    -0.531016670184     0.206053406191    14.003074004430
         C           -2.272804441809    -0.290033670184    -0.176309593809    12.000000000000
         C           -1.317157441809    -1.474119670184    -0.315079593809    12.000000000000
         C           -1.643049441809     1.085251329816    -0.395394593809    12.000000000000
         C           -0.128255441809    -1.414958670184     0.645848406191    12.000000000000
         C           -0.502602441809     1.421372329816     0.578442406191    12.000000000000
         C            0.826618558191     0.834072329816     0.140671406191    12.000000000000
         C            2.147761558191    -1.157768670184    -0.325762593809    12.000000000000
         H           -2.714037441809    -0.315592670184     0.829962406191     1.007825032230
         H           -3.104984441809    -0.418135670184    -0.879467593809     1.007825032230
         H           -1.876289441809    -2.399653670184    -0.125326593809     1.007825032230
         H           -0.932837441809    -1.539560670184    -1.340767593809     1.007825032230
         H           -2.427592441809     1.843779329816    -0.289142593809     1.007825032230
         H           -1.268730441809     1.170015329816    -1.423631593809     1.007825032230
         H           -0.453058341809    -1.142073870184     1.603720306191     1.007825032230
         H            0.317891558191    -2.409135670184     0.745172406191     1.007825032230
         H           -0.765997441809     1.101047329816     1.594645406191     1.007825032230
         H           -0.335167441809     2.500475329816     0.606700406191     1.007825032230
         H            1.904492558191    -1.796876670184    -1.182342593809     1.007825032230
         H            2.632166558191    -1.767817670184     0.443672406191     1.007825032230
         H            2.823319558191    -0.365939670184    -0.643936593809     1.007825032230

  Basis Set: AUG-CC-PVTZ
    Blend: AUG-CC-PVTZ
  Basis Set: (AUG-CC-PVTZ AUX)
    Blend: AUG-CC-PVTZ-JKFIT
	 Reference Energy          =    -402.1113123686165522 [Eh]
	 Singles Energy            =      -0.0000000000000000 [Eh]
	 Same-Spin Energy          =      -0.4216874254782642 [Eh]
	 Opposite-Spin Energy      =      -1.4048456302430439 [Eh]
	 Correlation Energy        =      -1.8265330557213080 [Eh]
	 Total Energy              =    -403.9378454243378656 [Eh]

	 ================> DF-SCS-MP2 Energies <==================
	-----------------------------------------------------------
	 SCS Same-Spin Scale       =       0.3333333333333333 [-]
	 SCS Opposite-Spin Scale   =       1.2000000000000000 [-]
	 SCS Same-Spin Energy      =      -0.1405624751594214 [Eh]
	 SCS Opposite-Spin Energy  =      -1.6858147562916526 [Eh]
	 SCS Correlation Energy    =      -1.8263772314510740 [Eh]
	 SCS Total Energy          =    -403.9376896000676425 [Eh]
	-----------------------------------------------------------

  Dipole Moment: [D]
     X:    -2.5946      Y:    -3.1093      Z:     0.8228     Total:     4.1324

*** Psi4 exiting successfully. Buy a developer a beer!
