                               Psi4 1.3.2 release

  ==> Input File <==

--------------------------------------------------------------------------
#psi4
#
memory 32 gb

molecule  {
0 1
  O        1.7739800     1.6003060    -0.2911220
  N        0.9906540    -0.4920130     0.2058460
  C       -2.2286800    -0.2510300    -0.1765170
  C       -1.2730330    -1.4351160    -0.3152870
  C       -1.5845838     1.1348001    -0.4156670
  C       -0.0841310    -1.3759550     0.6456410
  C       -0.4584780     1.4603760     0.5782350
  C        0.8707430     0.8730760     0.1404640
  C        2.1918860    -1.1187650    -0.3259700
  H       -2.6699130    -0.2765890     0.8297550
  H       -3.0608600    -0.3791320    -0.8796750
  H       -1.8321650    -2.3606500    -0.1255340
  H       -0.8887130    -1.5005570    -1.3409750
  H       -2.3834680     1.8827830    -0.2893500
  H       -1.2246060     1.2090190    -1.4238390
  H       -0.4244360    -1.0900460     1.6492300
  H        0.3620160    -2.3701320     0.7449650
  H       -0.7218730     1.1400510     1.5944380
  H       -0.2910430     2.5394790     0.6064930
  H        1.9486170    -1.7578730    -1.1825500
  H        2.6762910    -1.7288140     0.4434650
  H        2.8674440    -0.3269360    -0.6441440
units angstrom
no_reorient  #important for SAPT in psi4, default
symmetry c1  #important for SAPT in psi4, default
}

set PROPERTIES_ORIGIN ["COM"]
properties('MP2/aug-cc-pvtz', properties = ['dipole'])
--------------------------------------------------------------------------

    Molecular point group: c1
  Charge       = 0
  Multiplicity = 1
  Basis Set: AUG-CC-PVTZ
    Blend: AUG-CC-PVTZ
  Basis Set: (AUG-CC-PVTZ AUX)
    Blend: AUG-CC-PVTZ-JKFIT

    Orbital Energies [Eh]
    ---------------------

    Doubly Occupied:

       1A    -20.505503     2A    -15.580517     3A    -11.339693
       4A    -11.272060     5A    -11.250550     6A    -11.234013
       7A    -11.233328     8A    -11.233091     9A    -11.232034
      10A     -1.361726    11A     -1.241090    12A     -1.095786
      13A     -1.038267    14A     -0.974549    15A     -0.913598
      16A     -0.877813    17A     -0.794081    18A     -0.725290
      19A     -0.690615    20A     -0.668061    21A     -0.633463
      22A     -0.608141    23A     -0.601024    24A     -0.593660
      25A     -0.582578    26A     -0.558438    27A     -0.543986
      28A     -0.527542    29A     -0.512247    30A     -0.508867
      31A     -0.482729    32A     -0.466710    33A     -0.461819
      34A     -0.407015    35A     -0.365030

  @DF-RHF Final Energy:  -402.11151994272939

   => Energetics <=

    Nuclear Repulsion Energy =            486.1961755040146613
    One-Electron Energy =               -1510.3855622266437422
    Two-Electron Energy =                 622.0778667798996366
    Total Energy =                       -402.1115199427293874
  Basis Set: (AUG-CC-PVTZ AUX)
    Blend: AUG-CC-PVTZ-RI
    Molecular point group: c1

    Geometry (in Angstrom), charge = 0, multiplicity = 1:

       Center              X                  Y                   Z               Mass
    ------------   -----------------  -----------------  -----------------  -----------------
         O            1.728624469697     1.560203449966    -0.289382685074    15.994914619570
         N            0.945298469697    -0.532115550034     0.207585314926    14.003074004430
         C           -2.274035530303    -0.291132550034    -0.174777685074    12.000000000000
         C           -1.318388530303    -1.475218550034    -0.313547685074    12.000000000000
         C           -1.629939330303     1.094697549966    -0.413927685074    12.000000000000
         C           -0.129486530303    -1.416057550034     0.647380314926    12.000000000000
         C           -0.503833530303     1.420273449966     0.579974314926    12.000000000000
         C            0.825387469697     0.832973449966     0.142203314926    12.000000000000
         C            2.146530469697    -1.158867550034    -0.324230685074    12.000000000000
         H           -2.715268530303    -0.316691550034     0.831494314926     1.007825032230
         H           -3.106215530303    -0.419234550034    -0.877935685074     1.007825032230
         H           -1.877520530303    -2.400752550034    -0.123794685074     1.007825032230
         H           -0.934068530303    -1.540659550034    -1.339235685074     1.007825032230
         H           -2.428823530303     1.842680449966    -0.287610685074     1.007825032230
         H           -1.269961530303     1.168916449966    -1.422099685074     1.007825032230
         H           -0.469791530303    -1.130148550034     1.650969314926     1.007825032230
         H            0.316660469697    -2.410234550034     0.746704314926     1.007825032230
         H           -0.767228530303     1.099948449966     1.596177314926     1.007825032230
         H           -0.336398530303     2.499376449966     0.608232314926     1.007825032230
         H            1.903261469697    -1.797975550034    -1.180810685074     1.007825032230
         H            2.630935469697    -1.768916550034     0.445204314926     1.007825032230
         H            2.822088469697    -0.367038550034    -0.642404685074     1.007825032230

  Basis Set: AUG-CC-PVTZ
    Blend: AUG-CC-PVTZ
  Basis Set: (AUG-CC-PVTZ AUX)
    Blend: AUG-CC-PVTZ-JKFIT
	 Reference Energy          =    -402.1115199427293874 [Eh]
	 Singles Energy            =      -0.0000000000000000 [Eh]
	 Same-Spin Energy          =      -0.4216760989454152 [Eh]
	 Opposite-Spin Energy      =      -1.4051339081639460 [Eh]
	 Correlation Energy        =      -1.8268100071093611 [Eh]
	 Total Energy              =    -403.9383299498387601 [Eh]

	 ================> DF-SCS-MP2 Energies <==================
	-----------------------------------------------------------
	 SCS Same-Spin Scale       =       0.3333333333333333 [-]
	 SCS Opposite-Spin Scale   =       1.2000000000000000 [-]
	 SCS Same-Spin Energy      =      -0.1405586996484717 [Eh]
	 SCS Opposite-Spin Energy  =      -1.6861606897967352 [Eh]
	 SCS Correlation Energy    =      -1.8267193894452070 [Eh]
	 SCS Total Energy          =    -403.9382393321745894 [Eh]
	-----------------------------------------------------------

  Dipole Moment: [D]
     X:    -2.5757      Y:    -3.0988      Z:     0.7868     Total:     4.1055

*** Psi4 exiting successfully. Buy a developer a beer!
