                               Psi4 1.4a3.dev225

  ==> Input File <==

--------------------------------------------------------------------------
#psi4
#
memory 32 gb

molecule  {
0 1
  O        1.7739800     1.6003060    -0.2911220
  N        0.9906540    -0.4920130     0.2058460
  C       -2.2286800    -0.2510300    -0.1765170
  C       -1.2730330    -1.4351160    -0.3152870
  C       -1.5989250     1.1242550    -0.3956020
  C       -0.0841310    -1.3759550     0.6456410
  C       -0.4584780     1.4603760     0.5782350
  C        0.8707430     0.8730760     0.1404640
  C        2.1918860    -1.1187650    -0.3259700
  H       -2.6699130    -0.2765890     0.8297550
  H       -3.0608600    -0.3791320    -0.8796750
  H       -1.8219789    -2.3437890    -0.1289908
  H       -0.8887130    -1.5005570    -1.3409750
  H       -2.3834680     1.8827830    -0.2893500
  H       -1.2246060     1.2090190    -1.4238390
  H       -0.4244360    -1.0900460     1.6492300
  H        0.3620160    -2.3701320     0.7449650
  H       -0.7218730     1.1400510     1.5944380
  H       -0.2910430     2.5394790     0.6064930
  H        1.9486170    -1.7578730    -1.1825500
  H        2.6762910    -1.7288140     0.4434650
  H        2.8674440    -0.3269360    -0.6441440
units angstrom
no_reorient  #important for SAPT in psi4, default
symmetry c1  #important for SAPT in psi4, default
}

set PROPERTIES_ORIGIN ["COM"]
properties('MP2/aug-cc-pvtz', properties = ['dipole'])
--------------------------------------------------------------------------

    Molecular point group: c1
  Charge       = 0
  Multiplicity = 1
  Basis Set: AUG-CC-PVTZ
    Blend: AUG-CC-PVTZ
  Basis Set: (AUG-CC-PVTZ AUX)
    Blend: AUG-CC-PVTZ-JKFIT

    Orbital Energies [Eh]
    ---------------------

    Doubly Occupied:

       1A    -20.505583     2A    -15.580415     3A    -11.339811
       4A    -11.272058     5A    -11.250501     6A    -11.234510
       7A    -11.233396     8A    -11.231523     9A    -11.230706
      10A     -1.361724    11A     -1.241064    12A     -1.097717
      13A     -1.038662    14A     -0.975501    15A     -0.913803
      16A     -0.879065    17A     -0.792978    18A     -0.725202
      19A     -0.690750    20A     -0.669335    21A     -0.633295
      22A     -0.608154    23A     -0.602225    24A     -0.594851
      25A     -0.583510    26A     -0.558705    27A     -0.544353
      28A     -0.527249    29A     -0.509864    30A     -0.509023
      31A     -0.479491    32A     -0.467786    33A     -0.465439
      34A     -0.407344    35A     -0.364987

  @DF-RHF Final Energy:  -402.11213496968639

   => Energetics <=

    Nuclear Repulsion Energy =            486.4072833495853274
    One-Electron Energy =               -1510.7976761590596197
    Two-Electron Energy =                 622.2782578397877842
    Total Energy =                       -402.1121349696863945
  Basis Set: (AUG-CC-PVTZ AUX)
    Blend: AUG-CC-PVTZ-RI
    Molecular point group: c1

    Geometry (in Angstrom), charge = 0, multiplicity = 1:

       Center              X                  Y                   Z               Mass
    ------------   -----------------  -----------------  -----------------  -----------------
         O            1.729897710905     1.561065357980    -0.291249692818    15.994914619570
         N            0.946571710905    -0.531253642020     0.205718307182    14.003074004430
         C           -2.272762289095    -0.290270642020    -0.176644692818    12.000000000000
         C           -1.317115289095    -1.474356642020    -0.315414692818    12.000000000000
         C           -1.643007289095     1.085014357980    -0.395729692818    12.000000000000
         C           -0.128213289095    -1.415195642020     0.645513307182    12.000000000000
         C           -0.502560289095     1.421135357980     0.578107307182    12.000000000000
         C            0.826660710905     0.833835357980     0.140336307182    12.000000000000
         C            2.147803710905    -1.158005642020    -0.326097692818    12.000000000000
         H           -2.713995289095    -0.315829642020     0.829627307182     1.007825032230
         H           -3.104942289095    -0.418372642020    -0.879802692818     1.007825032230
         H           -1.866061189095    -2.383029642020    -0.129118492818     1.007825032230
         H           -0.932795289095    -1.539797642020    -1.341102692818     1.007825032230
         H           -2.427550289095     1.843542357980    -0.289477692818     1.007825032230
         H           -1.268688289095     1.169778357980    -1.423966692818     1.007825032230
         H           -0.468518289095    -1.129286642020     1.649102307182     1.007825032230
         H            0.317933710905    -2.409372642020     0.744837307182     1.007825032230
         H           -0.765955289095     1.100810357980     1.594310307182     1.007825032230
         H           -0.335125289095     2.500238357980     0.606365307182     1.007825032230
         H            1.904534710905    -1.797113642020    -1.182677692818     1.007825032230
         H            2.632208710905    -1.768054642020     0.443337307182     1.007825032230
         H            2.823361710905    -0.366176642020    -0.644271692818     1.007825032230

  Basis Set: AUG-CC-PVTZ
    Blend: AUG-CC-PVTZ
  Basis Set: (AUG-CC-PVTZ AUX)
    Blend: AUG-CC-PVTZ-JKFIT
	 Reference Energy          =    -402.1121349696863945 [Eh]
	 Singles Energy            =      -0.0000000000000000 [Eh]
	 Same-Spin Energy          =      -0.4217739497465329 [Eh]
	 Opposite-Spin Energy      =      -1.4050722218145300 [Eh]
	 Correlation Energy        =      -1.8268461715610629 [Eh]
	 Total Energy              =    -403.9389811412474387 [Eh]

	 ================> DF-SCS-MP2 Energies <==================
	-----------------------------------------------------------
	 SCS Same-Spin Scale       =       0.3333333333333333 [-]
	 SCS Opposite-Spin Scale   =       1.2000000000000000 [-]
	 SCS Same-Spin Energy      =      -0.1405913165821776 [Eh]
	 SCS Opposite-Spin Energy  =      -1.6860866661774359 [Eh]
	 SCS Correlation Energy    =      -1.8266779827596136 [Eh]
	 SCS Total Energy          =    -403.9388129524460282 [Eh]
	-----------------------------------------------------------

  Dipole Moment: [D]
     X:    -2.5882      Y:    -3.1188      Z:     0.7940     Total:     4.1299

*** Psi4 exiting successfully. Buy a developer a beer!
