                               Psi4 1.3.2 release

  ==> Input File <==

--------------------------------------------------------------------------
#psi4
#
memory 32 gb

molecule  {
0 1
  O        1.7739800     1.6003060    -0.2911220
  N        0.9906540    -0.4920130     0.2058460
  C       -2.2286800    -0.2510300    -0.1765170
  C       -1.2730330    -1.4351160    -0.3152870
  C       -1.6401286     1.0342728    -0.3812677
  C       -0.0841310    -1.3759550     0.6456410
  C       -0.4584780     1.4603760     0.5782350
  C        0.8707430     0.8730760     0.1404640
  C        2.1918860    -1.1187650    -0.3259700
  H       -2.6699130    -0.2765890     0.8297550
  H       -3.0608600    -0.3791320    -0.8796750
  H       -1.8321650    -2.3606500    -0.1255340
  H       -0.8887130    -1.5005570    -1.3409750
  H       -2.3834680     1.8827830    -0.2893500
  H       -1.2246060     1.2090190    -1.4238390
  H       -0.4244360    -1.0900460     1.6492300
  H        0.3620160    -2.3701320     0.7449650
  H       -0.7218730     1.1400510     1.5944380
  H       -0.2910430     2.5394790     0.6064930
  H        1.9486170    -1.7578730    -1.1825500
  H        2.6762910    -1.7288140     0.4434650
  H        2.8674440    -0.3269360    -0.6441440
units angstrom
no_reorient  #important for SAPT in psi4, default
symmetry c1  #important for SAPT in psi4, default
}

set PROPERTIES_ORIGIN ["COM"]
properties('MP2/aug-cc-pvtz', properties = ['dipole'])
--------------------------------------------------------------------------

    Molecular point group: c1
  Charge       = 0
  Multiplicity = 1
  Basis Set: AUG-CC-PVTZ
    Blend: AUG-CC-PVTZ
  Basis Set: (AUG-CC-PVTZ AUX)
    Blend: AUG-CC-PVTZ-JKFIT

    Orbital Energies [Eh]
    ---------------------

    Doubly Occupied:

       1A    -20.505331     2A    -15.580006     3A    -11.339205
       4A    -11.272724     5A    -11.250383     6A    -11.239222
       7A    -11.235812     8A    -11.234170     9A    -11.228113
      10A     -1.361401    11A     -1.241091    12A     -1.108417
      13A     -1.034048    14A     -0.982085    15A     -0.913488
      16A     -0.880266    17A     -0.788611    18A     -0.725094
      19A     -0.689717    20A     -0.671071    21A     -0.634542
      22A     -0.610263    23A     -0.608002    24A     -0.595769
      25A     -0.580508    26A     -0.559141    27A     -0.542230
      28A     -0.527202    29A     -0.510499    30A     -0.507577
      31A     -0.491721    32A     -0.462860    33A     -0.453473
      34A     -0.406231    35A     -0.364906

  @DF-RHF Final Energy:  -402.10070096175781

   => Energetics <=

    Nuclear Repulsion Energy =            486.9920690661546701
    One-Electron Energy =               -1511.9151792485679380
    Two-Electron Energy =                 622.8224092206553451
    Total Energy =                       -402.1007009617578660
  Basis Set: (AUG-CC-PVTZ AUX)
    Blend: AUG-CC-PVTZ-RI
    Molecular point group: c1

    Geometry (in Angstrom), charge = 0, multiplicity = 1:

       Center              X                  Y                   Z               Mass
    ------------   -----------------  -----------------  -----------------  -----------------
         O            1.733868679764     1.569694640478    -0.292630462640    15.994914619570
         N            0.950542679764    -0.522624359522     0.204337537360    14.003074004430
         C           -2.268791320236    -0.281641359522    -0.178025462640    12.000000000000
         C           -1.313144320236    -1.465727359522    -0.316795462640    12.000000000000
         C           -1.680239920236     1.003661440478    -0.382776162640    12.000000000000
         C           -0.124242320236    -1.406566359522     0.644132537360    12.000000000000
         C           -0.498589320236     1.429764640478     0.576726537360    12.000000000000
         C            0.830631679764     0.842464640478     0.138955537360    12.000000000000
         C            2.151774679764    -1.149376359522    -0.327478462640    12.000000000000
         H           -2.710024320236    -0.307200359522     0.828246537360     1.007825032230
         H           -3.100971320236    -0.409743359522    -0.881183462640     1.007825032230
         H           -1.872276320236    -2.391261359522    -0.127042462640     1.007825032230
         H           -0.928824320236    -1.531168359522    -1.342483462640     1.007825032230
         H           -2.423579320236     1.852171640478    -0.290858462640     1.007825032230
         H           -1.264717320236     1.178407640478    -1.425347462640     1.007825032230
         H           -0.464547320236    -1.120657359522     1.647721537360     1.007825032230
         H            0.321904679764    -2.400743359522     0.743456537360     1.007825032230
         H           -0.761984320236     1.109439640478     1.592929537360     1.007825032230
         H           -0.331154320236     2.508867640478     0.604984537360     1.007825032230
         H            1.908505679764    -1.788484359522    -1.184058462640     1.007825032230
         H            2.636179679764    -1.759425359522     0.441956537360     1.007825032230
         H            2.827332679764    -0.357547359522    -0.645652462640     1.007825032230

  Basis Set: AUG-CC-PVTZ
    Blend: AUG-CC-PVTZ
  Basis Set: (AUG-CC-PVTZ AUX)
    Blend: AUG-CC-PVTZ-JKFIT
	 Reference Energy          =    -402.1007009617578092 [Eh]
	 Singles Energy            =      -0.0000000000000000 [Eh]
	 Same-Spin Energy          =      -0.4226373805919895 [Eh]
	 Opposite-Spin Energy      =      -1.4062911770983675 [Eh]
	 Correlation Energy        =      -1.8289285576903569 [Eh]
	 Total Energy              =    -403.9296295194481559 [Eh]

	 ================> DF-SCS-MP2 Energies <==================
	-----------------------------------------------------------
	 SCS Same-Spin Scale       =       0.3333333333333333 [-]
	 SCS Opposite-Spin Scale   =       1.2000000000000000 [-]
	 SCS Same-Spin Energy      =      -0.1408791268639965 [Eh]
	 SCS Opposite-Spin Energy  =      -1.6875494125180410 [Eh]
	 SCS Correlation Energy    =      -1.8284285393820374 [Eh]
	 SCS Total Energy          =    -403.9291295011398688 [Eh]
	-----------------------------------------------------------

  Dipole Moment: [D]
     X:    -2.6229      Y:    -3.1368      Z:     0.8065     Total:     4.1677

*** Psi4 exiting successfully. Buy a developer a beer!
