                               Psi4 1.4a3.dev225

  ==> Input File <==

--------------------------------------------------------------------------
#psi4
#
memory 32 gb

molecule  {
0 1
  O        1.7739800     1.6003060    -0.2911220
  N        0.9906540    -0.4920130     0.2058460
  C       -2.2286800    -0.2510300    -0.1765170
  C       -1.2730330    -1.4351160    -0.3152870
  C       -1.5989250     1.1242550    -0.3956020
  C       -0.0841310    -1.3759550     0.6456410
  C       -0.4584780     1.4603760     0.5782350
  C        0.8532267     0.8808154     0.1462329
  C        2.1918860    -1.1187650    -0.3259700
  H       -2.6699130    -0.2765890     0.8297550
  H       -3.0608600    -0.3791320    -0.8796750
  H       -1.8321650    -2.3606500    -0.1255340
  H       -0.8887130    -1.5005570    -1.3409750
  H       -2.3834680     1.8827830    -0.2893500
  H       -1.2246060     1.2090190    -1.4238390
  H       -0.4244360    -1.0900460     1.6492300
  H        0.3620160    -2.3701320     0.7449650
  H       -0.7218730     1.1400510     1.5944380
  H       -0.2910430     2.5394790     0.6064930
  H        1.9486170    -1.7578730    -1.1825500
  H        2.6762910    -1.7288140     0.4434650
  H        2.8674440    -0.3269360    -0.6441440
units angstrom
no_reorient  #important for SAPT in psi4, default
symmetry c1  #important for SAPT in psi4, default
}

set PROPERTIES_ORIGIN ["COM"]
properties('MP2/aug-cc-pvtz', properties = ['dipole'])
--------------------------------------------------------------------------

    Molecular point group: c1
  Charge       = 0
  Multiplicity = 1
  Basis Set: AUG-CC-PVTZ
    Blend: AUG-CC-PVTZ
  Basis Set: (AUG-CC-PVTZ AUX)
    Blend: AUG-CC-PVTZ-JKFIT

    Orbital Energies [Eh]
    ---------------------

    Doubly Occupied:

       1A    -20.505323     2A    -15.580162     3A    -11.341513
       4A    -11.271330     5A    -11.250267     6A    -11.235990
       7A    -11.234518     8A    -11.233297     9A    -11.232028
      10A     -1.356119    11A     -1.237827    12A     -1.098794
      13A     -1.040193    14A     -0.976457    15A     -0.912399
      16A     -0.879880    17A     -0.793169    18A     -0.724841
      19A     -0.691781    20A     -0.668693    21A     -0.632138
      22A     -0.608747    23A     -0.600787    24A     -0.594028
      25A     -0.584093    26A     -0.558153    27A     -0.545352
      28A     -0.526041    29A     -0.509035    30A     -0.507338
      31A     -0.479889    32A     -0.467763    33A     -0.464956
      34A     -0.409133    35A     -0.363359

  @DF-RHF Final Energy:  -402.11026954362620

   => Energetics <=

    Nuclear Repulsion Energy =            486.2453085161584454
    One-Electron Energy =               -1510.4803704157120592
    Two-Electron Energy =                 622.1247923559274113
    Total Energy =                       -402.1102695436261456
  Basis Set: (AUG-CC-PVTZ AUX)
    Blend: AUG-CC-PVTZ-RI
    Molecular point group: c1

    Geometry (in Angstrom), charge = 0, multiplicity = 1:

       Center              X                  Y                   Z               Mass
    ------------   -----------------  -----------------  -----------------  -----------------
         O            1.731632265606     1.560468347493    -0.291821768453    15.994914619570
         N            0.948306265606    -0.531850652507     0.205146231547    14.003074004430
         C           -2.271027734394    -0.290867652507    -0.177216768453    12.000000000000
         C           -1.315380734394    -1.474953652507    -0.315986768453    12.000000000000
         C           -1.641272734394     1.084417347493    -0.396301768453    12.000000000000
         C           -0.126478734394    -1.415792652507     0.644941231547    12.000000000000
         C           -0.500825734394     1.420538347493     0.577535231547    12.000000000000
         C            0.810878965606     0.840977747493     0.145533131547    12.000000000000
         C            2.149538265606    -1.158602652507    -0.326669768453    12.000000000000
         H           -2.712260734394    -0.316426652507     0.829055231547     1.007825032230
         H           -3.103207734394    -0.418969652507    -0.880374768453     1.007825032230
         H           -1.874512734394    -2.400487652507    -0.126233768453     1.007825032230
         H           -0.931060734394    -1.540394652507    -1.341674768453     1.007825032230
         H           -2.425815734394     1.842945347493    -0.290049768453     1.007825032230
         H           -1.266953734394     1.169181347493    -1.424538768453     1.007825032230
         H           -0.466783734394    -1.129883652507     1.648530231547     1.007825032230
         H            0.319668265606    -2.409969652507     0.744265231547     1.007825032230
         H           -0.764220734394     1.100213347493     1.593738231547     1.007825032230
         H           -0.333390734394     2.499641347493     0.605793231547     1.007825032230
         H            1.906269265606    -1.797710652507    -1.183249768453     1.007825032230
         H            2.633943265606    -1.768651652507     0.442765231547     1.007825032230
         H            2.825096265606    -0.366773652507    -0.644843768453     1.007825032230

  Basis Set: AUG-CC-PVTZ
    Blend: AUG-CC-PVTZ
  Basis Set: (AUG-CC-PVTZ AUX)
    Blend: AUG-CC-PVTZ-JKFIT
	 Reference Energy          =    -402.1102695436262024 [Eh]
	 Singles Energy            =      -0.0000000000000000 [Eh]
	 Same-Spin Energy          =      -0.4221705669050730 [Eh]
	 Opposite-Spin Energy      =      -1.4059040085934065 [Eh]
	 Correlation Energy        =      -1.8280745754984795 [Eh]
	 Total Energy              =    -403.9383441191246789 [Eh]

	 ================> DF-SCS-MP2 Energies <==================
	-----------------------------------------------------------
	 SCS Same-Spin Scale       =       0.3333333333333333 [-]
	 SCS Opposite-Spin Scale   =       1.2000000000000000 [-]
	 SCS Same-Spin Energy      =      -0.1407235223016910 [Eh]
	 SCS Opposite-Spin Energy  =      -1.6870848103120877 [Eh]
	 SCS Correlation Energy    =      -1.8278083326137786 [Eh]
	 SCS Total Energy          =    -403.9380778762399586 [Eh]
	-----------------------------------------------------------

  Dipole Moment: [D]
     X:    -2.6543      Y:    -3.0629      Z:     0.8098     Total:     4.1331

*** Psi4 exiting successfully. Buy a developer a beer!
