                               Psi4 1.3.2 release

  ==> Input File <==

--------------------------------------------------------------------------
#psi4
#
memory 32 gb

molecule  {
0 1
  O        1.8222073     1.5293597    -0.3010950
  N        0.9906540    -0.4920130     0.2058460
  C       -2.2286800    -0.2510300    -0.1765170
  C       -1.2730330    -1.4351160    -0.3152870
  C       -1.5989250     1.1242550    -0.3956020
  C       -0.0841310    -1.3759550     0.6456410
  C       -0.4584780     1.4603760     0.5782350
  C        0.8707430     0.8730760     0.1404640
  C        2.1918860    -1.1187650    -0.3259700
  H       -2.6699130    -0.2765890     0.8297550
  H       -3.0608600    -0.3791320    -0.8796750
  H       -1.8321650    -2.3606500    -0.1255340
  H       -0.8887130    -1.5005570    -1.3409750
  H       -2.3834680     1.8827830    -0.2893500
  H       -1.2246060     1.2090190    -1.4238390
  H       -0.4244360    -1.0900460     1.6492300
  H        0.3620160    -2.3701320     0.7449650
  H       -0.7218730     1.1400510     1.5944380
  H       -0.2910430     2.5394790     0.6064930
  H        1.9486170    -1.7578730    -1.1825500
  H        2.6762910    -1.7288140     0.4434650
  H        2.8674440    -0.3269360    -0.6441440
units angstrom
no_reorient  #important for SAPT in psi4, default
symmetry c1  #important for SAPT in psi4, default
}

set PROPERTIES_ORIGIN ["COM"]
properties('MP2/aug-cc-pvtz', properties = ['dipole'])
--------------------------------------------------------------------------

    Molecular point group: c1
  Charge       = 0
  Multiplicity = 1
  Basis Set: AUG-CC-PVTZ
    Blend: AUG-CC-PVTZ
  Basis Set: (AUG-CC-PVTZ AUX)
    Blend: AUG-CC-PVTZ-JKFIT

    Orbital Energies [Eh]
    ---------------------

    Doubly Occupied:

       1A    -20.504363     2A    -15.576513     3A    -11.340113
       4A    -11.270091     5A    -11.246886     6A    -11.238124
       7A    -11.236567     8A    -11.232859     9A    -11.232073
      10A     -1.363433    11A     -1.236337    12A     -1.098477
      13A     -1.039195    14A     -0.974847    15A     -0.912296
      16A     -0.878345    17A     -0.792989    18A     -0.723353
      19A     -0.691974    20A     -0.668788    21A     -0.632181
      22A     -0.607852    23A     -0.602278    24A     -0.594663
      25A     -0.583630    26A     -0.557624    27A     -0.544119
      28A     -0.524377    29A     -0.508939    30A     -0.508412
      31A     -0.479863    32A     -0.468777    33A     -0.466157
      34A     -0.408703    35A     -0.361796

  @DF-RHF Final Energy:  -402.11025996512376

   => Energetics <=

    Nuclear Repulsion Energy =            486.6620892279773329
    One-Electron Energy =               -1511.3307088573324108
    Two-Electron Energy =                 622.5583596642313751
    Total Energy =                       -402.1102599651237597
  Basis Set: (AUG-CC-PVTZ AUX)
    Blend: AUG-CC-PVTZ-RI
    Molecular point group: c1

    Geometry (in Angstrom), charge = 0, multiplicity = 1:

       Center              X                  Y                   Z               Mass
    ------------   -----------------  -----------------  -----------------  -----------------
         O            1.772136596651     1.499181021318    -0.299995046988    15.994914619570
         N            0.940583296651    -0.522191678682     0.206945953012    14.003074004430
         C           -2.278750703349    -0.281208678682    -0.175417046988    12.000000000000
         C           -1.323103703349    -1.465294678682    -0.314187046988    12.000000000000
         C           -1.648995703349     1.094076321318    -0.394502046988    12.000000000000
         C           -0.134201703349    -1.406133678682     0.646740953012    12.000000000000
         C           -0.508548703349     1.430197321318     0.579334953012    12.000000000000
         C            0.820672296651     0.842897321318     0.141563953012    12.000000000000
         C            2.141815296651    -1.148943678682    -0.324870046988    12.000000000000
         H           -2.719983703349    -0.306767678682     0.830854953012     1.007825032230
         H           -3.110930703349    -0.409310678682    -0.878575046988     1.007825032230
         H           -1.882235703349    -2.390828678682    -0.124434046988     1.007825032230
         H           -0.938783703349    -1.530735678682    -1.339875046988     1.007825032230
         H           -2.433538703349     1.852604321318    -0.288250046988     1.007825032230
         H           -1.274676703349     1.178840321318    -1.422739046988     1.007825032230
         H           -0.474506703349    -1.120224678682     1.650329953012     1.007825032230
         H            0.311945296651    -2.400310678682     0.746064953012     1.007825032230
         H           -0.771943703349     1.109872321318     1.595537953012     1.007825032230
         H           -0.341113703349     2.509300321318     0.607592953012     1.007825032230
         H            1.898546296651    -1.788051678682    -1.181450046988     1.007825032230
         H            2.626220296651    -1.758992678682     0.444564953012     1.007825032230
         H            2.817373296651    -0.357114678682    -0.643044046988     1.007825032230

  Basis Set: AUG-CC-PVTZ
    Blend: AUG-CC-PVTZ
  Basis Set: (AUG-CC-PVTZ AUX)
    Blend: AUG-CC-PVTZ-JKFIT
	 Reference Energy          =    -402.1102599651237597 [Eh]
	 Singles Energy            =      -0.0000000000000000 [Eh]
	 Same-Spin Energy          =      -0.4220276856458374 [Eh]
	 Opposite-Spin Energy      =      -1.4053989120886068 [Eh]
	 Correlation Energy        =      -1.8274265977344442 [Eh]
	 Total Energy              =    -403.9376865628581754 [Eh]

	 ================> DF-SCS-MP2 Energies <==================
	-----------------------------------------------------------
	 SCS Same-Spin Scale       =       0.3333333333333333 [-]
	 SCS Opposite-Spin Scale   =       1.2000000000000000 [-]
	 SCS Same-Spin Energy      =      -0.1406758952152791 [Eh]
	 SCS Opposite-Spin Energy  =      -1.6864786945063281 [Eh]
	 SCS Correlation Energy    =      -1.8271545897216073 [Eh]
	 SCS Total Energy          =    -403.9374145548453612 [Eh]
	-----------------------------------------------------------

  Dipole Moment: [D]
     X:    -2.7270      Y:    -2.8923      Z:     0.8203     Total:     4.0589

*** Psi4 exiting successfully. Buy a developer a beer!
