                               Psi4 1.3.2 release

  ==> Input File <==

--------------------------------------------------------------------------
#psi4
#
memory 32 gb

molecule  {
0 1
  O        1.7739800     1.6003060    -0.2911220
  N        0.9906540    -0.4920130     0.2058460
  C       -2.2286800    -0.2510300    -0.1765170
  C       -1.2564501    -1.4421346    -0.3350011
  C       -1.5989250     1.1242550    -0.3956020
  C       -0.0841310    -1.3759550     0.6456410
  C       -0.4584780     1.4603760     0.5782350
  C        0.8707430     0.8730760     0.1404640
  C        2.1918860    -1.1187650    -0.3259700
  H       -2.6699130    -0.2765890     0.8297550
  H       -3.0608600    -0.3791320    -0.8796750
  H       -1.8321650    -2.3606500    -0.1255340
  H       -0.8887130    -1.5005570    -1.3409750
  H       -2.3834680     1.8827830    -0.2893500
  H       -1.2246060     1.2090190    -1.4238390
  H       -0.4244360    -1.0900460     1.6492300
  H        0.3620160    -2.3701320     0.7449650
  H       -0.7218730     1.1400510     1.5944380
  H       -0.2910430     2.5394790     0.6064930
  H        1.9486170    -1.7578730    -1.1825500
  H        2.6762910    -1.7288140     0.4434650
  H        2.8674440    -0.3269360    -0.6441440
units angstrom
no_reorient  #important for SAPT in psi4, default
symmetry c1  #important for SAPT in psi4, default
}

set PROPERTIES_ORIGIN ["COM"]
properties('MP2/aug-cc-pvtz', properties = ['dipole'])
--------------------------------------------------------------------------

    Molecular point group: c1
  Charge       = 0
  Multiplicity = 1
  Basis Set: AUG-CC-PVTZ
    Blend: AUG-CC-PVTZ
  Basis Set: (AUG-CC-PVTZ AUX)
    Blend: AUG-CC-PVTZ-JKFIT

    Orbital Energies [Eh]
    ---------------------

    Doubly Occupied:

       1A    -20.505577     2A    -15.580341     3A    -11.339804
       4A    -11.272147     5A    -11.250561     6A    -11.234339
       7A    -11.233333     8A    -11.232695     9A    -11.232009
      10A     -1.361744    11A     -1.241180    12A     -1.095902
      13A     -1.037670    14A     -0.975163    15A     -0.913301
      16A     -0.878127    17A     -0.793802    18A     -0.725507
      19A     -0.690283    20A     -0.667985    21A     -0.633612
      22A     -0.607793    23A     -0.601973    24A     -0.593575
      25A     -0.582685    26A     -0.558410    27A     -0.544020
      28A     -0.527741    29A     -0.512562    30A     -0.508437
      31A     -0.482303    32A     -0.467180    33A     -0.461040
      34A     -0.407321    35A     -0.365044

  @DF-RHF Final Energy:  -402.11147662152712

   => Energetics <=

    Nuclear Repulsion Energy =            486.2108322499224755
    One-Electron Energy =               -1510.4142887745676944
    Two-Electron Energy =                 622.0919799031180446
    Total Energy =                       -402.1114766215271175
  Basis Set: (AUG-CC-PVTZ AUX)
    Blend: AUG-CC-PVTZ-RI
    Molecular point group: c1

    Geometry (in Angstrom), charge = 0, multiplicity = 1:

       Center              X                  Y                   Z               Mass
    ------------   -----------------  -----------------  -----------------  -----------------
         O            1.728412821699     1.561861710188    -0.289415814967    15.994914619570
         N            0.945086821699    -0.530457289812     0.207552185033    14.003074004430
         C           -2.274247178301    -0.289474289812    -0.174810814967    12.000000000000
         C           -1.302017278301    -1.480578889812    -0.333294914967    12.000000000000
         C           -1.644492178301     1.085810710188    -0.393895814967    12.000000000000
         C           -0.129698178301    -1.414399289812     0.647347185033    12.000000000000
         C           -0.504045178301     1.421931710188     0.579941185033    12.000000000000
         C            0.825175821699     0.834631710188     0.142170185033    12.000000000000
         C            2.146318821699    -1.157209289812    -0.324263814967    12.000000000000
         H           -2.715480178301    -0.315033289812     0.831461185033     1.007825032230
         H           -3.106427178301    -0.417576289812    -0.877968814967     1.007825032230
         H           -1.877732178301    -2.399094289812    -0.123827814967     1.007825032230
         H           -0.934280178301    -1.539001289812    -1.339268814967     1.007825032230
         H           -2.429035178301     1.844338710188    -0.287643814967     1.007825032230
         H           -1.270173178301     1.170574710188    -1.422132814967     1.007825032230
         H           -0.470003178301    -1.128490289812     1.650936185033     1.007825032230
         H            0.316448821699    -2.408576289812     0.746671185033     1.007825032230
         H           -0.767440178301     1.101606710188     1.596144185033     1.007825032230
         H           -0.336610178301     2.501034710188     0.608199185033     1.007825032230
         H            1.903049821699    -1.796317289812    -1.180843814967     1.007825032230
         H            2.630723821699    -1.767258289812     0.445171185033     1.007825032230
         H            2.821876821699    -0.365380289812    -0.642437814967     1.007825032230

  Basis Set: AUG-CC-PVTZ
    Blend: AUG-CC-PVTZ
  Basis Set: (AUG-CC-PVTZ AUX)
    Blend: AUG-CC-PVTZ-JKFIT
	 Reference Energy          =    -402.1114766215271175 [Eh]
	 Singles Energy            =      -0.0000000000000000 [Eh]
	 Same-Spin Energy          =      -0.4216819039542640 [Eh]
	 Opposite-Spin Energy      =      -1.4051527315147787 [Eh]
	 Correlation Energy        =      -1.8268346354690426 [Eh]
	 Total Energy              =    -403.9383112569961440 [Eh]

	 ================> DF-SCS-MP2 Energies <==================
	-----------------------------------------------------------
	 SCS Same-Spin Scale       =       0.3333333333333333 [-]
	 SCS Opposite-Spin Scale   =       1.2000000000000000 [-]
	 SCS Same-Spin Energy      =      -0.1405606346514213 [Eh]
	 SCS Opposite-Spin Energy  =      -1.6861832778177344 [Eh]
	 SCS Correlation Energy    =      -1.8267439124691558 [Eh]
	 SCS Total Energy          =    -403.9382205339962866 [Eh]
	-----------------------------------------------------------

  Dipole Moment: [D]
     X:    -2.5740      Y:    -3.1078      Z:     0.7890     Total:     4.1117

*** Psi4 exiting successfully. Buy a developer a beer!
