                               Psi4 1.3.2 release

  ==> Input File <==

--------------------------------------------------------------------------
#psi4
#
memory 32 gb

molecule  {
0 1
  O        1.7213522     1.6677093    -0.2790463
  N        0.9906540    -0.4920130     0.2058460
  C       -2.2286800    -0.2510300    -0.1765170
  C       -1.2730330    -1.4351160    -0.3152870
  C       -1.5989250     1.1242550    -0.3956020
  C       -0.0841310    -1.3759550     0.6456410
  C       -0.4584780     1.4603760     0.5782350
  C        0.8707430     0.8730760     0.1404640
  C        2.1918860    -1.1187650    -0.3259700
  H       -2.6699130    -0.2765890     0.8297550
  H       -3.0608600    -0.3791320    -0.8796750
  H       -1.8321650    -2.3606500    -0.1255340
  H       -0.8887130    -1.5005570    -1.3409750
  H       -2.3834680     1.8827830    -0.2893500
  H       -1.2246060     1.2090190    -1.4238390
  H       -0.4244360    -1.0900460     1.6492300
  H        0.3620160    -2.3701320     0.7449650
  H       -0.7218730     1.1400510     1.5944380
  H       -0.2910430     2.5394790     0.6064930
  H        1.9486170    -1.7578730    -1.1825500
  H        2.6762910    -1.7288140     0.4434650
  H        2.8674440    -0.3269360    -0.6441440
units angstrom
no_reorient  #important for SAPT in psi4, default
symmetry c1  #important for SAPT in psi4, default
}

set PROPERTIES_ORIGIN ["COM"]
properties('MP2/aug-cc-pvtz', properties = ['dipole'])
--------------------------------------------------------------------------

    Molecular point group: c1
  Charge       = 0
  Multiplicity = 1
  Basis Set: AUG-CC-PVTZ
    Blend: AUG-CC-PVTZ
  Basis Set: (AUG-CC-PVTZ AUX)
    Blend: AUG-CC-PVTZ-JKFIT

    Orbital Energies [Eh]
    ---------------------

    Doubly Occupied:

       1A    -20.506734     2A    -15.584538     3A    -11.339894
       4A    -11.274147     5A    -11.254011     6A    -11.233883
       7A    -11.232484     8A    -11.230742     9A    -11.228996
      10A     -1.360908    11A     -1.245734    12A     -1.096600
      13A     -1.036891    14A     -0.976353    15A     -0.915379
      16A     -0.877781    17A     -0.791945    18A     -0.727131
      19A     -0.689454    20A     -0.668848    21A     -0.634429
      22A     -0.608773    23A     -0.601633    24A     -0.594011
      25A     -0.582680    26A     -0.559231    27A     -0.544620
      28A     -0.529559    29A     -0.510666    30A     -0.509187
      31A     -0.478829    32A     -0.465922    33A     -0.464349
      34A     -0.404695    35A     -0.368243

  @DF-RHF Final Energy:  -402.11063773250481

   => Energetics <=

    Nuclear Repulsion Energy =            486.0593688992943839
    One-Electron Energy =               -1510.0814512815766193
    Two-Electron Energy =                 621.9114446497774225
    Total Energy =                       -402.1106377325047561
  Basis Set: (AUG-CC-PVTZ AUX)
    Blend: AUG-CC-PVTZ-RI
    Molecular point group: c1

    Geometry (in Angstrom), charge = 0, multiplicity = 1:

       Center              X                  Y                   Z               Mass
    ------------   -----------------  -----------------  -----------------  -----------------
         O            1.683973647263     1.620119960277    -0.280721074505    15.994914619570
         N            0.953275447263    -0.539602339723     0.204171225495    14.003074004430
         C           -2.266058552737    -0.298619339723    -0.178191774505    12.000000000000
         C           -1.310411552737    -1.482705339723    -0.316961774505    12.000000000000
         C           -1.636303552737     1.076665660277    -0.397276774505    12.000000000000
         C           -0.121509552737    -1.423544339723     0.643966225495    12.000000000000
         C           -0.495856552737     1.412786660277     0.576560225495    12.000000000000
         C            0.833364447263     0.825486660277     0.138789225495    12.000000000000
         C            2.154507447263    -1.166354339723    -0.327644774505    12.000000000000
         H           -2.707291552737    -0.324178339723     0.828080225495     1.007825032230
         H           -3.098238552737    -0.426721339723    -0.881349774505     1.007825032230
         H           -1.869543552737    -2.408239339723    -0.127208774505     1.007825032230
         H           -0.926091552737    -1.548146339723    -1.342649774505     1.007825032230
         H           -2.420846552737     1.835193660277    -0.291024774505     1.007825032230
         H           -1.261984552737     1.161429660277    -1.425513774505     1.007825032230
         H           -0.461814552737    -1.137635339723     1.647555225495     1.007825032230
         H            0.324637447263    -2.417721339723     0.743290225495     1.007825032230
         H           -0.759251552737     1.092461660277     1.592763225495     1.007825032230
         H           -0.328421552737     2.491889660277     0.604818225495     1.007825032230
         H            1.911238447263    -1.805462339723    -1.184224774505     1.007825032230
         H            2.638912447263    -1.776403339723     0.441790225495     1.007825032230
         H            2.830065447263    -0.374525339723    -0.645818774505     1.007825032230

  Basis Set: AUG-CC-PVTZ
    Blend: AUG-CC-PVTZ
  Basis Set: (AUG-CC-PVTZ AUX)
    Blend: AUG-CC-PVTZ-JKFIT
	 Reference Energy          =    -402.1106377325048129 [Eh]
	 Singles Energy            =      -0.0000000000000000 [Eh]
	 Same-Spin Energy          =      -0.4216741112481679 [Eh]
	 Opposite-Spin Energy      =      -1.4052754131429137 [Eh]
	 Correlation Energy        =      -1.8269495243910816 [Eh]
	 Total Energy              =    -403.9375872568958812 [Eh]

	 ================> DF-SCS-MP2 Energies <==================
	-----------------------------------------------------------
	 SCS Same-Spin Scale       =       0.3333333333333333 [-]
	 SCS Opposite-Spin Scale   =       1.2000000000000000 [-]
	 SCS Same-Spin Energy      =      -0.1405580370827226 [Eh]
	 SCS Opposite-Spin Energy  =      -1.6863304957714964 [Eh]
	 SCS Correlation Energy    =      -1.8268885328542190 [Eh]
	 SCS Total Energy          =    -403.9375262653590539 [Eh]
	-----------------------------------------------------------

  Dipole Moment: [D]
     X:    -2.4195      Y:    -3.3010      Z:     0.7613     Total:     4.1629

*** Psi4 exiting successfully. Buy a developer a beer!
