                               Psi4 1.3.2 release

  ==> Input File <==

--------------------------------------------------------------------------
#psi4
#
memory 32 gb

molecule  {
0 1
  O        1.7739800     1.6003060    -0.2911220
  N        0.9906540    -0.4920130     0.2058460
  C       -2.2286800    -0.2510300    -0.1765170
  C       -1.2730330    -1.4351160    -0.3152870
  C       -1.5989250     1.1242550    -0.3956020
  C       -0.0841310    -1.3759550     0.6456410
  C       -0.4584780     1.4603760     0.5782350
  C        0.8493471     0.8714958     0.1510956
  C        2.1918860    -1.1187650    -0.3259700
  H       -2.6699130    -0.2765890     0.8297550
  H       -3.0608600    -0.3791320    -0.8796750
  H       -1.8321650    -2.3606500    -0.1255340
  H       -0.8887130    -1.5005570    -1.3409750
  H       -2.3834680     1.8827830    -0.2893500
  H       -1.2246060     1.2090190    -1.4238390
  H       -0.4244360    -1.0900460     1.6492300
  H        0.3620160    -2.3701320     0.7449650
  H       -0.7218730     1.1400510     1.5944380
  H       -0.2910430     2.5394790     0.6064930
  H        1.9486170    -1.7578730    -1.1825500
  H        2.6762910    -1.7288140     0.4434650
  H        2.8674440    -0.3269360    -0.6441440
units angstrom
no_reorient  #important for SAPT in psi4, default
symmetry c1  #important for SAPT in psi4, default
}

set PROPERTIES_ORIGIN ["COM"]
properties('MP2/aug-cc-pvtz', properties = ['dipole'])
--------------------------------------------------------------------------

    Molecular point group: c1
  Charge       = 0
  Multiplicity = 1
  Basis Set: AUG-CC-PVTZ
    Blend: AUG-CC-PVTZ
  Basis Set: (AUG-CC-PVTZ AUX)
    Blend: AUG-CC-PVTZ-JKFIT

    Orbital Energies [Eh]
    ---------------------

    Doubly Occupied:

       1A    -20.502723     2A    -15.582234     3A    -11.341210
       4A    -11.272224     5A    -11.251229     6A    -11.236046
       7A    -11.234600     8A    -11.233955     9A    -11.232350
      10A     -1.350740    11A     -1.238901    12A     -1.099301
      13A     -1.040697    14A     -0.977505    15A     -0.914810
      16A     -0.880295    17A     -0.793744    18A     -0.725797
      19A     -0.691619    20A     -0.668865    21A     -0.632785
      22A     -0.609418    23A     -0.600140    24A     -0.594351
      25A     -0.583398    26A     -0.558394    27A     -0.544424
      28A     -0.526557    29A     -0.508717    30A     -0.506678
      31A     -0.480208    32A     -0.467919    33A     -0.464154
      34A     -0.407624    35A     -0.363896

  @DF-RHF Final Energy:  -402.10939426464387

   => Energetics <=

    Nuclear Repulsion Energy =            486.2977148471357509
    One-Electron Energy =               -1510.5792016526577299
    Two-Electron Energy =                 622.1720925408782250
    Total Energy =                       -402.1093942646438109
  Basis Set: (AUG-CC-PVTZ AUX)
    Blend: AUG-CC-PVTZ-RI
    Molecular point group: c1

    Geometry (in Angstrom), charge = 0, multiplicity = 1:

       Center              X                  Y                   Z               Mass
    ------------   -----------------  -----------------  -----------------  -----------------
         O            1.731998554393     1.561348248765    -0.292280875701    15.994914619570
         N            0.948672554393    -0.530970751235     0.204687124299    14.003074004430
         C           -2.270661445607    -0.289987751235    -0.177675875701    12.000000000000
         C           -1.315014445607    -1.474073751235    -0.316445875701    12.000000000000
         C           -1.640906445607     1.085297248765    -0.396760875701    12.000000000000
         C           -0.126112445607    -1.414912751235     0.644482124299    12.000000000000
         C           -0.500459445607     1.421418248765     0.577076124299    12.000000000000
         C            0.807365654393     0.832538048765     0.149936724299    12.000000000000
         C            2.149904554393    -1.157722751235    -0.327128875701    12.000000000000
         H           -2.711894445607    -0.315546751235     0.828596124299     1.007825032230
         H           -3.102841445607    -0.418089751235    -0.880833875701     1.007825032230
         H           -1.874146445607    -2.399607751235    -0.126692875701     1.007825032230
         H           -0.930694445607    -1.539514751235    -1.342133875701     1.007825032230
         H           -2.425449445607     1.843825248765    -0.290508875701     1.007825032230
         H           -1.266587445607     1.170061248765    -1.424997875701     1.007825032230
         H           -0.466417445607    -1.129003751235     1.648071124299     1.007825032230
         H            0.320034554393    -2.409089751235     0.743806124299     1.007825032230
         H           -0.763854445607     1.101093248765     1.593279124299     1.007825032230
         H           -0.333024445607     2.500521248765     0.605334124299     1.007825032230
         H            1.906635554393    -1.796830751235    -1.183708875701     1.007825032230
         H            2.634309554393    -1.767771751235     0.442306124299     1.007825032230
         H            2.825462554393    -0.365893751235    -0.645302875701     1.007825032230

  Basis Set: AUG-CC-PVTZ
    Blend: AUG-CC-PVTZ
  Basis Set: (AUG-CC-PVTZ AUX)
    Blend: AUG-CC-PVTZ-JKFIT
	 Reference Energy          =    -402.1093942646438677 [Eh]
	 Singles Energy            =      -0.0000000000000000 [Eh]
	 Same-Spin Energy          =      -0.4223420437968123 [Eh]
	 Opposite-Spin Energy      =      -1.4062450096961290 [Eh]
	 Correlation Energy        =      -1.8285870534929414 [Eh]
	 Total Energy              =    -403.9379813181367922 [Eh]

	 ================> DF-SCS-MP2 Energies <==================
	-----------------------------------------------------------
	 SCS Same-Spin Scale       =       0.3333333333333333 [-]
	 SCS Opposite-Spin Scale   =       1.2000000000000000 [-]
	 SCS Same-Spin Energy      =      -0.1407806812656041 [Eh]
	 SCS Opposite-Spin Energy  =      -1.6874940116353547 [Eh]
	 SCS Correlation Energy    =      -1.8282746929009588 [Eh]
	 SCS Total Energy          =    -403.9376689575448154 [Eh]
	-----------------------------------------------------------

  Dipole Moment: [D]
     X:    -2.6850      Y:    -3.1563      Z:     0.8258     Total:     4.2253

*** Psi4 exiting successfully. Buy a developer a beer!
