                               Psi4 1.3.2 release

  ==> Input File <==

--------------------------------------------------------------------------
#psi4
#
memory 32 gb

molecule  {
0 1
  O        1.7739800     1.6003060    -0.2911220
  N        0.9906540    -0.4920130     0.2058460
  C       -2.2286800    -0.2510300    -0.1765170
  C       -1.2730330    -1.4351160    -0.3152870
  C       -1.5989250     1.1242550    -0.3956020
  C       -0.0841310    -1.3759550     0.6456410
  C       -0.4584780     1.4603760     0.5782350
  C        0.8707430     0.8730760     0.1404640
  C        2.1918860    -1.1187650    -0.3259700
  H       -2.6872439    -0.2790480     0.8219104
  H       -3.0608600    -0.3791320    -0.8796750
  H       -1.8321650    -2.3606500    -0.1255340
  H       -0.8887130    -1.5005570    -1.3409750
  H       -2.3834680     1.8827830    -0.2893500
  H       -1.2246060     1.2090190    -1.4238390
  H       -0.4244360    -1.0900460     1.6492300
  H        0.3620160    -2.3701320     0.7449650
  H       -0.7218730     1.1400510     1.5944380
  H       -0.2910430     2.5394790     0.6064930
  H        1.9486170    -1.7578730    -1.1825500
  H        2.6762910    -1.7288140     0.4434650
  H        2.8674440    -0.3269360    -0.6441440
units angstrom
no_reorient  #important for SAPT in psi4, default
symmetry c1  #important for SAPT in psi4, default
}

set PROPERTIES_ORIGIN ["COM"]
properties('MP2/aug-cc-pvtz', properties = ['dipole'])
--------------------------------------------------------------------------

    Molecular point group: c1
  Charge       = 0
  Multiplicity = 1
  Basis Set: AUG-CC-PVTZ
    Blend: AUG-CC-PVTZ
  Basis Set: (AUG-CC-PVTZ AUX)
    Blend: AUG-CC-PVTZ-JKFIT

    Orbital Energies [Eh]
    ---------------------

    Doubly Occupied:

       1A    -20.505697     2A    -15.580564     3A    -11.339917
       4A    -11.272178     5A    -11.250584     6A    -11.234750
       7A    -11.233492     8A    -11.233467     9A    -11.231430
      10A     -1.361837    11A     -1.241181    12A     -1.097424
      13A     -1.038122    14A     -0.975633    15A     -0.913956
      16A     -0.878167    17A     -0.792745    18A     -0.725258
      19A     -0.690471    20A     -0.668878    21A     -0.633085
      22A     -0.608160    23A     -0.602020    24A     -0.594092
      25A     -0.583160    26A     -0.558375    27A     -0.544434
      28A     -0.527103    29A     -0.509785    30A     -0.508786
      31A     -0.479946    32A     -0.467178    33A     -0.465270
      34A     -0.407441    35A     -0.365090

  @DF-RHF Final Energy:  -402.11204597689209

   => Energetics <=

    Nuclear Repulsion Energy =            486.2669368446848353
    One-Electron Energy =               -1510.5186092598382857
    Two-Electron Energy =                 622.1396264382614163
    Total Energy =                       -402.1120459768920909
  Basis Set: (AUG-CC-PVTZ AUX)
    Blend: AUG-CC-PVTZ-RI
    Molecular point group: c1

    Geometry (in Angstrom), charge = 0, multiplicity = 1:

       Center              X                  Y                   Z               Mass
    ------------   -----------------  -----------------  -----------------  -----------------
         O            1.730115904326     1.561218554073    -0.291214900177    15.994914619570
         N            0.946789904326    -0.531100445927     0.205753099823    14.003074004430
         C           -2.272544095674    -0.290117445927    -0.176609900177    12.000000000000
         C           -1.316897095674    -1.474203445927    -0.315379900177    12.000000000000
         C           -1.642789095674     1.085167554073    -0.395694900177    12.000000000000
         C           -0.127995095674    -1.415042445927     0.645548099823    12.000000000000
         C           -0.502342095674     1.421288554073     0.578142099823    12.000000000000
         C            0.826878904326     0.833988554073     0.140371099823    12.000000000000
         C            2.148021904326    -1.157852445927    -0.326062900177    12.000000000000
         H           -2.731107995674    -0.318135445927     0.821817499823     1.007825032230
         H           -3.104724095674    -0.418219445927    -0.879767900177     1.007825032230
         H           -1.876029095674    -2.399737445927    -0.125626900177     1.007825032230
         H           -0.932577095674    -1.539644445927    -1.341067900177     1.007825032230
         H           -2.427332095674     1.843695554073    -0.289442900177     1.007825032230
         H           -1.268470095674     1.169931554073    -1.423931900177     1.007825032230
         H           -0.468300095674    -1.129133445927     1.649137099823     1.007825032230
         H            0.318151904326    -2.409219445927     0.744872099823     1.007825032230
         H           -0.765737095674     1.100963554073     1.594345099823     1.007825032230
         H           -0.334907095674     2.500391554073     0.606400099823     1.007825032230
         H            1.904752904326    -1.796960445927    -1.182642900177     1.007825032230
         H            2.632426904326    -1.767901445927     0.443372099823     1.007825032230
         H            2.823579904326    -0.366023445927    -0.644236900177     1.007825032230

  Basis Set: AUG-CC-PVTZ
    Blend: AUG-CC-PVTZ
  Basis Set: (AUG-CC-PVTZ AUX)
    Blend: AUG-CC-PVTZ-JKFIT
	 Reference Energy          =    -402.1120459768920909 [Eh]
	 Singles Energy            =      -0.0000000000000000 [Eh]
	 Same-Spin Energy          =      -0.4217653977705897 [Eh]
	 Opposite-Spin Energy      =      -1.4051794055719147 [Eh]
	 Correlation Energy        =      -1.8269448033425044 [Eh]
	 Total Energy              =    -403.9389907802345761 [Eh]

	 ================> DF-SCS-MP2 Energies <==================
	-----------------------------------------------------------
	 SCS Same-Spin Scale       =       0.3333333333333333 [-]
	 SCS Opposite-Spin Scale   =       1.2000000000000000 [-]
	 SCS Same-Spin Energy      =      -0.1405884659235299 [Eh]
	 SCS Opposite-Spin Energy  =      -1.6862152866862976 [Eh]
	 SCS Correlation Energy    =      -1.8268037526098275 [Eh]
	 SCS Total Energy          =    -403.9388497295018965 [Eh]
	-----------------------------------------------------------

  Dipole Moment: [D]
     X:    -2.5854      Y:    -3.1046      Z:     0.7942     Total:     4.1175

*** Psi4 exiting successfully. Buy a developer a beer!
