                               Psi4 1.3.2 release

  ==> Input File <==

--------------------------------------------------------------------------
#psi4
#
memory 32 gb

molecule  {
0 1
  O        1.7739800     1.6003060    -0.2911220
  N        0.9906540    -0.4920130     0.2058460
  C       -2.2286800    -0.2510300    -0.1765170
  C       -1.2730330    -1.4351160    -0.3152870
  C       -1.5989250     1.1242550    -0.3956020
  C       -0.0532608    -1.4157705     0.6381075
  C       -0.4584780     1.4603760     0.5782350
  C        0.8707430     0.8730760     0.1404640
  C        2.1918860    -1.1187650    -0.3259700
  H       -2.6699130    -0.2765890     0.8297550
  H       -3.0608600    -0.3791320    -0.8796750
  H       -1.8321650    -2.3606500    -0.1255340
  H       -0.8887130    -1.5005570    -1.3409750
  H       -2.3834680     1.8827830    -0.2893500
  H       -1.2246060     1.2090190    -1.4238390
  H       -0.4244360    -1.0900460     1.6492300
  H        0.3620160    -2.3701320     0.7449650
  H       -0.7218730     1.1400510     1.5944380
  H       -0.2910430     2.5394790     0.6064930
  H        1.9486170    -1.7578730    -1.1825500
  H        2.6762910    -1.7288140     0.4434650
  H        2.8674440    -0.3269360    -0.6441440
units angstrom
no_reorient  #important for SAPT in psi4, default
symmetry c1  #important for SAPT in psi4, default
}

set PROPERTIES_ORIGIN ["COM"]
properties('MP2/aug-cc-pvtz', properties = ['dipole'])
--------------------------------------------------------------------------

    Molecular point group: c1
  Charge       = 0
  Multiplicity = 1
  Basis Set: AUG-CC-PVTZ
    Blend: AUG-CC-PVTZ
  Basis Set: (AUG-CC-PVTZ AUX)
    Blend: AUG-CC-PVTZ-JKFIT

    Orbital Energies [Eh]
    ---------------------

    Doubly Occupied:

       1A    -20.506204     2A    -15.580642     3A    -11.341111
       4A    -11.272099     5A    -11.249966     6A    -11.234605
       7A    -11.234170     8A    -11.233462     9A    -11.232242
      10A     -1.362179    11A     -1.241267    12A     -1.096302
      13A     -1.037331    14A     -0.974637    15A     -0.916628
      16A     -0.878678    17A     -0.791985    18A     -0.724166
      19A     -0.690011    20A     -0.671926    21A     -0.632648
      22A     -0.609109    23A     -0.601979    24A     -0.597172
      25A     -0.586152    26A     -0.555782    27A     -0.544407
      28A     -0.525497    29A     -0.510440    30A     -0.505985
      31A     -0.478817    32A     -0.469037    33A     -0.466135
      34A     -0.408222    35A     -0.363384

  @DF-RHF Final Energy:  -402.10912909939822

   => Energetics <=

    Nuclear Repulsion Energy =            485.8509019327216834
    One-Electron Energy =               -1509.6713077607942068
    Two-Electron Energy =                 621.7112767286743065
    Total Energy =                       -402.1091290993982739
  Basis Set: (AUG-CC-PVTZ AUX)
    Blend: AUG-CC-PVTZ-RI
    Molecular point group: c1

    Geometry (in Angstrom), charge = 0, multiplicity = 1:

       Center              X                  Y                   Z               Mass
    ------------   -----------------  -----------------  -----------------  -----------------
         O            1.727063899703     1.564958198665    -0.290565834864    15.994914619570
         N            0.943737899703    -0.527360801335     0.206402165136    14.003074004430
         C           -2.275596100297    -0.286377801335    -0.175960834864    12.000000000000
         C           -1.319949100297    -1.470463801335    -0.314730834864    12.000000000000
         C           -1.645841100297     1.088907198665    -0.395045834864    12.000000000000
         C           -0.100176900297    -1.451118301335     0.638663665136    12.000000000000
         C           -0.505394100297     1.425028198665     0.578791165136    12.000000000000
         C            0.823826899703     0.837728198665     0.141020165136    12.000000000000
         C            2.144969899703    -1.154112801335    -0.325413834864    12.000000000000
         H           -2.716829100297    -0.311936801335     0.830311165136     1.007825032230
         H           -3.107776100297    -0.414479801335    -0.879118834864     1.007825032230
         H           -1.879081100297    -2.395997801335    -0.124977834864     1.007825032230
         H           -0.935629100297    -1.535904801335    -1.340418834864     1.007825032230
         H           -2.430384100297     1.847435198665    -0.288793834864     1.007825032230
         H           -1.271522100297     1.173671198665    -1.423282834864     1.007825032230
         H           -0.471352100297    -1.125393801335     1.649786165136     1.007825032230
         H            0.315099899703    -2.405479801335     0.745521165136     1.007825032230
         H           -0.768789100297     1.104703198665     1.594994165136     1.007825032230
         H           -0.337959100297     2.504131198665     0.607049165136     1.007825032230
         H            1.901700899703    -1.793220801335    -1.181993834864     1.007825032230
         H            2.629374899703    -1.764161801335     0.444021165136     1.007825032230
         H            2.820527899703    -0.362283801335    -0.643587834864     1.007825032230

  Basis Set: AUG-CC-PVTZ
    Blend: AUG-CC-PVTZ
  Basis Set: (AUG-CC-PVTZ AUX)
    Blend: AUG-CC-PVTZ-JKFIT
	 Reference Energy          =    -402.1091290993982170 [Eh]
	 Singles Energy            =      -0.0000000000000000 [Eh]
	 Same-Spin Energy          =      -0.4216779946424517 [Eh]
	 Opposite-Spin Energy      =      -1.4051848491221446 [Eh]
	 Correlation Energy        =      -1.8268628437645962 [Eh]
	 Total Energy              =    -403.9359919431628327 [Eh]

	 ================> DF-SCS-MP2 Energies <==================
	-----------------------------------------------------------
	 SCS Same-Spin Scale       =       0.3333333333333333 [-]
	 SCS Opposite-Spin Scale   =       1.2000000000000000 [-]
	 SCS Same-Spin Energy      =      -0.1405593315474839 [Eh]
	 SCS Opposite-Spin Energy  =      -1.6862218189465734 [Eh]
	 SCS Correlation Energy    =      -1.8267811504940572 [Eh]
	 SCS Total Energy          =    -403.9359102498922880 [Eh]
	-----------------------------------------------------------

  Dipole Moment: [D]
     X:    -2.5675      Y:    -3.1194      Z:     0.7884     Total:     4.1163

*** Psi4 exiting successfully. Buy a developer a beer!
