                               Psi4 1.3.2 release

  ==> Input File <==

--------------------------------------------------------------------------
#psi4
#
memory 32 gb

molecule  {
0 1
  O        1.7739800     1.6003060    -0.2911220
  N        0.9906540    -0.4920130     0.2058460
  C       -2.2286800    -0.2510300    -0.1765170
  C       -1.2931935    -1.4517184    -0.3098973
  C       -1.5989250     1.1242550    -0.3956020
  C       -0.0841310    -1.3759550     0.6456410
  C       -0.4584780     1.4603760     0.5782350
  C        0.8707430     0.8730760     0.1404640
  C        2.1918860    -1.1187650    -0.3259700
  H       -2.6699130    -0.2765890     0.8297550
  H       -3.0608600    -0.3791320    -0.8796750
  H       -1.8321650    -2.3606500    -0.1255340
  H       -0.8887130    -1.5005570    -1.3409750
  H       -2.3834680     1.8827830    -0.2893500
  H       -1.2246060     1.2090190    -1.4238390
  H       -0.4244360    -1.0900460     1.6492300
  H        0.3620160    -2.3701320     0.7449650
  H       -0.7218730     1.1400510     1.5944380
  H       -0.2910430     2.5394790     0.6064930
  H        1.9486170    -1.7578730    -1.1825500
  H        2.6762910    -1.7288140     0.4434650
  H        2.8674440    -0.3269360    -0.6441440
units angstrom
no_reorient  #important for SAPT in psi4, default
symmetry c1  #important for SAPT in psi4, default
}

set PROPERTIES_ORIGIN ["COM"]
properties('MP2/aug-cc-pvtz', properties = ['dipole'])
--------------------------------------------------------------------------

    Molecular point group: c1
  Charge       = 0
  Multiplicity = 1
  Basis Set: AUG-CC-PVTZ
    Blend: AUG-CC-PVTZ
  Basis Set: (AUG-CC-PVTZ AUX)
    Blend: AUG-CC-PVTZ-JKFIT

    Orbital Energies [Eh]
    ---------------------

    Doubly Occupied:

       1A    -20.505857     2A    -15.581076     3A    -11.340038
       4A    -11.272462     5A    -11.250602     6A    -11.235162
       7A    -11.233572     8A    -11.232974     9A    -11.231334
      10A     -1.361940    11A     -1.240813    12A     -1.097112
      13A     -1.037575    14A     -0.975130    15A     -0.913677
      16A     -0.879374    17A     -0.792328    18A     -0.724760
      19A     -0.690850    20A     -0.668901    21A     -0.632864
      22A     -0.607247    23A     -0.602606    24A     -0.595562
      25A     -0.583634    26A     -0.558424    27A     -0.544272
      28A     -0.527292    29A     -0.509665    30A     -0.507660
      31A     -0.477968    32A     -0.469822    33A     -0.464921
      34A     -0.407575    35A     -0.364943

  @DF-RHF Final Energy:  -402.11147006489716

   => Energetics <=

    Nuclear Repulsion Energy =            485.9315327574308299
    One-Electron Energy =               -1509.8460245264216155
    Two-Electron Energy =                 621.8030217040935668
    Total Energy =                       -402.1114700648971620
  Basis Set: (AUG-CC-PVTZ AUX)
    Blend: AUG-CC-PVTZ-RI
    Molecular point group: c1

    Geometry (in Angstrom), charge = 0, multiplicity = 1:

       Center              X                  Y                   Z               Mass
    ------------   -----------------  -----------------  -----------------  -----------------
         O            1.731881915263     1.562766555654    -0.291785966641    15.994914619570
         N            0.948555915263    -0.529552444346     0.205182033359    14.003074004430
         C           -2.270778084737    -0.288569444346    -0.177180966641    12.000000000000
         C           -1.335291584737    -1.489257844346    -0.310561266641    12.000000000000
         C           -1.641023084737     1.086715555654    -0.396265966641    12.000000000000
         C           -0.126229084737    -1.413494444346     0.644977033359    12.000000000000
         C           -0.500576084737     1.422836555654     0.577571033359    12.000000000000
         C            0.828644915263     0.835536555654     0.139800033359    12.000000000000
         C            2.149787915263    -1.156304444346    -0.326633966641    12.000000000000
         H           -2.712011084737    -0.314128444346     0.829091033359     1.007825032230
         H           -3.102958084737    -0.416671444346    -0.880338966641     1.007825032230
         H           -1.874263084737    -2.398189444346    -0.126197966641     1.007825032230
         H           -0.930811084737    -1.538096444346    -1.341638966641     1.007825032230
         H           -2.425566084737     1.845243555654    -0.290013966641     1.007825032230
         H           -1.266704084737     1.171479555654    -1.424502966641     1.007825032230
         H           -0.466534084737    -1.127585444346     1.648566033359     1.007825032230
         H            0.319917915263    -2.407671444346     0.744301033359     1.007825032230
         H           -0.763971084737     1.102511555654     1.593774033359     1.007825032230
         H           -0.333141084737     2.501939555654     0.605829033359     1.007825032230
         H            1.906518915263    -1.795412444346    -1.183213966641     1.007825032230
         H            2.634192915263    -1.766353444346     0.442801033359     1.007825032230
         H            2.825345915263    -0.364475444346    -0.644807966641     1.007825032230

  Basis Set: AUG-CC-PVTZ
    Blend: AUG-CC-PVTZ
  Basis Set: (AUG-CC-PVTZ AUX)
    Blend: AUG-CC-PVTZ-JKFIT
	 Reference Energy          =    -402.1114700648971620 [Eh]
	 Singles Energy            =      -0.0000000000000000 [Eh]
	 Same-Spin Energy          =      -0.4216985624169884 [Eh]
	 Opposite-Spin Energy      =      -1.4051431214302632 [Eh]
	 Correlation Energy        =      -1.8268416838472517 [Eh]
	 Total Energy              =    -403.9383117487444110 [Eh]

	 ================> DF-SCS-MP2 Energies <==================
	-----------------------------------------------------------
	 SCS Same-Spin Scale       =       0.3333333333333333 [-]
	 SCS Opposite-Spin Scale   =       1.2000000000000000 [-]
	 SCS Same-Spin Energy      =      -0.1405661874723295 [Eh]
	 SCS Opposite-Spin Energy  =      -1.6861717457163159 [Eh]
	 SCS Correlation Energy    =      -1.8267379331886453 [Eh]
	 SCS Total Energy          =    -403.9382079980858293 [Eh]
	-----------------------------------------------------------

  Dipole Moment: [D]
     X:    -2.5819      Y:    -3.1027      Z:     0.7943     Total:     4.1139

*** Psi4 exiting successfully. Buy a developer a beer!
