                               Psi4 1.3.2 release

  ==> Input File <==

--------------------------------------------------------------------------
#psi4
#
memory 32 gb

molecule  {
0 1
  O        1.7739800     1.6003060    -0.2911220
  N        0.9937360    -0.5732947     0.0765409
  C       -2.2286800    -0.2510300    -0.1765170
  C       -1.2730330    -1.4351160    -0.3152870
  C       -1.5989250     1.1242550    -0.3956020
  C       -0.0841310    -1.3759550     0.6456410
  C       -0.4584780     1.4603760     0.5782350
  C        0.8707430     0.8730760     0.1404640
  C        2.1918860    -1.1187650    -0.3259700
  H       -2.6699130    -0.2765890     0.8297550
  H       -3.0608600    -0.3791320    -0.8796750
  H       -1.8321650    -2.3606500    -0.1255340
  H       -0.8887130    -1.5005570    -1.3409750
  H       -2.3834680     1.8827830    -0.2893500
  H       -1.2246060     1.2090190    -1.4238390
  H       -0.4244360    -1.0900460     1.6492300
  H        0.3620160    -2.3701320     0.7449650
  H       -0.7218730     1.1400510     1.5944380
  H       -0.2910430     2.5394790     0.6064930
  H        1.9486170    -1.7578730    -1.1825500
  H        2.6762910    -1.7288140     0.4434650
  H        2.8674440    -0.3269360    -0.6441440
units angstrom
no_reorient  #important for SAPT in psi4, default
symmetry c1  #important for SAPT in psi4, default
}

set PROPERTIES_ORIGIN ["COM"]
properties('MP2/aug-cc-pvtz', properties = ['dipole'])
--------------------------------------------------------------------------

    Molecular point group: c1
  Charge       = 0
  Multiplicity = 1
  Basis Set: AUG-CC-PVTZ
    Blend: AUG-CC-PVTZ
  Basis Set: (AUG-CC-PVTZ AUX)
    Blend: AUG-CC-PVTZ-JKFIT

    Orbital Energies [Eh]
    ---------------------

    Doubly Occupied:

       1A    -20.518915     2A    -15.573390     3A    -11.350858
       4A    -11.269204     5A    -11.240386     6A    -11.240118
       7A    -11.236598     8A    -11.231359     9A    -11.229429
      10A     -1.365545    11A     -1.243130    12A     -1.100581
      13A     -1.036369    14A     -0.980441    15A     -0.896153
      16A     -0.876431    17A     -0.790715    18A     -0.730265
      19A     -0.693086    20A     -0.668998    21A     -0.634364
      22A     -0.611205    23A     -0.603949    24A     -0.595581
      25A     -0.583424    26A     -0.562764    27A     -0.551429
      28A     -0.518807    29A     -0.510560    30A     -0.501696
      31A     -0.479369    32A     -0.470078    33A     -0.464684
      34A     -0.413734    35A     -0.355401

  @DF-RHF Final Energy:  -402.09551972045682

   => Energetics <=

    Nuclear Repulsion Energy =            485.9551890521842097
    One-Electron Energy =               -1509.8433792567589080
    Two-Electron Energy =                 621.7926704841178207
    Total Energy =                       -402.0955197204568776
  Basis Set: (AUG-CC-PVTZ AUX)
    Blend: AUG-CC-PVTZ-RI
    Molecular point group: c1

    Geometry (in Angstrom), charge = 0, multiplicity = 1:

       Center              X                  Y                   Z               Mass
    ------------   -----------------  -----------------  -----------------  -----------------
         O            1.729638924583     1.570154179358    -0.277031053158    15.994914619570
         N            0.949394924583    -0.603446520642     0.090631846842    14.003074004430
         C           -2.273021075417    -0.281181820642    -0.162426053158    12.000000000000
         C           -1.317374075417    -1.465267820642    -0.301196053158    12.000000000000
         C           -1.643266075417     1.094103179358    -0.381511053158    12.000000000000
         C           -0.128472075417    -1.406106820642     0.659731946842    12.000000000000
         C           -0.502819075417     1.430224179358     0.592325946842    12.000000000000
         C            0.826401924583     0.842924179358     0.154554946842    12.000000000000
         C            2.147544924583    -1.148916820642    -0.311879053158    12.000000000000
         H           -2.714254075417    -0.306740820642     0.843845946842     1.007825032230
         H           -3.105201075417    -0.409283820642    -0.865584053158     1.007825032230
         H           -1.876506075417    -2.390801820642    -0.111443053158     1.007825032230
         H           -0.933054075417    -1.530708820642    -1.326884053158     1.007825032230
         H           -2.427809075417     1.852631179358    -0.275259053158     1.007825032230
         H           -1.268947075417     1.178867179358    -1.409748053158     1.007825032230
         H           -0.468777075417    -1.120197820642     1.663320946842     1.007825032230
         H            0.317674924583    -2.400283820642     0.759055946842     1.007825032230
         H           -0.766214075417     1.109899179358     1.608528946842     1.007825032230
         H           -0.335384075417     2.509327179358     0.620583946842     1.007825032230
         H            1.904275924583    -1.788024820642    -1.168459053158     1.007825032230
         H            2.631949924583    -1.758965820642     0.457555946842     1.007825032230
         H            2.823102924583    -0.357087820642    -0.630053053158     1.007825032230

  Basis Set: AUG-CC-PVTZ
    Blend: AUG-CC-PVTZ
  Basis Set: (AUG-CC-PVTZ AUX)
    Blend: AUG-CC-PVTZ-JKFIT
	 Reference Energy          =    -402.0955197204568208 [Eh]
	 Singles Energy            =      -0.0000000000000000 [Eh]
	 Same-Spin Energy          =      -0.4229138119283271 [Eh]
	 Opposite-Spin Energy      =      -1.4070758152036742 [Eh]
	 Correlation Energy        =      -1.8299896271320013 [Eh]
	 Total Energy              =    -403.9255093475888430 [Eh]

	 ================> DF-SCS-MP2 Energies <==================
	-----------------------------------------------------------
	 SCS Same-Spin Scale       =       0.3333333333333333 [-]
	 SCS Opposite-Spin Scale   =       1.2000000000000000 [-]
	 SCS Same-Spin Energy      =      -0.1409712706427757 [Eh]
	 SCS Opposite-Spin Energy  =      -1.6884909782444091 [Eh]
	 SCS Correlation Energy    =      -1.8294622488871848 [Eh]
	 SCS Total Energy          =    -403.9249819693440031 [Eh]
	-----------------------------------------------------------

  Dipole Moment: [D]
     X:    -2.6066      Y:    -2.5557      Z:     0.9597     Total:     3.7745

*** Psi4 exiting successfully. Buy a developer a beer!
