                               Psi4 1.3.2 release

  ==> Input File <==

--------------------------------------------------------------------------
#psi4
#
memory 32 gb

molecule  {
0 1
  O        1.7739800     1.6003060    -0.2911220
  N        0.9906540    -0.4920130     0.2058460
  C       -2.2286800    -0.2510300    -0.1765170
  C       -1.3647565    -1.3927014    -0.1910719
  C       -1.5989250     1.1242550    -0.3956020
  C       -0.0841310    -1.3759550     0.6456410
  C       -0.4584780     1.4603760     0.5782350
  C        0.8707430     0.8730760     0.1404640
  C        2.1918860    -1.1187650    -0.3259700
  H       -2.6699130    -0.2765890     0.8297550
  H       -3.0608600    -0.3791320    -0.8796750
  H       -1.8321650    -2.3606500    -0.1255340
  H       -0.8887130    -1.5005570    -1.3409750
  H       -2.3834680     1.8827830    -0.2893500
  H       -1.2246060     1.2090190    -1.4238390
  H       -0.4244360    -1.0900460     1.6492300
  H        0.3620160    -2.3701320     0.7449650
  H       -0.7218730     1.1400510     1.5944380
  H       -0.2910430     2.5394790     0.6064930
  H        1.9486170    -1.7578730    -1.1825500
  H        2.6762910    -1.7288140     0.4434650
  H        2.8674440    -0.3269360    -0.6441440
units angstrom
no_reorient  #important for SAPT in psi4, default
symmetry c1  #important for SAPT in psi4, default
}

set PROPERTIES_ORIGIN ["COM"]
properties('MP2/aug-cc-pvtz', properties = ['dipole'])
--------------------------------------------------------------------------

    Molecular point group: c1
  Charge       = 0
  Multiplicity = 1
  Basis Set: AUG-CC-PVTZ
    Blend: AUG-CC-PVTZ
  Basis Set: (AUG-CC-PVTZ AUX)
    Blend: AUG-CC-PVTZ-JKFIT

    Orbital Energies [Eh]
    ---------------------

    Doubly Occupied:

       1A    -20.506681     2A    -15.582257     3A    -11.340953
       4A    -11.274869     5A    -11.250852     6A    -11.242291
       7A    -11.237263     8A    -11.234939     9A    -11.229395
      10A     -1.362681    11A     -1.241827    12A     -1.110102
      13A     -1.042202    14A     -0.979094    15A     -0.918571
      16A     -0.880493    17A     -0.787530    18A     -0.725453
      19A     -0.692949    20A     -0.675048    21A     -0.632764
      22A     -0.616949    23A     -0.601234    24A     -0.597779
      25A     -0.585635    26A     -0.557329    27A     -0.549449
      28A     -0.529425    29A     -0.517460    30A     -0.501245
      31A     -0.483838    32A     -0.468775    33A     -0.439175
      34A     -0.408461    35A     -0.365136

  @DF-RHF Final Energy:  -402.08645641351495

   => Energetics <=

    Nuclear Repulsion Energy =            486.8557152614383767
    One-Electron Energy =               -1511.5441362090843995
    Two-Electron Energy =                 622.6019645341311843
    Total Energy =                       -402.0864564135149521
  Basis Set: (AUG-CC-PVTZ AUX)
    Blend: AUG-CC-PVTZ-RI
    Molecular point group: c1

    Geometry (in Angstrom), charge = 0, multiplicity = 1:

       Center              X                  Y                   Z               Mass
    ------------   -----------------  -----------------  -----------------  -----------------
         O            1.738638468623     1.557194521088    -0.303004755061    15.994914619570
         N            0.955312468623    -0.535124478912     0.193963244939    14.003074004430
         C           -2.264021531377    -0.294141478912    -0.188399755061    12.000000000000
         C           -1.400098031377    -1.435812878912    -0.202954655061    12.000000000000
         C           -1.634266531377     1.081143521088    -0.407484755061    12.000000000000
         C           -0.119472531377    -1.419066478912     0.633758244939    12.000000000000
         C           -0.493819531377     1.417264521088     0.566352244939    12.000000000000
         C            0.835401468623     0.829964521088     0.128581244939    12.000000000000
         C            2.156544468623    -1.161876478912    -0.337852755061    12.000000000000
         H           -2.705254531377    -0.319700478912     0.817872244939     1.007825032230
         H           -3.096201531377    -0.422243478912    -0.891557755061     1.007825032230
         H           -1.867506531377    -2.403761478912    -0.137416755061     1.007825032230
         H           -0.924054531377    -1.543668478912    -1.352857755061     1.007825032230
         H           -2.418809531377     1.839671521088    -0.301232755061     1.007825032230
         H           -1.259947531377     1.165907521088    -1.435721755061     1.007825032230
         H           -0.459777531377    -1.133157478912     1.637347244939     1.007825032230
         H            0.326674468623    -2.413243478912     0.733082244939     1.007825032230
         H           -0.757214531377     1.096939521088     1.582555244939     1.007825032230
         H           -0.326384531377     2.496367521088     0.594610244939     1.007825032230
         H            1.913275468623    -1.800984478912    -1.194432755061     1.007825032230
         H            2.640949468623    -1.771925478912     0.431582244939     1.007825032230
         H            2.832102468623    -0.370047478912    -0.656026755061     1.007825032230

  Basis Set: AUG-CC-PVTZ
    Blend: AUG-CC-PVTZ
  Basis Set: (AUG-CC-PVTZ AUX)
    Blend: AUG-CC-PVTZ-JKFIT
	 Reference Energy          =    -402.0864564135149521 [Eh]
	 Singles Energy            =      -0.0000000000000000 [Eh]
	 Same-Spin Energy          =      -0.4231203838788675 [Eh]
	 Opposite-Spin Energy      =      -1.4072624314295721 [Eh]
	 Correlation Energy        =      -1.8303828153084396 [Eh]
	 Total Energy              =    -403.9168392288233917 [Eh]

	 ================> DF-SCS-MP2 Energies <==================
	-----------------------------------------------------------
	 SCS Same-Spin Scale       =       0.3333333333333333 [-]
	 SCS Opposite-Spin Scale   =       1.2000000000000000 [-]
	 SCS Same-Spin Energy      =      -0.1410401279596225 [Eh]
	 SCS Opposite-Spin Energy  =      -1.6887149177154865 [Eh]
	 SCS Correlation Energy    =      -1.8297550456751090 [Eh]
	 SCS Total Energy          =    -403.9162114591900377 [Eh]
	-----------------------------------------------------------

  Dipole Moment: [D]
     X:    -2.6288      Y:    -3.0424      Z:     0.8713     Total:     4.1141

*** Psi4 exiting successfully. Buy a developer a beer!
