                               Psi4 1.4a3.dev225

  ==> Input File <==

--------------------------------------------------------------------------
#psi4
#
memory 32 gb

molecule  {
0 1
  O        1.7739800     1.6003060    -0.2911220
  N        0.9906540    -0.4920130     0.2058460
  C       -2.2286800    -0.2510300    -0.1765170
  C       -1.2730330    -1.4351160    -0.3152870
  C       -1.5989250     1.1242550    -0.3956020
  C       -0.0841310    -1.3759550     0.6456410
  C       -0.4955810     1.4494407     0.5465524
  C        0.8707430     0.8730760     0.1404640
  C        2.1918860    -1.1187650    -0.3259700
  H       -2.6699130    -0.2765890     0.8297550
  H       -3.0608600    -0.3791320    -0.8796750
  H       -1.8321650    -2.3606500    -0.1255340
  H       -0.8887130    -1.5005570    -1.3409750
  H       -2.3834680     1.8827830    -0.2893500
  H       -1.2246060     1.2090190    -1.4238390
  H       -0.4244360    -1.0900460     1.6492300
  H        0.3620160    -2.3701320     0.7449650
  H       -0.7218730     1.1400510     1.5944380
  H       -0.2910430     2.5394790     0.6064930
  H        1.9486170    -1.7578730    -1.1825500
  H        2.6762910    -1.7288140     0.4434650
  H        2.8674440    -0.3269360    -0.6441440
units angstrom
no_reorient  #important for SAPT in psi4, default
symmetry c1  #important for SAPT in psi4, default
}

set PROPERTIES_ORIGIN ["COM"]
properties('MP2/aug-cc-pvtz', properties = ['dipole'])
--------------------------------------------------------------------------

    Molecular point group: c1
  Charge       = 0
  Multiplicity = 1
  Basis Set: AUG-CC-PVTZ
    Blend: AUG-CC-PVTZ
  Basis Set: (AUG-CC-PVTZ AUX)
    Blend: AUG-CC-PVTZ-JKFIT

    Orbital Energies [Eh]
    ---------------------

    Doubly Occupied:

       1A    -20.506818     2A    -15.580703     3A    -11.340954
       4A    -11.272143     5A    -11.250620     6A    -11.235685
       7A    -11.233503     8A    -11.231798     9A    -11.231184
      10A     -1.361866    11A     -1.241341    12A     -1.101804
      13A     -1.040053    14A     -0.974416    15A     -0.914832
      16A     -0.876366    17A     -0.793097    18A     -0.724364
      19A     -0.689463    20A     -0.669312    21A     -0.633385
      22A     -0.610075    23A     -0.602374    24A     -0.594111
      25A     -0.583556    26A     -0.556566    27A     -0.546989
      28A     -0.526662    29A     -0.509905    30A     -0.506737
      31A     -0.479387    32A     -0.472402    33A     -0.461995
      34A     -0.405880    35A     -0.365240

  @DF-RHF Final Energy:  -402.10889810559308

   => Energetics <=

    Nuclear Repulsion Energy =            486.5902798689345445
    One-Electron Energy =               -1511.1471888436813060
    Two-Electron Energy =                 622.4480108691537907
    Total Energy =                       -402.1088981055930844
  Basis Set: (AUG-CC-PVTZ AUX)
    Blend: AUG-CC-PVTZ-RI
    Molecular point group: c1

    Geometry (in Angstrom), charge = 0, multiplicity = 1:

       Center              X                  Y                   Z               Mass
    ------------   -----------------  -----------------  -----------------  -----------------
         O            1.733481525471     1.562231501736    -0.288285820293    15.994914619570
         N            0.950155525471    -0.530087498264     0.208682179707    14.003074004430
         C           -2.269178474529    -0.289104498264    -0.173680820293    12.000000000000
         C           -1.313531474529    -1.473190498264    -0.312450820293    12.000000000000
         C           -1.639423474529     1.086180501736    -0.392765820293    12.000000000000
         C           -0.124629474529    -1.414029498264     0.648477179707    12.000000000000
         C           -0.536079474529     1.411366201736     0.549388579707    12.000000000000
         C            0.830244525471     0.835001501736     0.143300179707    12.000000000000
         C            2.151387525471    -1.156839498264    -0.323133820293    12.000000000000
         H           -2.710411474529    -0.314663498264     0.832591179707     1.007825032230
         H           -3.101358474529    -0.417206498264    -0.876838820293     1.007825032230
         H           -1.872663474529    -2.398724498264    -0.122697820293     1.007825032230
         H           -0.929211474529    -1.538631498264    -1.338138820293     1.007825032230
         H           -2.423966474529     1.844708501736    -0.286513820293     1.007825032230
         H           -1.265104474529     1.170944501736    -1.421002820293     1.007825032230
         H           -0.464934474529    -1.128120498264     1.652066179707     1.007825032230
         H            0.321517525471    -2.408206498264     0.747801179707     1.007825032230
         H           -0.762371474529     1.101976501736     1.597274179707     1.007825032230
         H           -0.331541474529     2.501404501736     0.609329179707     1.007825032230
         H            1.908118525471    -1.795947498264    -1.179713820293     1.007825032230
         H            2.635792525471    -1.766888498264     0.446301179707     1.007825032230
         H            2.826945525471    -0.365010498264    -0.641307820293     1.007825032230

  Basis Set: AUG-CC-PVTZ
    Blend: AUG-CC-PVTZ
  Basis Set: (AUG-CC-PVTZ AUX)
    Blend: AUG-CC-PVTZ-JKFIT
	 Reference Energy          =    -402.1088981055930844 [Eh]
	 Singles Energy            =      -0.0000000000000000 [Eh]
	 Same-Spin Energy          =      -0.4221838527049020 [Eh]
	 Opposite-Spin Energy      =      -1.4057659191080654 [Eh]
	 Correlation Energy        =      -1.8279497718129674 [Eh]
	 Total Energy              =    -403.9368478774060236 [Eh]

	 ================> DF-SCS-MP2 Energies <==================
	-----------------------------------------------------------
	 SCS Same-Spin Scale       =       0.3333333333333333 [-]
	 SCS Opposite-Spin Scale   =       1.2000000000000000 [-]
	 SCS Same-Spin Energy      =      -0.1407279509016340 [Eh]
	 SCS Opposite-Spin Energy  =      -1.6869191029296784 [Eh]
	 SCS Correlation Energy    =      -1.8276470538313123 [Eh]
	 SCS Total Energy          =    -403.9365451594243837 [Eh]
	-----------------------------------------------------------

  Dipole Moment: [D]
     X:    -2.5482      Y:    -3.1155      Z:     0.7693     Total:     4.0978

*** Psi4 exiting successfully. Buy a developer a beer!
