                               Psi4 1.4a3.dev225

  ==> Input File <==

--------------------------------------------------------------------------
#psi4
#
memory 32 gb

molecule  {
0 1
  O        1.7739800     1.6003060    -0.2911220
  N        0.9906540    -0.4920130     0.2058460
  C       -2.2286800    -0.2510300    -0.1765170
  C       -1.2730330    -1.4351160    -0.3152870
  C       -1.5989250     1.1242550    -0.3956020
  C       -0.0841310    -1.3759550     0.6456410
  C       -0.4584780     1.4603760     0.5782350
  C        0.8707430     0.8730760     0.1404640
  C        2.1918860    -1.1187650    -0.3259700
  H       -2.6699130    -0.2765890     0.8297550
  H       -3.0608600    -0.3791320    -0.8796750
  H       -1.8321650    -2.3606500    -0.1255340
  H       -0.8887130    -1.5005570    -1.3409750
  H       -2.3834680     1.8827830    -0.2893500
  H       -1.2246060     1.2090190    -1.4238390
  H       -0.4244360    -1.0900460     1.6492300
  H        0.3620160    -2.3701320     0.7449650
  H       -0.7338720     1.1254585     1.6407314
  H       -0.2910430     2.5394790     0.6064930
  H        1.9486170    -1.7578730    -1.1825500
  H        2.6762910    -1.7288140     0.4434650
  H        2.8674440    -0.3269360    -0.6441440
units angstrom
no_reorient  #important for SAPT in psi4, default
symmetry c1  #important for SAPT in psi4, default
}

set PROPERTIES_ORIGIN ["COM"]
properties('MP2/aug-cc-pvtz', properties = ['dipole'])
--------------------------------------------------------------------------

    Molecular point group: c1
  Charge       = 0
  Multiplicity = 1
  Basis Set: AUG-CC-PVTZ
    Blend: AUG-CC-PVTZ
  Basis Set: (AUG-CC-PVTZ AUX)
    Blend: AUG-CC-PVTZ-JKFIT

    Orbital Energies [Eh]
    ---------------------

    Doubly Occupied:

       1A    -20.506158     2A    -15.580701     3A    -11.340491
       4A    -11.272019     5A    -11.250665     6A    -11.239558
       7A    -11.235118     8A    -11.233380     9A    -11.231551
      10A     -1.362212    11A     -1.241277    12A     -1.097114
      13A     -1.037001    14A     -0.975293    15A     -0.913309
      16A     -0.877500    17A     -0.791811    18A     -0.724805
      19A     -0.688274    20A     -0.668660    21A     -0.633292
      22A     -0.607592    23A     -0.600321    24A     -0.593898
      25A     -0.583457    26A     -0.557060    27A     -0.544743
      28A     -0.527271    29A     -0.509729    30A     -0.506346
      31A     -0.479344    32A     -0.467785    33A     -0.464733
      34A     -0.407554    35A     -0.365209

  @DF-RHF Final Energy:  -402.10982074366285

   => Energetics <=

    Nuclear Repulsion Energy =            486.0670153596389014
    One-Electron Energy =               -1510.1232084359160126
    Two-Electron Energy =                 621.9463723326143736
    Total Energy =                       -402.1098207436627945
  Basis Set: (AUG-CC-PVTZ AUX)
    Blend: AUG-CC-PVTZ-RI
    Molecular point group: c1

    Geometry (in Angstrom), charge = 0, multiplicity = 1:

       Center              X                  Y                   Z               Mass
    ------------   -----------------  -----------------  -----------------  -----------------
         O            1.730073625534     1.561314765501    -0.291644182273    15.994914619570
         N            0.946747625534    -0.531004234499     0.205323817727    14.003074004430
         C           -2.272586374466    -0.290021234499    -0.177039182273    12.000000000000
         C           -1.316939374466    -1.474107234499    -0.315809182273    12.000000000000
         C           -1.642831374466     1.085263765501    -0.396124182273    12.000000000000
         C           -0.128037374466    -1.414946234499     0.645118817727    12.000000000000
         C           -0.502384374466     1.421384765501     0.577712817727    12.000000000000
         C            0.826836625534     0.834084765501     0.139941817727    12.000000000000
         C            2.147979625534    -1.157756234499    -0.326492182273    12.000000000000
         H           -2.713819374466    -0.315580234499     0.829232817727     1.007825032230
         H           -3.104766374466    -0.418123234499    -0.880197182273     1.007825032230
         H           -1.876071374466    -2.399641234499    -0.126056182273     1.007825032230
         H           -0.932619374466    -1.539548234499    -1.341497182273     1.007825032230
         H           -2.427374374466     1.843791765501    -0.289872182273     1.007825032230
         H           -1.268512374466     1.170027765501    -1.424361182273     1.007825032230
         H           -0.468342374466    -1.129037234499     1.648707817727     1.007825032230
         H            0.318109625534    -2.409123234499     0.744442817727     1.007825032230
         H           -0.777778374466     1.086467265501     1.640209217727     1.007825032230
         H           -0.334949374466     2.500487765501     0.605970817727     1.007825032230
         H            1.904710625534    -1.796864234499    -1.183072182273     1.007825032230
         H            2.632384625534    -1.767805234499     0.442942817727     1.007825032230
         H            2.823537625534    -0.365927234499    -0.644666182273     1.007825032230

  Basis Set: AUG-CC-PVTZ
    Blend: AUG-CC-PVTZ
  Basis Set: (AUG-CC-PVTZ AUX)
    Blend: AUG-CC-PVTZ-JKFIT
	 Reference Energy          =    -402.1098207436628513 [Eh]
	 Singles Energy            =      -0.0000000000000000 [Eh]
	 Same-Spin Energy          =      -0.4218672473887520 [Eh]
	 Opposite-Spin Energy      =      -1.4056238258837355 [Eh]
	 Correlation Energy        =      -1.8274910732724874 [Eh]
	 Total Energy              =    -403.9373118169353347 [Eh]

	 ================> DF-SCS-MP2 Energies <==================
	-----------------------------------------------------------
	 SCS Same-Spin Scale       =       0.3333333333333333 [-]
	 SCS Opposite-Spin Scale   =       1.2000000000000000 [-]
	 SCS Same-Spin Energy      =      -0.1406224157962507 [Eh]
	 SCS Opposite-Spin Energy  =      -1.6867485910604825 [Eh]
	 SCS Correlation Energy    =      -1.8273710068567330 [Eh]
	 SCS Total Energy          =    -403.9371917505195597 [Eh]
	-----------------------------------------------------------

  Dipole Moment: [D]
     X:    -2.5724      Y:    -3.1022      Z:     0.7650     Total:     4.1020

*** Psi4 exiting successfully. Buy a developer a beer!
