                               Psi4 1.3.2 release

  ==> Input File <==

--------------------------------------------------------------------------
#psi4
#
memory 32 gb

molecule  {
0 1
  O        1.7739800     1.6003060    -0.2911220
  N        0.9906540    -0.4920130     0.2058460
  C       -2.2286800    -0.2510300    -0.1765170
  C       -1.2730330    -1.4351160    -0.3152870
  C       -1.5989250     1.1242550    -0.3956020
  C       -0.0841310    -1.3759550     0.6456410
  C       -0.4584780     1.4603760     0.5782350
  C        0.8707430     0.8730760     0.1404640
  C        2.1918860    -1.1187650    -0.3259700
  H       -2.6699130    -0.2765890     0.8297550
  H       -3.0608600    -0.3791320    -0.8796750
  H       -1.8321650    -2.3606500    -0.1255340
  H       -0.8887130    -1.5005570    -1.3409750
  H       -2.3834680     1.8827830    -0.2893500
  H       -1.2246060     1.2090190    -1.4238390
  H       -0.4244360    -1.0900460     1.6492300
  H        0.3620160    -2.3701320     0.7449650
  H       -0.6978749     1.1692360     1.5018511
  H       -0.2910430     2.5394790     0.6064930
  H        1.9486170    -1.7578730    -1.1825500
  H        2.6762910    -1.7288140     0.4434650
  H        2.8674440    -0.3269360    -0.6441440
units angstrom
no_reorient  #important for SAPT in psi4, default
symmetry c1  #important for SAPT in psi4, default
}

set PROPERTIES_ORIGIN ["COM"]
properties('MP2/aug-cc-pvtz', properties = ['dipole'])
--------------------------------------------------------------------------

    Molecular point group: c1
  Charge       = 0
  Multiplicity = 1
  Basis Set: AUG-CC-PVTZ
    Blend: AUG-CC-PVTZ
  Basis Set: (AUG-CC-PVTZ AUX)
    Blend: AUG-CC-PVTZ-JKFIT

    Orbital Energies [Eh]
    ---------------------

    Doubly Occupied:

       1A    -20.504973     2A    -15.580423     3A    -11.339016
       4A    -11.272591     5A    -11.250494     6A    -11.233683
       7A    -11.233428     8A    -11.231450     9A    -11.221241
      10A     -1.361273    11A     -1.241124    12A     -1.099013
      13A     -1.041388    14A     -0.976551    15A     -0.915725
      16A     -0.879955    17A     -0.794482    18A     -0.727004
      19A     -0.696316    20A     -0.669117    21A     -0.633327
      22A     -0.611938    23A     -0.603888    24A     -0.594632
      25A     -0.582804    26A     -0.560620    27A     -0.543958
      28A     -0.526867    29A     -0.514357    30A     -0.509237
      31A     -0.479462    32A     -0.466849    33A     -0.466165
      34A     -0.407278    35A     -0.364960

  @DF-RHF Final Energy:  -402.10654989112732

   => Energetics <=

    Nuclear Repulsion Energy =            486.8092247559659995
    One-Electron Energy =               -1511.5603697311723863
    Two-Electron Energy =                 622.6445950840791284
    Total Energy =                       -402.1065498911273153
  Basis Set: (AUG-CC-PVTZ AUX)
    Blend: AUG-CC-PVTZ-RI
    Molecular point group: c1

    Geometry (in Angstrom), charge = 0, multiplicity = 1:

       Center              X                  Y                   Z               Mass
    ------------   -----------------  -----------------  -----------------  -----------------
         O            1.729788189971     1.560967636000    -0.290542944211    15.994914619570
         N            0.946462189971    -0.531351364000     0.206425055789    14.003074004430
         C           -2.272871810029    -0.290368364000    -0.175937944211    12.000000000000
         C           -1.317224810029    -1.474454364000    -0.314707944211    12.000000000000
         C           -1.643116810029     1.084916636000    -0.395022944211    12.000000000000
         C           -0.128322810029    -1.415293364000     0.646220055789    12.000000000000
         C           -0.502669810029     1.421037636000     0.578814055789    12.000000000000
         C            0.826551189971     0.833737636000     0.141043055789    12.000000000000
         C            2.147694189971    -1.158103364000    -0.325390944211    12.000000000000
         H           -2.714104810029    -0.315927364000     0.830334055789     1.007825032230
         H           -3.105051810029    -0.418470364000    -0.879095944211     1.007825032230
         H           -1.876356810029    -2.399988364000    -0.124954944211     1.007825032230
         H           -0.932904810029    -1.539895364000    -1.340395944211     1.007825032230
         H           -2.427659810029     1.843444636000    -0.288770944211     1.007825032230
         H           -1.268797810029     1.169680636000    -1.423259944211     1.007825032230
         H           -0.468627810029    -1.129384364000     1.649809055789     1.007825032230
         H            0.317824189971    -2.409470364000     0.745544055789     1.007825032230
         H           -0.742066710029     1.129897636000     1.502430155789     1.007825032230
         H           -0.335234810029     2.500140636000     0.607072055789     1.007825032230
         H            1.904425189971    -1.797211364000    -1.181970944211     1.007825032230
         H            2.632099189971    -1.768152364000     0.444044055789     1.007825032230
         H            2.823252189971    -0.366274364000    -0.643564944211     1.007825032230

  Basis Set: AUG-CC-PVTZ
    Blend: AUG-CC-PVTZ
  Basis Set: (AUG-CC-PVTZ AUX)
    Blend: AUG-CC-PVTZ-JKFIT
	 Reference Energy          =    -402.1065498911273153 [Eh]
	 Singles Energy            =      -0.0000000000000000 [Eh]
	 Same-Spin Energy          =      -0.4216426021487426 [Eh]
	 Opposite-Spin Energy      =      -1.4045948548512717 [Eh]
	 Correlation Energy        =      -1.8262374570000142 [Eh]
	 Total Energy              =    -403.9327873481273059 [Eh]

	 ================> DF-SCS-MP2 Energies <==================
	-----------------------------------------------------------
	 SCS Same-Spin Scale       =       0.3333333333333333 [-]
	 SCS Opposite-Spin Scale   =       1.2000000000000000 [-]
	 SCS Same-Spin Energy      =      -0.1405475340495809 [Eh]
	 SCS Opposite-Spin Energy  =      -1.6855138258215259 [Eh]
	 SCS Correlation Energy    =      -1.8260613598711068 [Eh]
	 SCS Total Energy          =    -403.9326112509984341 [Eh]
	-----------------------------------------------------------

  Dipole Moment: [D]
     X:    -2.5915      Y:    -3.1074      Z:     0.8382     Total:     4.1321

*** Psi4 exiting successfully. Buy a developer a beer!
