                               Psi4 1.3.2 release

  ==> Input File <==

--------------------------------------------------------------------------
#psi4
#
memory 32 gb

molecule  {
0 1
  O        1.7739800     1.6003060    -0.2911220
  N        0.9906540    -0.4920130     0.2058460
  C       -2.2286800    -0.2510300    -0.1765170
  C       -1.2730330    -1.4351160    -0.3152870
  C       -1.5989250     1.1242550    -0.3956020
  C       -0.0841310    -1.3759550     0.6456410
  C       -0.4862944     1.5032508     0.5945346
  C        0.8707430     0.8730760     0.1404640
  C        2.1918860    -1.1187650    -0.3259700
  H       -2.6699130    -0.2765890     0.8297550
  H       -3.0608600    -0.3791320    -0.8796750
  H       -1.8321650    -2.3606500    -0.1255340
  H       -0.8887130    -1.5005570    -1.3409750
  H       -2.3834680     1.8827830    -0.2893500
  H       -1.2246060     1.2090190    -1.4238390
  H       -0.4244360    -1.0900460     1.6492300
  H        0.3620160    -2.3701320     0.7449650
  H       -0.7218730     1.1400510     1.5944380
  H       -0.2910430     2.5394790     0.6064930
  H        1.9486170    -1.7578730    -1.1825500
  H        2.6762910    -1.7288140     0.4434650
  H        2.8674440    -0.3269360    -0.6441440
units angstrom
no_reorient  #important for SAPT in psi4, default
symmetry c1  #important for SAPT in psi4, default
}

set PROPERTIES_ORIGIN ["COM"]
properties('MP2/aug-cc-pvtz', properties = ['dipole'])
--------------------------------------------------------------------------

    Molecular point group: c1
  Charge       = 0
  Multiplicity = 1
  Basis Set: AUG-CC-PVTZ
    Blend: AUG-CC-PVTZ
  Basis Set: (AUG-CC-PVTZ AUX)
    Blend: AUG-CC-PVTZ-JKFIT

    Orbital Energies [Eh]
    ---------------------

    Doubly Occupied:

       1A    -20.505289     2A    -15.580970     3A    -11.340719
       4A    -11.272309     5A    -11.250793     6A    -11.233896
       7A    -11.233372     8A    -11.232894     9A    -11.231953
      10A     -1.360468    11A     -1.240591    12A     -1.096804
      13A     -1.036236    14A     -0.973660    15A     -0.915395
      16A     -0.876231    17A     -0.792197    18A     -0.726184
      19A     -0.686158    20A     -0.668618    21A     -0.632818
      22A     -0.607611    23A     -0.604675    24A     -0.594869
      25A     -0.583944    26A     -0.560134    27A     -0.541054
      28A     -0.529496    29A     -0.511450    30A     -0.508781
      31A     -0.479727    32A     -0.472115    33A     -0.464391
      34A     -0.401767    35A     -0.365154

  @DF-RHF Final Energy:  -402.11000279171736

   => Energetics <=

    Nuclear Repulsion Energy =            485.3937757201535419
    One-Electron Energy =               -1508.7821047811376047
    Two-Electron Energy =                 621.2783262692665858
    Total Energy =                       -402.1100027917174202
  Basis Set: (AUG-CC-PVTZ AUX)
    Blend: AUG-CC-PVTZ-RI
    Molecular point group: c1

    Geometry (in Angstrom), charge = 0, multiplicity = 1:

       Center              X                  Y                   Z               Mass
    ------------   -----------------  -----------------  -----------------  -----------------
         O            1.732604739863     1.557151071737    -0.292816014592    15.994914619570
         N            0.949278739863    -0.535167928263     0.204151985408    14.003074004430
         C           -2.270055260137    -0.294184928263    -0.178211014592    12.000000000000
         C           -1.314408260137    -1.478270928263    -0.316981014592    12.000000000000
         C           -1.640300260137     1.081100071737    -0.397296014592    12.000000000000
         C           -0.125506260137    -1.419109928263     0.643946985408    12.000000000000
         C           -0.527669660137     1.460095871737     0.592840585408    12.000000000000
         C            0.829367739863     0.829921071737     0.138769985408    12.000000000000
         C            2.150510739863    -1.161919928263    -0.327664014592    12.000000000000
         H           -2.711288260137    -0.319743928263     0.828060985408     1.007825032230
         H           -3.102235260137    -0.422286928263    -0.881369014592     1.007825032230
         H           -1.873540260137    -2.403804928263    -0.127228014592     1.007825032230
         H           -0.930088260137    -1.543711928263    -1.342669014592     1.007825032230
         H           -2.424843260137     1.839628071737    -0.291044014592     1.007825032230
         H           -1.265981260137     1.165864071737    -1.425533014592     1.007825032230
         H           -0.465811260137    -1.133200928263     1.647535985408     1.007825032230
         H            0.320640739863    -2.413286928263     0.743270985408     1.007825032230
         H           -0.763248260137     1.096896071737     1.592743985408     1.007825032230
         H           -0.332418260137     2.496324071737     0.604798985408     1.007825032230
         H            1.907241739863    -1.801027928263    -1.184244014592     1.007825032230
         H            2.634915739863    -1.771968928263     0.441770985408     1.007825032230
         H            2.826068739863    -0.370090928263    -0.645838014592     1.007825032230

  Basis Set: AUG-CC-PVTZ
    Blend: AUG-CC-PVTZ
  Basis Set: (AUG-CC-PVTZ AUX)
    Blend: AUG-CC-PVTZ-JKFIT
	 Reference Energy          =    -402.1100027917173634 [Eh]
	 Singles Energy            =      -0.0000000000000000 [Eh]
	 Same-Spin Energy          =      -0.4214356775708416 [Eh]
	 Opposite-Spin Energy      =      -1.4048680437894820 [Eh]
	 Correlation Energy        =      -1.8263037213603237 [Eh]
	 Total Energy              =    -403.9363065130776818 [Eh]

	 ================> DF-SCS-MP2 Energies <==================
	-----------------------------------------------------------
	 SCS Same-Spin Scale       =       0.3333333333333333 [-]
	 SCS Opposite-Spin Scale   =       1.2000000000000000 [-]
	 SCS Same-Spin Energy      =      -0.1404785591902805 [Eh]
	 SCS Opposite-Spin Energy  =      -1.6858416525473785 [Eh]
	 SCS Correlation Energy    =      -1.8263202117376589 [Eh]
	 SCS Total Energy          =    -403.9363230034550156 [Eh]
	-----------------------------------------------------------

  Dipole Moment: [D]
     X:    -2.5471      Y:    -3.1144      Z:     0.7884     Total:     4.0998

*** Psi4 exiting successfully. Buy a developer a beer!
