                               Psi4 1.3.2 release

  ==> Input File <==

--------------------------------------------------------------------------
#psi4
#
memory 32 gb

molecule  {
0 1
  O        1.7739800     1.6003060    -0.2911220
  N        0.9906540    -0.4920130     0.2058460
  C       -2.2876754    -0.2943564    -0.2540811
  C       -1.2730330    -1.4351160    -0.3152870
  C       -1.5989250     1.1242550    -0.3956020
  C       -0.0841310    -1.3759550     0.6456410
  C       -0.4584780     1.4603760     0.5782350
  C        0.8707430     0.8730760     0.1404640
  C        2.1918860    -1.1187650    -0.3259700
  H       -2.6699130    -0.2765890     0.8297550
  H       -3.0608600    -0.3791320    -0.8796750
  H       -1.8321650    -2.3606500    -0.1255340
  H       -0.8887130    -1.5005570    -1.3409750
  H       -2.3834680     1.8827830    -0.2893500
  H       -1.2246060     1.2090190    -1.4238390
  H       -0.4244360    -1.0900460     1.6492300
  H        0.3620160    -2.3701320     0.7449650
  H       -0.7218730     1.1400510     1.5944380
  H       -0.2910430     2.5394790     0.6064930
  H        1.9486170    -1.7578730    -1.1825500
  H        2.6762910    -1.7288140     0.4434650
  H        2.8674440    -0.3269360    -0.6441440
units angstrom
no_reorient  #important for SAPT in psi4, default
symmetry c1  #important for SAPT in psi4, default
}

set PROPERTIES_ORIGIN ["COM"]
properties('MP2/aug-cc-pvtz', properties = ['dipole'])
--------------------------------------------------------------------------

    Molecular point group: c1
  Charge       = 0
  Multiplicity = 1
  Basis Set: AUG-CC-PVTZ
    Blend: AUG-CC-PVTZ
  Basis Set: (AUG-CC-PVTZ AUX)
    Blend: AUG-CC-PVTZ-JKFIT

    Orbital Energies [Eh]
    ---------------------

    Doubly Occupied:

       1A    -20.506051     2A    -15.580876     3A    -11.340238
       4A    -11.274568     5A    -11.250830     6A    -11.236330
       7A    -11.235214     8A    -11.233613     9A    -11.231180
      10A     -1.362132    11A     -1.241417    12A     -1.092026
      13A     -1.038053    14A     -0.976129    15A     -0.916889
      16A     -0.876124    17A     -0.795681    18A     -0.726229
      19A     -0.691309    20A     -0.669977    21A     -0.631676
      22A     -0.617845    23A     -0.599279    24A     -0.591123
      25A     -0.581904    26A     -0.558193    27A     -0.546158
      28A     -0.526343    29A     -0.518632    30A     -0.508772
      31A     -0.479840    32A     -0.466292    33A     -0.451907
      34A     -0.407841    35A     -0.365865

  @DF-RHF Final Energy:  -402.09913618859196

   => Energetics <=

    Nuclear Repulsion Energy =            485.0848156703232803
    One-Electron Energy =               -1508.1148293650062442
    Two-Electron Energy =                 620.9308775060910648
    Total Energy =                       -402.0991361885919559
  Basis Set: (AUG-CC-PVTZ AUX)
    Blend: AUG-CC-PVTZ-RI
    Molecular point group: c1

    Geometry (in Angstrom), charge = 0, multiplicity = 1:

       Center              X                  Y                   Z               Mass
    ------------   -----------------  -----------------  -----------------  -----------------
         O            1.735548475833     1.565289676987    -0.283953961609    15.994914619570
         N            0.952222475833    -0.527029323013     0.213014038391    14.003074004430
         C           -2.326106924167    -0.329372723013    -0.246913061609    12.000000000000
         C           -1.311464524167    -1.470132323013    -0.308118961609    12.000000000000
         C           -1.637356524167     1.089238676987    -0.388433961609    12.000000000000
         C           -0.122562524167    -1.410971323013     0.652809038391    12.000000000000
         C           -0.496909524167     1.425359676987     0.585403038391    12.000000000000
         C            0.832311475833     0.838059676987     0.147632038391    12.000000000000
         C            2.153454475833    -1.153781323013    -0.318801961609    12.000000000000
         H           -2.708344524167    -0.311605323013     0.836923038391     1.007825032230
         H           -3.099291524167    -0.414148323013    -0.872506961609     1.007825032230
         H           -1.870596524167    -2.395666323013    -0.118365961609     1.007825032230
         H           -0.927144524167    -1.535573323013    -1.333806961609     1.007825032230
         H           -2.421899524167     1.847766676987    -0.282181961609     1.007825032230
         H           -1.263037524167     1.174002676987    -1.416670961609     1.007825032230
         H           -0.462867524167    -1.125062323013     1.656398038391     1.007825032230
         H            0.323584475833    -2.405148323013     0.752133038391     1.007825032230
         H           -0.760304524167     1.105034676987     1.601606038391     1.007825032230
         H           -0.329474524167     2.504462676987     0.613661038391     1.007825032230
         H            1.910185475833    -1.792889323013    -1.175381961609     1.007825032230
         H            2.637859475833    -1.763830323013     0.450633038391     1.007825032230
         H            2.829012475833    -0.361952323013    -0.636975961609     1.007825032230

  Basis Set: AUG-CC-PVTZ
    Blend: AUG-CC-PVTZ
  Basis Set: (AUG-CC-PVTZ AUX)
    Blend: AUG-CC-PVTZ-JKFIT
	 Reference Energy          =    -402.0991361885919559 [Eh]
	 Singles Energy            =      -0.0000000000000000 [Eh]
	 Same-Spin Energy          =      -0.4216119650723470 [Eh]
	 Opposite-Spin Energy      =      -1.4054671791651199 [Eh]
	 Correlation Energy        =      -1.8270791442374668 [Eh]
	 Total Energy              =    -403.9262153328294289 [Eh]

	 ================> DF-SCS-MP2 Energies <==================
	-----------------------------------------------------------
	 SCS Same-Spin Scale       =       0.3333333333333333 [-]
	 SCS Opposite-Spin Scale   =       1.2000000000000000 [-]
	 SCS Same-Spin Energy      =      -0.1405373216907823 [Eh]
	 SCS Opposite-Spin Energy  =      -1.6865606149981438 [Eh]
	 SCS Correlation Energy    =      -1.8270979366889262 [Eh]
	 SCS Total Energy          =    -403.9262341252808710 [Eh]
	-----------------------------------------------------------

  Dipole Moment: [D]
     X:    -2.5579      Y:    -3.1088      Z:     0.7632     Total:     4.0976

*** Psi4 exiting successfully. Buy a developer a beer!
