                               Psi4 1.3.2 release

  ==> Input File <==

--------------------------------------------------------------------------
#psi4
#
memory 32 gb

molecule  {
0 1
  O        1.7739800     1.6003060    -0.2911220
  N        0.9906540    -0.4920130     0.2058460
  C       -2.2286800    -0.2510300    -0.1765170
  C       -1.2730330    -1.4351160    -0.3152870
  C       -1.4897517     1.0442697    -0.4825596
  C       -0.0841310    -1.3759550     0.6456410
  C       -0.4584780     1.4603760     0.5782350
  C        0.8707430     0.8730760     0.1404640
  C        2.1918860    -1.1187650    -0.3259700
  H       -2.6699130    -0.2765890     0.8297550
  H       -3.0608600    -0.3791320    -0.8796750
  H       -1.8321650    -2.3606500    -0.1255340
  H       -0.8887130    -1.5005570    -1.3409750
  H       -2.3834680     1.8827830    -0.2893500
  H       -1.2246060     1.2090190    -1.4238390
  H       -0.4244360    -1.0900460     1.6492300
  H        0.3620160    -2.3701320     0.7449650
  H       -0.7218730     1.1400510     1.5944380
  H       -0.2910430     2.5394790     0.6064930
  H        1.9486170    -1.7578730    -1.1825500
  H        2.6762910    -1.7288140     0.4434650
  H        2.8674440    -0.3269360    -0.6441440
units angstrom
no_reorient  #important for SAPT in psi4, default
symmetry c1  #important for SAPT in psi4, default
}

set PROPERTIES_ORIGIN ["COM"]
properties('MP2/aug-cc-pvtz', properties = ['dipole'])
--------------------------------------------------------------------------

    Molecular point group: c1
  Charge       = 0
  Multiplicity = 1
  Basis Set: AUG-CC-PVTZ
    Blend: AUG-CC-PVTZ
  Basis Set: (AUG-CC-PVTZ AUX)
    Blend: AUG-CC-PVTZ-JKFIT

    Orbital Energies [Eh]
    ---------------------

    Doubly Occupied:

       1A    -20.504506     2A    -15.580156     3A    -11.337818
       4A    -11.272334     5A    -11.250566     6A    -11.239149
       7A    -11.236276     8A    -11.234201     9A    -11.231217
      10A     -1.361348    11A     -1.241313    12A     -1.101247
      13A     -1.039243    14A     -0.975828    15A     -0.913634
      16A     -0.876593    17A     -0.801665    18A     -0.725810
      19A     -0.689979    20A     -0.669569    21A     -0.636753
      22A     -0.610220    23A     -0.606106    24A     -0.591146
      25A     -0.574099    26A     -0.560467    27A     -0.543312
      28A     -0.530145    29A     -0.520466    30A     -0.508089
      31A     -0.493968    32A     -0.471788    33A     -0.436207
      34A     -0.400838    35A     -0.365105

  @DF-RHF Final Energy:  -402.08452712547808

   => Energetics <=

    Nuclear Repulsion Energy =            487.7089033464766317
    One-Electron Energy =               -1513.3245406868845748
    Two-Electron Energy =                 623.5311102149297540
    Total Energy =                       -402.0845271254780755
  Basis Set: (AUG-CC-PVTZ AUX)
    Blend: AUG-CC-PVTZ-RI
    Molecular point group: c1

    Geometry (in Angstrom), charge = 0, multiplicity = 1:

       Center              X                  Y                   Z               Mass
    ------------   -----------------  -----------------  -----------------  -----------------
         O            1.719670986138     1.568750792564    -0.283067083138    15.994914619570
         N            0.936344986138    -0.523568207436     0.213900916862    14.003074004430
         C           -2.282989013862    -0.282585207436    -0.168462083138    12.000000000000
         C           -1.327342013862    -1.466671207436    -0.307232083138    12.000000000000
         C           -1.544060713862     1.012714492564    -0.474504683138    12.000000000000
         C           -0.138440013862    -1.407510207436     0.653695916862    12.000000000000
         C           -0.512787013862     1.428820792564     0.586289916862    12.000000000000
         C            0.816433986138     0.841520792564     0.148518916862    12.000000000000
         C            2.137576986138    -1.150320207436    -0.317915083138    12.000000000000
         H           -2.724222013862    -0.308144207436     0.837809916862     1.007825032230
         H           -3.115169013862    -0.410687207436    -0.871620083138     1.007825032230
         H           -1.886474013862    -2.392205207436    -0.117479083138     1.007825032230
         H           -0.943022013862    -1.532112207436    -1.332920083138     1.007825032230
         H           -2.437777013862     1.851227792564    -0.281295083138     1.007825032230
         H           -1.278915013862     1.177463792564    -1.415784083138     1.007825032230
         H           -0.478745013862    -1.121601207436     1.657284916862     1.007825032230
         H            0.307706986138    -2.401687207436     0.753019916862     1.007825032230
         H           -0.776182013862     1.108495792564     1.602492916862     1.007825032230
         H           -0.345352013862     2.507923792564     0.614547916862     1.007825032230
         H            1.894307986138    -1.789428207436    -1.174495083138     1.007825032230
         H            2.621981986138    -1.760369207436     0.451519916862     1.007825032230
         H            2.813134986138    -0.358491207436    -0.636089083138     1.007825032230

  Basis Set: AUG-CC-PVTZ
    Blend: AUG-CC-PVTZ
  Basis Set: (AUG-CC-PVTZ AUX)
    Blend: AUG-CC-PVTZ-JKFIT
	 Reference Energy          =    -402.0845271254780755 [Eh]
	 Singles Energy            =      -0.0000000000000000 [Eh]
	 Same-Spin Energy          =      -0.4224847408565674 [Eh]
	 Opposite-Spin Energy      =      -1.4069033760582723 [Eh]
	 Correlation Energy        =      -1.8293881169148398 [Eh]
	 Total Energy              =    -403.9139152423929318 [Eh]

	 ================> DF-SCS-MP2 Energies <==================
	-----------------------------------------------------------
	 SCS Same-Spin Scale       =       0.3333333333333333 [-]
	 SCS Opposite-Spin Scale   =       1.2000000000000000 [-]
	 SCS Same-Spin Energy      =      -0.1408282469521891 [Eh]
	 SCS Opposite-Spin Energy  =      -1.6882840512699266 [Eh]
	 SCS Correlation Energy    =      -1.8291122982221157 [Eh]
	 SCS Total Energy          =    -403.9136394237002037 [Eh]
	-----------------------------------------------------------

  Dipole Moment: [D]
     X:    -2.5440      Y:    -3.1456      Z:     0.8056     Total:     4.1250

*** Psi4 exiting successfully. Buy a developer a beer!
