                               Psi4 1.3.2 release

  ==> Input File <==

--------------------------------------------------------------------------
#psi4
#
memory 32 gb

molecule  {
0 1
  O        1.7739800     1.6003060    -0.2911220
  N        0.9906540    -0.4920130     0.2058460
  C       -2.2286800    -0.2510300    -0.1765170
  C       -1.2730330    -1.4351160    -0.3152870
  C       -1.5989250     1.1242550    -0.3956020
  C       -0.0841310    -1.3759550     0.6456410
  C       -0.4584780     1.4603760     0.5782350
  C        0.8532620     1.0720824     0.1309324
  C        2.1918860    -1.1187650    -0.3259700
  H       -2.6699130    -0.2765890     0.8297550
  H       -3.0608600    -0.3791320    -0.8796750
  H       -1.8321650    -2.3606500    -0.1255340
  H       -0.8887130    -1.5005570    -1.3409750
  H       -2.3834680     1.8827830    -0.2893500
  H       -1.2246060     1.2090190    -1.4238390
  H       -0.4244360    -1.0900460     1.6492300
  H        0.3620160    -2.3701320     0.7449650
  H       -0.7218730     1.1400510     1.5944380
  H       -0.2910430     2.5394790     0.6064930
  H        1.9486170    -1.7578730    -1.1825500
  H        2.6762910    -1.7288140     0.4434650
  H        2.8674440    -0.3269360    -0.6441440
units angstrom
no_reorient  #important for SAPT in psi4, default
symmetry c1  #important for SAPT in psi4, default
}

set PROPERTIES_ORIGIN ["COM"]
properties('MP2/aug-cc-pvtz', properties = ['dipole'])
--------------------------------------------------------------------------

    Molecular point group: c1
  Charge       = 0
  Multiplicity = 1
  Basis Set: AUG-CC-PVTZ
    Blend: AUG-CC-PVTZ
  Basis Set: (AUG-CC-PVTZ AUX)
    Blend: AUG-CC-PVTZ-JKFIT

    Orbital Energies [Eh]
    ---------------------

    Doubly Occupied:

       1A    -20.545805     2A    -15.539903     3A    -11.353058
       4A    -11.251946     5A    -11.242547     6A    -11.241910
       7A    -11.232930     8A    -11.229878     9A    -11.221729
      10A     -1.442688    11A     -1.194361    12A     -1.099766
      13A     -1.042739    14A     -0.966797    15A     -0.882478
      16A     -0.867205    17A     -0.785486    18A     -0.722451
      19A     -0.700203    20A     -0.671837    21A     -0.634844
      22A     -0.618429    23A     -0.599193    24A     -0.588201
      25A     -0.582031    26A     -0.565590    27A     -0.550534
      28A     -0.533483    29A     -0.511394    30A     -0.501458
      31A     -0.476985    32A     -0.471563    33A     -0.462923
      34A     -0.412402    35A     -0.335833

  @DF-RHF Final Energy:  -402.07326920014680

   => Energetics <=

    Nuclear Repulsion Energy =            485.1974852264117999
    One-Electron Energy =               -1508.3803485881289816
    Two-Electron Energy =                 621.1095941615703850
    Total Energy =                       -402.0732692001467967
  Basis Set: (AUG-CC-PVTZ AUX)
    Blend: AUG-CC-PVTZ-RI
    Molecular point group: c1

    Geometry (in Angstrom), charge = 0, multiplicity = 1:

       Center              X                  Y                   Z               Mass
    ------------   -----------------  -----------------  -----------------  -----------------
         O            1.731628932790     1.542410053521    -0.290377186131    15.994914619570
         N            0.948302932790    -0.549908946479     0.206590813869    14.003074004430
         C           -2.271031067210    -0.308925946479    -0.175772186131    12.000000000000
         C           -1.315384067210    -1.493011946479    -0.314542186131    12.000000000000
         C           -1.641276067210     1.066359053521    -0.394857186131    12.000000000000
         C           -0.126482067210    -1.433850946479     0.646385813869    12.000000000000
         C           -0.500829067210     1.402480053521     0.578979813869    12.000000000000
         C            0.810910932790     1.014186453521     0.131677213869    12.000000000000
         C            2.149534932790    -1.176660946479    -0.325225186131    12.000000000000
         H           -2.712264067210    -0.334484946479     0.830499813869     1.007825032230
         H           -3.103211067210    -0.437027946479    -0.878930186131     1.007825032230
         H           -1.874516067210    -2.418545946479    -0.124789186131     1.007825032230
         H           -0.931064067210    -1.558452946479    -1.340230186131     1.007825032230
         H           -2.425819067210     1.824887053521    -0.288605186131     1.007825032230
         H           -1.266957067210     1.151123053521    -1.423094186131     1.007825032230
         H           -0.466787067210    -1.147941946479     1.649974813869     1.007825032230
         H            0.319664932790    -2.428027946479     0.745709813869     1.007825032230
         H           -0.764224067210     1.082155053521     1.595182813869     1.007825032230
         H           -0.333394067210     2.481583053521     0.607237813869     1.007825032230
         H            1.906265932790    -1.815768946479    -1.181805186131     1.007825032230
         H            2.633939932790    -1.786709946479     0.444209813869     1.007825032230
         H            2.825092932790    -0.384831946479    -0.643399186131     1.007825032230

  Basis Set: AUG-CC-PVTZ
    Blend: AUG-CC-PVTZ
  Basis Set: (AUG-CC-PVTZ AUX)
    Blend: AUG-CC-PVTZ-JKFIT
	 Reference Energy          =    -402.0732692001467967 [Eh]
	 Singles Energy            =      -0.0000000000000000 [Eh]
	 Same-Spin Energy          =      -0.4219930973241541 [Eh]
	 Opposite-Spin Energy      =      -1.4051405115805464 [Eh]
	 Correlation Energy        =      -1.8271336089047006 [Eh]
	 Total Energy              =    -403.9004028090515135 [Eh]

	 ================> DF-SCS-MP2 Energies <==================
	-----------------------------------------------------------
	 SCS Same-Spin Scale       =       0.3333333333333333 [-]
	 SCS Opposite-Spin Scale   =       1.2000000000000000 [-]
	 SCS Same-Spin Energy      =      -0.1406643657747180 [Eh]
	 SCS Opposite-Spin Energy  =      -1.6861686138966556 [Eh]
	 SCS Correlation Energy    =      -1.8268329796713736 [Eh]
	 SCS Total Energy          =    -403.9001021798181910 [Eh]
	-----------------------------------------------------------

  Dipole Moment: [D]
     X:    -2.5331      Y:    -1.2079      Z:     0.6284     Total:     2.8758

*** Psi4 exiting successfully. Buy a developer a beer!
