                               Psi4 1.3.2 release

  ==> Input File <==

--------------------------------------------------------------------------
#psi4
#
memory 32 gb

molecule  {
0 1
  O        1.7739800     1.6003060    -0.2911220
  N        0.9906540    -0.4920130     0.2058460
  C       -2.2286800    -0.2510300    -0.1765170
  C       -1.2730330    -1.4351160    -0.3152870
  C       -1.5989250     1.1242550    -0.3956020
  C       -0.0841310    -1.3759550     0.6456410
  C       -0.4584780     1.4603760     0.5782350
  C        1.0459063     0.7956822     0.0827750
  C        2.1918860    -1.1187650    -0.3259700
  H       -2.6699130    -0.2765890     0.8297550
  H       -3.0608600    -0.3791320    -0.8796750
  H       -1.8321650    -2.3606500    -0.1255340
  H       -0.8887130    -1.5005570    -1.3409750
  H       -2.3834680     1.8827830    -0.2893500
  H       -1.2246060     1.2090190    -1.4238390
  H       -0.4244360    -1.0900460     1.6492300
  H        0.3620160    -2.3701320     0.7449650
  H       -0.7218730     1.1400510     1.5944380
  H       -0.2910430     2.5394790     0.6064930
  H        1.9486170    -1.7578730    -1.1825500
  H        2.6762910    -1.7288140     0.4434650
  H        2.8674440    -0.3269360    -0.6441440
units angstrom
no_reorient  #important for SAPT in psi4, default
symmetry c1  #important for SAPT in psi4, default
}

set PROPERTIES_ORIGIN ["COM"]
properties('MP2/aug-cc-pvtz', properties = ['dipole'])
--------------------------------------------------------------------------

    Molecular point group: c1
  Charge       = 0
  Multiplicity = 1
  Basis Set: AUG-CC-PVTZ
    Blend: AUG-CC-PVTZ
  Basis Set: (AUG-CC-PVTZ AUX)
    Blend: AUG-CC-PVTZ-JKFIT

    Orbital Energies [Eh]
    ---------------------

    Doubly Occupied:

       1A    -20.514997     2A    -15.587879     3A    -11.333917
       4A    -11.281690     5A    -11.255661     6A    -11.234535
       7A    -11.225695     8A    -11.220794     9A    -11.213808
      10A     -1.421302    11A     -1.277473    12A     -1.091374
      13A     -1.024711    14A     -0.969934    15A     -0.926806
      16A     -0.861560    17A     -0.783582    18A     -0.733893
      19A     -0.685618    20A     -0.673602    21A     -0.648979
      22A     -0.621112    23A     -0.599432    24A     -0.595213
      25A     -0.579480    26A     -0.558873    27A     -0.552543
      28A     -0.532916    29A     -0.528360    30A     -0.509048
      31A     -0.474771    32A     -0.465842    33A     -0.456386
      34A     -0.384047    35A     -0.363975

  @DF-RHF Final Energy:  -402.07565194263367

   => Energetics <=

    Nuclear Repulsion Energy =            486.9316768538559472
    One-Electron Energy =               -1511.6350425986947812
    Two-Electron Energy =                 622.6277138022049940
    Total Energy =                       -402.0756519426337263
  Basis Set: (AUG-CC-PVTZ AUX)
    Blend: AUG-CC-PVTZ-RI
    Molecular point group: c1

    Geometry (in Angstrom), charge = 0, multiplicity = 1:

       Center              X                  Y                   Z               Mass
    ------------   -----------------  -----------------  -----------------  -----------------
         O            1.713440602333     1.568506118528    -0.285830450488    15.994914619570
         N            0.930114602333    -0.523812881472     0.211137549512    14.003074004430
         C           -2.289219397667    -0.282829881472    -0.171225450488    12.000000000000
         C           -1.333572397667    -1.466915881472    -0.309995450488    12.000000000000
         C           -1.659464397667     1.092455118528    -0.390310450488    12.000000000000
         C           -0.144670397667    -1.407754881472     0.650932549512    12.000000000000
         C           -0.519017397667     1.428576118528     0.583526549512    12.000000000000
         C            0.985366902333     0.763882318528     0.088066549512    12.000000000000
         C            2.131346602333    -1.150564881472    -0.320678450488    12.000000000000
         H           -2.730452397667    -0.308388881472     0.835046549512     1.007825032230
         H           -3.121399397667    -0.410931881472    -0.874383450488     1.007825032230
         H           -1.892704397667    -2.392449881472    -0.120242450488     1.007825032230
         H           -0.949252397667    -1.532356881472    -1.335683450488     1.007825032230
         H           -2.444007397667     1.850983118528    -0.284058450488     1.007825032230
         H           -1.285145397667     1.177219118528    -1.418547450488     1.007825032230
         H           -0.484975397667    -1.121845881472     1.654521549512     1.007825032230
         H            0.301476602333    -2.401931881472     0.750256549512     1.007825032230
         H           -0.782412397667     1.108251118528     1.599729549512     1.007825032230
         H           -0.351582397667     2.507679118528     0.611784549512     1.007825032230
         H            1.888077602333    -1.789672881472    -1.177258450488     1.007825032230
         H            2.615751602333    -1.760613881472     0.448756549512     1.007825032230
         H            2.806904602333    -0.358735881472    -0.638852450488     1.007825032230

  Basis Set: AUG-CC-PVTZ
    Blend: AUG-CC-PVTZ
  Basis Set: (AUG-CC-PVTZ AUX)
    Blend: AUG-CC-PVTZ-JKFIT
	 Reference Energy          =    -402.0756519426336695 [Eh]
	 Singles Energy            =      -0.0000000000000000 [Eh]
	 Same-Spin Energy          =      -0.4206043919124196 [Eh]
	 Opposite-Spin Energy      =      -1.4032788324590917 [Eh]
	 Correlation Energy        =      -1.8238832243715113 [Eh]
	 Total Energy              =    -403.8995351670051832 [Eh]

	 ================> DF-SCS-MP2 Energies <==================
	-----------------------------------------------------------
	 SCS Same-Spin Scale       =       0.3333333333333333 [-]
	 SCS Opposite-Spin Scale   =       1.2000000000000000 [-]
	 SCS Same-Spin Energy      =      -0.1402014639708065 [Eh]
	 SCS Opposite-Spin Energy  =      -1.6839345989509100 [Eh]
	 SCS Correlation Energy    =      -1.8241360629217165 [Eh]
	 SCS Total Energy          =    -403.8997880055553651 [Eh]
	-----------------------------------------------------------

  Dipole Moment: [D]
     X:    -1.6552      Y:    -3.5541      Z:     0.5639     Total:     3.9610

*** Psi4 exiting successfully. Buy a developer a beer!
