                               Psi4 1.3.2 release

  ==> Input File <==

--------------------------------------------------------------------------
#psi4
#
memory 32 gb

molecule  {
0 1
  O        1.7739800     1.6003060    -0.2911220
  N        0.9906540    -0.4920130     0.2058460
  C       -2.3429063    -0.3579170    -0.1432656
  C       -1.2730330    -1.4351160    -0.3152870
  C       -1.5989250     1.1242550    -0.3956020
  C       -0.0841310    -1.3759550     0.6456410
  C       -0.4584780     1.4603760     0.5782350
  C        0.8707430     0.8730760     0.1404640
  C        2.1918860    -1.1187650    -0.3259700
  H       -2.6699130    -0.2765890     0.8297550
  H       -3.0608600    -0.3791320    -0.8796750
  H       -1.8321650    -2.3606500    -0.1255340
  H       -0.8887130    -1.5005570    -1.3409750
  H       -2.3834680     1.8827830    -0.2893500
  H       -1.2246060     1.2090190    -1.4238390
  H       -0.4244360    -1.0900460     1.6492300
  H        0.3620160    -2.3701320     0.7449650
  H       -0.7218730     1.1400510     1.5944380
  H       -0.2910430     2.5394790     0.6064930
  H        1.9486170    -1.7578730    -1.1825500
  H        2.6762910    -1.7288140     0.4434650
  H        2.8674440    -0.3269360    -0.6441440
units angstrom
no_reorient  #important for SAPT in psi4, default
symmetry c1  #important for SAPT in psi4, default
}

set PROPERTIES_ORIGIN ["COM"]
properties('MP2/aug-cc-pvtz', properties = ['dipole'])
--------------------------------------------------------------------------

    Molecular point group: c1
  Charge       = 0
  Multiplicity = 1
  Basis Set: AUG-CC-PVTZ
    Blend: AUG-CC-PVTZ
  Basis Set: (AUG-CC-PVTZ AUX)
    Blend: AUG-CC-PVTZ-JKFIT

    Orbital Energies [Eh]
    ---------------------

    Doubly Occupied:

       1A    -20.505331     2A    -15.580257     3A    -11.339297
       4A    -11.273806     5A    -11.250582     6A    -11.237092
       7A    -11.233449     8A    -11.233371     9A    -11.228391
      10A     -1.361397    11A     -1.240771    12A     -1.086168
      13A     -1.037348    14A     -0.972685    15A     -0.916931
      16A     -0.870299    17A     -0.803269    18A     -0.725207
      19A     -0.689922    20A     -0.665659    21A     -0.638756
      22A     -0.616491    23A     -0.597413    24A     -0.590758
      25A     -0.579864    26A     -0.561972    27A     -0.541804
      28A     -0.525241    29A     -0.517554    30A     -0.508984
      31A     -0.493191    32A     -0.476660    33A     -0.426945
      34A     -0.405909    35A     -0.365109

  @DF-RHF Final Energy:  -402.09151033778824

   => Energetics <=

    Nuclear Repulsion Energy =            484.1017091747918926
    One-Electron Energy =               -1506.1906719143821647
    Two-Electron Energy =                 619.9974524018019792
    Total Energy =                       -402.0915103377882360
  Basis Set: (AUG-CC-PVTZ AUX)
    Blend: AUG-CC-PVTZ-RI
    Molecular point group: c1

    Geometry (in Angstrom), charge = 0, multiplicity = 1:

       Center              X                  Y                   Z               Mass
    ------------   -----------------  -----------------  -----------------  -----------------
         O            1.740763049328     1.571290691276    -0.294416502851    15.994914619570
         N            0.957437049328    -0.521028308724     0.202551497149    14.003074004430
         C           -2.376123250672    -0.386932308724    -0.146560102851    12.000000000000
         C           -1.306249950672    -1.464131308724    -0.318581502851    12.000000000000
         C           -1.632141950672     1.095239691276    -0.398896502851    12.000000000000
         C           -0.117347950672    -1.404970308724     0.642346497149    12.000000000000
         C           -0.491694950672     1.431360691276     0.574940497149    12.000000000000
         C            0.837526049328     0.844060691276     0.137169497149    12.000000000000
         C            2.158669049328    -1.147780308724    -0.329264502851    12.000000000000
         H           -2.703129950672    -0.305604308724     0.826460497149     1.007825032230
         H           -3.094076950672    -0.408147308724    -0.882969502851     1.007825032230
         H           -1.865381950672    -2.389665308724    -0.128828502851     1.007825032230
         H           -0.921929950672    -1.529572308724    -1.344269502851     1.007825032230
         H           -2.416684950672     1.853767691276    -0.292644502851     1.007825032230
         H           -1.257822950672     1.180003691276    -1.427133502851     1.007825032230
         H           -0.457652950672    -1.119061308724     1.645935497149     1.007825032230
         H            0.328799049328    -2.399147308724     0.741670497149     1.007825032230
         H           -0.755089950672     1.111035691276     1.591143497149     1.007825032230
         H           -0.324259950672     2.510463691276     0.603198497149     1.007825032230
         H            1.915400049328    -1.786888308724    -1.185844502851     1.007825032230
         H            2.643074049328    -1.757829308724     0.440170497149     1.007825032230
         H            2.834227049328    -0.355951308724    -0.647438502851     1.007825032230

  Basis Set: AUG-CC-PVTZ
    Blend: AUG-CC-PVTZ
  Basis Set: (AUG-CC-PVTZ AUX)
    Blend: AUG-CC-PVTZ-JKFIT
	 Reference Energy          =    -402.0915103377882360 [Eh]
	 Singles Energy            =      -0.0000000000000000 [Eh]
	 Same-Spin Energy          =      -0.4215767484582008 [Eh]
	 Opposite-Spin Energy      =      -1.4057902421792137 [Eh]
	 Correlation Energy        =      -1.8273669906374144 [Eh]
	 Total Energy              =    -403.9188773284256513 [Eh]

	 ================> DF-SCS-MP2 Energies <==================
	-----------------------------------------------------------
	 SCS Same-Spin Scale       =       0.3333333333333333 [-]
	 SCS Opposite-Spin Scale   =       1.2000000000000000 [-]
	 SCS Same-Spin Energy      =      -0.1405255828194003 [Eh]
	 SCS Opposite-Spin Energy  =      -1.6869482906150564 [Eh]
	 SCS Correlation Energy    =      -1.8274738734344567 [Eh]
	 SCS Total Energy          =    -403.9189842112226643 [Eh]
	-----------------------------------------------------------

  Dipole Moment: [D]
     X:    -2.5955      Y:    -3.1239      Z:     0.8224     Total:     4.1439

*** Psi4 exiting successfully. Buy a developer a beer!
