                               Psi4 1.4a3.dev225

  ==> Input File <==

--------------------------------------------------------------------------
#psi4
#
memory 32 gb

molecule  {
0 1
  O        1.7739800     1.6003060    -0.2911220
  N        0.9906540    -0.4920130     0.2058460
  C       -2.2286800    -0.2510300    -0.1765170
  C       -1.2730330    -1.4351160    -0.3152870
  C       -1.5989250     1.1242550    -0.3956020
  C       -0.0841310    -1.3759550     0.6456410
  C       -0.4584780     1.4603760     0.5782350
  C        0.8707430     0.8730760     0.1404640
  C        2.1918860    -1.1187650    -0.3259700
  H       -2.6699130    -0.2765890     0.8297550
  H       -3.0608600    -0.3791320    -0.8796750
  H       -1.8321650    -2.3606500    -0.1255340
  H       -0.8887130    -1.5005570    -1.3409750
  H       -2.3834680     1.8827830    -0.2893500
  H       -1.2246060     1.2090190    -1.4238390
  H       -0.4244360    -1.0900460     1.6492300
  H        0.3620160    -2.3701320     0.7449650
  H       -0.7098740     1.1546435     1.5481446
  H       -0.2910430     2.5394790     0.6064930
  H        1.9486170    -1.7578730    -1.1825500
  H        2.6762910    -1.7288140     0.4434650
  H        2.8674440    -0.3269360    -0.6441440
units angstrom
no_reorient  #important for SAPT in psi4, default
symmetry c1  #important for SAPT in psi4, default
}

set PROPERTIES_ORIGIN ["COM"]
properties('MP2/aug-cc-pvtz', properties = ['dipole'])
--------------------------------------------------------------------------

    Molecular point group: c1
  Charge       = 0
  Multiplicity = 1
  Basis Set: AUG-CC-PVTZ
    Blend: AUG-CC-PVTZ
  Basis Set: (AUG-CC-PVTZ AUX)
    Blend: AUG-CC-PVTZ-JKFIT

    Orbital Energies [Eh]
    ---------------------

    Doubly Occupied:

       1A    -20.505314     2A    -15.580488     3A    -11.339443
       4A    -11.272411     5A    -11.250534     6A    -11.234110
       7A    -11.233407     8A    -11.231470     9A    -11.227460
      10A     -1.361536    11A     -1.241148    12A     -1.098176
      13A     -1.039593    14A     -0.976037    15A     -0.914710
      16A     -0.878991    17A     -0.793412    18A     -0.726004
      19A     -0.693335    20A     -0.668976    21A     -0.633287
      22A     -0.609749    23A     -0.603131    24A     -0.594531
      25A     -0.582983    26A     -0.559522    27A     -0.544178
      28A     -0.526964    29A     -0.512041    30A     -0.509343
      31A     -0.479439    32A     -0.467104    33A     -0.465815
      34A     -0.407356    35A     -0.365025

  @DF-RHF Final Energy:  -402.11130112992845

   => Energetics <=

    Nuclear Repulsion Energy =            486.5482587161097854
    One-Electron Energy =               -1511.0650760912080841
    Two-Electron Energy =                 622.4055162451697925
    Total Energy =                       -402.1113011299285063
  Basis Set: (AUG-CC-PVTZ AUX)
    Blend: AUG-CC-PVTZ-RI
    Molecular point group: c1

    Geometry (in Angstrom), charge = 0, multiplicity = 1:

       Center              X                  Y                   Z               Mass
    ------------   -----------------  -----------------  -----------------  -----------------
         O            1.729883335687     1.561083345834    -0.290910024093    15.994914619570
         N            0.946557335687    -0.531235654166     0.206057975907    14.003074004430
         C           -2.272776664313    -0.290252654166    -0.176305024093    12.000000000000
         C           -1.317129664313    -1.474338654166    -0.315075024093    12.000000000000
         C           -1.643021664313     1.085032345834    -0.395390024093    12.000000000000
         C           -0.128227664313    -1.415177654166     0.645852975907    12.000000000000
         C           -0.502574664313     1.421153345834     0.578446975907    12.000000000000
         C            0.826646335687     0.833853345834     0.140675975907    12.000000000000
         C            2.147789335687    -1.157987654166    -0.325758024093    12.000000000000
         H           -2.714009664313    -0.315811654166     0.829966975907     1.007825032230
         H           -3.104956664313    -0.418354654166    -0.879463024093     1.007825032230
         H           -1.876261664313    -2.399872654166    -0.125322024093     1.007825032230
         H           -0.932809664313    -1.539779654166    -1.340763024093     1.007825032230
         H           -2.427564664313     1.843560345834    -0.289138024093     1.007825032230
         H           -1.268702664313     1.169796345834    -1.423627024093     1.007825032230
         H           -0.468532664313    -1.129268654166     1.649441975907     1.007825032230
         H            0.317919335687    -2.409354654166     0.745176975907     1.007825032230
         H           -0.753970664313     1.115420845834     1.548356575907     1.007825032230
         H           -0.335139664313     2.500256345834     0.606704975907     1.007825032230
         H            1.904520335687    -1.797095654166    -1.182338024093     1.007825032230
         H            2.632194335687    -1.768036654166     0.443676975907     1.007825032230
         H            2.823347335687    -0.366158654166    -0.643932024093     1.007825032230

  Basis Set: AUG-CC-PVTZ
    Blend: AUG-CC-PVTZ
  Basis Set: (AUG-CC-PVTZ AUX)
    Blend: AUG-CC-PVTZ-JKFIT
	 Reference Energy          =    -402.1113011299284494 [Eh]
	 Singles Energy            =      -0.0000000000000000 [Eh]
	 Same-Spin Energy          =      -0.4217039086213932 [Eh]
	 Opposite-Spin Energy      =      -1.4048595516180653 [Eh]
	 Correlation Energy        =      -1.8265634602394585 [Eh]
	 Total Energy              =    -403.9378645901679192 [Eh]

	 ================> DF-SCS-MP2 Energies <==================
	-----------------------------------------------------------
	 SCS Same-Spin Scale       =       0.3333333333333333 [-]
	 SCS Opposite-Spin Scale   =       1.2000000000000000 [-]
	 SCS Same-Spin Energy      =      -0.1405679695404644 [Eh]
	 SCS Opposite-Spin Energy  =      -1.6858314619416783 [Eh]
	 SCS Correlation Energy    =      -1.8263994314821428 [Eh]
	 SCS Total Energy          =    -403.9377005614105656 [Eh]
	-----------------------------------------------------------

  Dipole Moment: [D]
     X:    -2.5863      Y:    -3.1056      Z:     0.8177     Total:     4.1233

*** Psi4 exiting successfully. Buy a developer a beer!
