                               Psi4 1.4a3.dev225

  ==> Input File <==

--------------------------------------------------------------------------
#psi4
#
memory 32 gb

molecule  {
0 1
  O        1.7739800     1.6003060    -0.2911220
  N        0.9906540    -0.4920130     0.2058460
  C       -2.2286800    -0.2510300    -0.1765170
  C       -1.2730330    -1.4351160    -0.3152870
  C       -1.5783232     1.1692461    -0.4027691
  C       -0.0841310    -1.3759550     0.6456410
  C       -0.4584780     1.4603760     0.5782350
  C        0.8707430     0.8730760     0.1404640
  C        2.1918860    -1.1187650    -0.3259700
  H       -2.6699130    -0.2765890     0.8297550
  H       -3.0608600    -0.3791320    -0.8796750
  H       -1.8321650    -2.3606500    -0.1255340
  H       -0.8887130    -1.5005570    -1.3409750
  H       -2.3834680     1.8827830    -0.2893500
  H       -1.2246060     1.2090190    -1.4238390
  H       -0.4244360    -1.0900460     1.6492300
  H        0.3620160    -2.3701320     0.7449650
  H       -0.7218730     1.1400510     1.5944380
  H       -0.2910430     2.5394790     0.6064930
  H        1.9486170    -1.7578730    -1.1825500
  H        2.6762910    -1.7288140     0.4434650
  H        2.8674440    -0.3269360    -0.6441440
units angstrom
no_reorient  #important for SAPT in psi4, default
symmetry c1  #important for SAPT in psi4, default
}

set PROPERTIES_ORIGIN ["COM"]
properties('MP2/aug-cc-pvtz', properties = ['dipole'])
--------------------------------------------------------------------------

    Molecular point group: c1
  Charge       = 0
  Multiplicity = 1
  Basis Set: AUG-CC-PVTZ
    Blend: AUG-CC-PVTZ
  Basis Set: (AUG-CC-PVTZ AUX)
    Blend: AUG-CC-PVTZ-JKFIT

    Orbital Energies [Eh]
    ---------------------

    Doubly Occupied:

       1A    -20.505919     2A    -15.580880     3A    -11.340350
       4A    -11.272015     5A    -11.250709     6A    -11.233467
       7A    -11.233193     8A    -11.232679     9A    -11.232474
      10A     -1.362100    11A     -1.241288    12A     -1.094050
      13A     -1.040157    14A     -0.972926    15A     -0.914249
      16A     -0.877196    17A     -0.793944    18A     -0.725542
      19A     -0.691427    20A     -0.667947    21A     -0.633002
      22A     -0.608844    23A     -0.599605    24A     -0.593948
      25A     -0.583750    26A     -0.558348    27A     -0.546877
      28A     -0.527414    29A     -0.511584    30A     -0.508864
      31A     -0.481444    32A     -0.470482    33A     -0.455683
      34A     -0.407722    35A     -0.365198

  @DF-RHF Final Energy:  -402.11013512651249

   => Energetics <=

    Nuclear Repulsion Energy =            485.9778531490946420
    One-Electron Energy =               -1509.9454201443163583
    Two-Electron Energy =                 621.8574318687092273
    Total Energy =                       -402.1101351265124322
  Basis Set: (AUG-CC-PVTZ AUX)
    Blend: AUG-CC-PVTZ-RI
    Molecular point group: c1

    Geometry (in Angstrom), charge = 0, multiplicity = 1:

       Center              X                  Y                   Z               Mass
    ------------   -----------------  -----------------  -----------------  -----------------
         O            1.728033381034     1.556951263263    -0.290600428175    15.994914619570
         N            0.944707381034    -0.535367736737     0.206367571825    14.003074004430
         C           -2.274626618966    -0.294384736737    -0.175995428175    12.000000000000
         C           -1.318979618966    -1.478470736737    -0.314765428175    12.000000000000
         C           -1.624269818966     1.125891363263    -0.402247528175    12.000000000000
         C           -0.130077618966    -1.419309736737     0.646162571825    12.000000000000
         C           -0.504424618966     1.417021263263     0.578756571825    12.000000000000
         C            0.824796381034     0.829721263263     0.140985571825    12.000000000000
         C            2.145939381034    -1.162119736737    -0.325448428175    12.000000000000
         H           -2.715859618966    -0.319943736737     0.830276571825     1.007825032230
         H           -3.106806618966    -0.422486736737    -0.879153428175     1.007825032230
         H           -1.878111618966    -2.404004736737    -0.125012428175     1.007825032230
         H           -0.934659618966    -1.543911736737    -1.340453428175     1.007825032230
         H           -2.429414618966     1.839428263263    -0.288828428175     1.007825032230
         H           -1.270552618966     1.165664263263    -1.423317428175     1.007825032230
         H           -0.470382618966    -1.133400736737     1.649751571825     1.007825032230
         H            0.316069381034    -2.413486736737     0.745486571825     1.007825032230
         H           -0.767819618966     1.096696263263     1.594959571825     1.007825032230
         H           -0.336989618966     2.496124263263     0.607014571825     1.007825032230
         H            1.902670381034    -1.801227736737    -1.182028428175     1.007825032230
         H            2.630344381034    -1.772168736737     0.443986571825     1.007825032230
         H            2.821497381034    -0.370290736737    -0.643622428175     1.007825032230

  Basis Set: AUG-CC-PVTZ
    Blend: AUG-CC-PVTZ
  Basis Set: (AUG-CC-PVTZ AUX)
    Blend: AUG-CC-PVTZ-JKFIT
	 Reference Energy          =    -402.1101351265124890 [Eh]
	 Singles Energy            =      -0.0000000000000000 [Eh]
	 Same-Spin Energy          =      -0.4216693106019552 [Eh]
	 Opposite-Spin Energy      =      -1.4052185181916537 [Eh]
	 Correlation Energy        =      -1.8268878287936090 [Eh]
	 Total Energy              =    -403.9370229553060767 [Eh]

	 ================> DF-SCS-MP2 Energies <==================
	-----------------------------------------------------------
	 SCS Same-Spin Scale       =       0.3333333333333333 [-]
	 SCS Opposite-Spin Scale   =       1.2000000000000000 [-]
	 SCS Same-Spin Energy      =      -0.1405564368673184 [Eh]
	 SCS Opposite-Spin Energy  =      -1.6862622218299843 [Eh]
	 SCS Correlation Energy    =      -1.8268186586973028 [Eh]
	 SCS Total Energy          =    -403.9369537852097665 [Eh]
	-----------------------------------------------------------

  Dipole Moment: [D]
     X:    -2.5576      Y:    -3.0922      Z:     0.7899     Total:     4.0899

*** Psi4 exiting successfully. Buy a developer a beer!
