                               Psi4 1.3.2 release

  ==> Input File <==

--------------------------------------------------------------------------
#psi4
#
memory 32 gb

molecule  {
0 1
  O        1.7739800     1.6003060    -0.2911220
  N        1.0038104    -0.4979325     0.2268381
  C       -2.2286800    -0.2510300    -0.1765170
  C       -1.2730330    -1.4351160    -0.3152870
  C       -1.5989250     1.1242550    -0.3956020
  C       -0.0841310    -1.3759550     0.6456410
  C       -0.4584780     1.4603760     0.5782350
  C        0.8707430     0.8730760     0.1404640
  C        2.1918860    -1.1187650    -0.3259700
  H       -2.6699130    -0.2765890     0.8297550
  H       -3.0608600    -0.3791320    -0.8796750
  H       -1.8321650    -2.3606500    -0.1255340
  H       -0.8887130    -1.5005570    -1.3409750
  H       -2.3834680     1.8827830    -0.2893500
  H       -1.2246060     1.2090190    -1.4238390
  H       -0.4244360    -1.0900460     1.6492300
  H        0.3620160    -2.3701320     0.7449650
  H       -0.7218730     1.1400510     1.5944380
  H       -0.2910430     2.5394790     0.6064930
  H        1.9486170    -1.7578730    -1.1825500
  H        2.6762910    -1.7288140     0.4434650
  H        2.8674440    -0.3269360    -0.6441440
units angstrom
no_reorient  #important for SAPT in psi4, default
symmetry c1  #important for SAPT in psi4, default
}

set PROPERTIES_ORIGIN ["COM"]
properties('MP2/aug-cc-pvtz', properties = ['dipole'])
--------------------------------------------------------------------------

    Molecular point group: c1
  Charge       = 0
  Multiplicity = 1
  Basis Set: AUG-CC-PVTZ
    Blend: AUG-CC-PVTZ
  Basis Set: (AUG-CC-PVTZ AUX)
    Blend: AUG-CC-PVTZ-JKFIT

    Orbital Energies [Eh]
    ---------------------

    Doubly Occupied:

       1A    -20.507320     2A    -15.580069     3A    -11.341187
       4A    -11.271655     5A    -11.249643     6A    -11.235063
       7A    -11.234154     8A    -11.233709     9A    -11.231700
      10A     -1.362181    11A     -1.240672    12A     -1.098006
      13A     -1.037898    14A     -0.975871    15A     -0.912112
      16A     -0.878699    17A     -0.792581    18A     -0.724542
      19A     -0.690918    20A     -0.668641    21A     -0.633125
      22A     -0.609488    23A     -0.602197    24A     -0.593951
      25A     -0.583271    26A     -0.558003    27A     -0.544678
      28A     -0.527006    29A     -0.509867    30A     -0.508951
      31A     -0.479641    32A     -0.467885    33A     -0.465513
      34A     -0.408267    35A     -0.364769

  @DF-RHF Final Energy:  -402.11165033735483

   => Energetics <=

    Nuclear Repulsion Energy =            486.0618064556566083
    One-Electron Energy =               -1510.1004519400780737
    Two-Electron Energy =                 621.9269951470666911
    Total Energy =                       -402.1116503373548312
  Basis Set: (AUG-CC-PVTZ AUX)
    Blend: AUG-CC-PVTZ-RI
    Molecular point group: c1

    Geometry (in Angstrom), charge = 0, multiplicity = 1:

       Center              X                  Y                   Z               Mass
    ------------   -----------------  -----------------  -----------------  -----------------
         O            1.728528988421     1.561851230200    -0.293589885175    15.994914619570
         N            0.958359388421    -0.536387269800     0.224370214825    14.003074004430
         C           -2.274131011579    -0.289484769800    -0.178984885175    12.000000000000
         C           -1.318484011579    -1.473570769800    -0.317754885175    12.000000000000
         C           -1.644376011579     1.085800230200    -0.398069885175    12.000000000000
         C           -0.129582011579    -1.414409769800     0.643173114825    12.000000000000
         C           -0.503929011579     1.421921230200     0.575767114825    12.000000000000
         C            0.825291988421     0.834621230200     0.137996114825    12.000000000000
         C            2.146434988421    -1.157219769800    -0.328437885175    12.000000000000
         H           -2.715364011579    -0.315043769800     0.827287114825     1.007825032230
         H           -3.106311011579    -0.417586769800    -0.882142885175     1.007825032230
         H           -1.877616011579    -2.399104769800    -0.128001885175     1.007825032230
         H           -0.934164011579    -1.539011769800    -1.343442885175     1.007825032230
         H           -2.428919011579     1.844328230200    -0.291817885175     1.007825032230
         H           -1.270057011579     1.170564230200    -1.426306885175     1.007825032230
         H           -0.469887011579    -1.128500769800     1.646762114825     1.007825032230
         H            0.316564988421    -2.408586769800     0.742497114825     1.007825032230
         H           -0.767324011579     1.101596230200     1.591970114825     1.007825032230
         H           -0.336494011579     2.501024230200     0.604025114825     1.007825032230
         H            1.903165988421    -1.796327769800    -1.185017885175     1.007825032230
         H            2.630839988421    -1.767268769800     0.440997114825     1.007825032230
         H            2.821992988421    -0.365390769800    -0.646611885175     1.007825032230

  Basis Set: AUG-CC-PVTZ
    Blend: AUG-CC-PVTZ
  Basis Set: (AUG-CC-PVTZ AUX)
    Blend: AUG-CC-PVTZ-JKFIT
	 Reference Energy          =    -402.1116503373548312 [Eh]
	 Singles Energy            =      -0.0000000000000000 [Eh]
	 Same-Spin Energy          =      -0.4218081398237136 [Eh]
	 Opposite-Spin Energy      =      -1.4052694841876332 [Eh]
	 Correlation Energy        =      -1.8270776240113469 [Eh]
	 Total Energy              =    -403.9387279613661690 [Eh]

	 ================> DF-SCS-MP2 Energies <==================
	-----------------------------------------------------------
	 SCS Same-Spin Scale       =       0.3333333333333333 [-]
	 SCS Opposite-Spin Scale   =       1.2000000000000000 [-]
	 SCS Same-Spin Energy      =      -0.1406027132745712 [Eh]
	 SCS Opposite-Spin Energy  =      -1.6863233810251599 [Eh]
	 SCS Correlation Energy    =      -1.8269260942997310 [Eh]
	 SCS Total Energy          =    -403.9385764316545533 [Eh]
	-----------------------------------------------------------

  Dipole Moment: [D]
     X:    -2.6036      Y:    -3.0458      Z:     0.7589     Total:     4.0782

*** Psi4 exiting successfully. Buy a developer a beer!
