                               Psi4 1.3.2 release

  ==> Input File <==

--------------------------------------------------------------------------
#psi4
#
memory 32 gb

molecule  {
0 1
  O        1.7739800     1.6003060    -0.2911220
  N        0.9906540    -0.4920130     0.2058460
  C       -2.2286800    -0.2510300    -0.1765170
  C       -1.2730330    -1.4351160    -0.3152870
  C       -1.5989250     1.1242550    -0.3956020
  C       -0.0841310    -1.3759550     0.6456410
  C       -0.5154663     1.5456639     0.6096279
  C        0.8707430     0.8730760     0.1404640
  C        2.1918860    -1.1187650    -0.3259700
  H       -2.6699130    -0.2765890     0.8297550
  H       -3.0608600    -0.3791320    -0.8796750
  H       -1.8321650    -2.3606500    -0.1255340
  H       -0.8887130    -1.5005570    -1.3409750
  H       -2.3834680     1.8827830    -0.2893500
  H       -1.2246060     1.2090190    -1.4238390
  H       -0.4244360    -1.0900460     1.6492300
  H        0.3620160    -2.3701320     0.7449650
  H       -0.7218730     1.1400510     1.5944380
  H       -0.2910430     2.5394790     0.6064930
  H        1.9486170    -1.7578730    -1.1825500
  H        2.6762910    -1.7288140     0.4434650
  H        2.8674440    -0.3269360    -0.6441440
units angstrom
no_reorient  #important for SAPT in psi4, default
symmetry c1  #important for SAPT in psi4, default
}

set PROPERTIES_ORIGIN ["COM"]
properties('MP2/aug-cc-pvtz', properties = ['dipole'])
--------------------------------------------------------------------------

    Molecular point group: c1
  Charge       = 0
  Multiplicity = 1
  Basis Set: AUG-CC-PVTZ
    Blend: AUG-CC-PVTZ
  Basis Set: (AUG-CC-PVTZ AUX)
    Blend: AUG-CC-PVTZ-JKFIT

    Orbital Energies [Eh]
    ---------------------

    Doubly Occupied:

       1A    -20.504837     2A    -15.581259     3A    -11.341131
       4A    -11.272393     5A    -11.250918     6A    -11.233666
       7A    -11.233414     8A    -11.232997     9A    -11.232454
      10A     -1.359110    11A     -1.240026    12A     -1.096283
      13A     -1.034881    14A     -0.971993    15A     -0.916871
      16A     -0.874752    17A     -0.792093    18A     -0.727026
      19A     -0.681914    20A     -0.668692    21A     -0.632438
      22A     -0.609823    23A     -0.606984    24A     -0.595566
      25A     -0.583877    26A     -0.561307    27A     -0.537864
      28A     -0.531328    29A     -0.512887    30A     -0.507847
      31A     -0.480055    32A     -0.476088    33A     -0.463214
      34A     -0.394850    35A     -0.365135

  @DF-RHF Final Energy:  -402.10223519281897

   => Energetics <=

    Nuclear Repulsion Energy =            484.5071506864233015
    One-Electron Energy =               -1507.0068299342069622
    Two-Electron Energy =                 620.3974440549646943
    Total Energy =                       -402.1022351928189664
  Basis Set: (AUG-CC-PVTZ AUX)
    Blend: AUG-CC-PVTZ-RI
    Molecular point group: c1

    Geometry (in Angstrom), charge = 0, multiplicity = 1:

       Center              X                  Y                   Z               Mass
    ------------   -----------------  -----------------  -----------------  -----------------
         O            1.735358977374     1.553146678778    -0.294241034321    15.994914619570
         N            0.952032977374    -0.539172321222     0.202726965679    14.003074004430
         C           -2.267301022626    -0.298189321222    -0.179636034321    12.000000000000
         C           -1.311654022626    -1.482275321222    -0.318406034321    12.000000000000
         C           -1.637546022626     1.077095678778    -0.398721034321    12.000000000000
         C           -0.122752022626    -1.423114321222     0.642521965679    12.000000000000
         C           -0.554087322626     1.498504578778     0.606508865679    12.000000000000
         C            0.832121977374     0.825916678778     0.137344965679    12.000000000000
         C            2.153264977374    -1.165924321222    -0.329089034321    12.000000000000
         H           -2.708534022626    -0.323748321222     0.826635965679     1.007825032230
         H           -3.099481022626    -0.426291321222    -0.882794034321     1.007825032230
         H           -1.870786022626    -2.407809321222    -0.128653034321     1.007825032230
         H           -0.927334022626    -1.547716321222    -1.344094034321     1.007825032230
         H           -2.422089022626     1.835623678778    -0.292469034321     1.007825032230
         H           -1.263227022626     1.161859678778    -1.426958034321     1.007825032230
         H           -0.463057022626    -1.137205321222     1.646110965679     1.007825032230
         H            0.323394977374    -2.417291321222     0.741845965679     1.007825032230
         H           -0.760494022626     1.092891678778     1.591318965679     1.007825032230
         H           -0.329664022626     2.492319678778     0.603373965679     1.007825032230
         H            1.909995977374    -1.805032321222    -1.185669034321     1.007825032230
         H            2.637669977374    -1.775973321222     0.440345965679     1.007825032230
         H            2.828822977374    -0.374095321222    -0.647263034321     1.007825032230

  Basis Set: AUG-CC-PVTZ
    Blend: AUG-CC-PVTZ
  Basis Set: (AUG-CC-PVTZ AUX)
    Blend: AUG-CC-PVTZ-JKFIT
	 Reference Energy          =    -402.1022351928189664 [Eh]
	 Singles Energy            =      -0.0000000000000000 [Eh]
	 Same-Spin Energy          =      -0.4213299829816076 [Eh]
	 Opposite-Spin Energy      =      -1.4049911077472270 [Eh]
	 Correlation Energy        =      -1.8263210907288345 [Eh]
	 Total Energy              =    -403.9285562835477776 [Eh]

	 ================> DF-SCS-MP2 Energies <==================
	-----------------------------------------------------------
	 SCS Same-Spin Scale       =       0.3333333333333333 [-]
	 SCS Opposite-Spin Scale   =       1.2000000000000000 [-]
	 SCS Same-Spin Energy      =      -0.1404433276605359 [Eh]
	 SCS Opposite-Spin Energy  =      -1.6859893292966723 [Eh]
	 SCS Correlation Energy    =      -1.8264326569572082 [Eh]
	 SCS Total Energy          =    -403.9286678497761613 [Eh]
	-----------------------------------------------------------

  Dipole Moment: [D]
     X:    -2.5163      Y:    -3.1280      Z:     0.7801     Total:     4.0896

*** Psi4 exiting successfully. Buy a developer a beer!
