                               Psi4 1.3.2 release

  ==> Input File <==

--------------------------------------------------------------------------
#psi4
#
memory 32 gb

molecule  {
0 1
  O        1.7739800     1.6003060    -0.2911220
  N        0.9906540    -0.4920130     0.2058460
  C       -2.2286800    -0.2510300    -0.1765170
  C       -1.2730330    -1.4351160    -0.3152870
  C       -1.5989250     1.1242550    -0.3956020
  C       -0.0841310    -1.3759550     0.6456410
  C       -0.4584780     1.4603760     0.5782350
  C        0.7247444     0.7555270     0.2102253
  C        2.1918860    -1.1187650    -0.3259700
  H       -2.6699130    -0.2765890     0.8297550
  H       -3.0608600    -0.3791320    -0.8796750
  H       -1.8321650    -2.3606500    -0.1255340
  H       -0.8887130    -1.5005570    -1.3409750
  H       -2.3834680     1.8827830    -0.2893500
  H       -1.2246060     1.2090190    -1.4238390
  H       -0.4244360    -1.0900460     1.6492300
  H        0.3620160    -2.3701320     0.7449650
  H       -0.7218730     1.1400510     1.5944380
  H       -0.2910430     2.5394790     0.6064930
  H        1.9486170    -1.7578730    -1.1825500
  H        2.6762910    -1.7288140     0.4434650
  H        2.8674440    -0.3269360    -0.6441440
units angstrom
no_reorient  #important for SAPT in psi4, default
symmetry c1  #important for SAPT in psi4, default
}

set PROPERTIES_ORIGIN ["COM"]
properties('MP2/aug-cc-pvtz', properties = ['dipole'])
--------------------------------------------------------------------------

    Molecular point group: c1
  Charge       = 0
  Multiplicity = 1
  Basis Set: AUG-CC-PVTZ
    Blend: AUG-CC-PVTZ
  Basis Set: (AUG-CC-PVTZ AUX)
    Blend: AUG-CC-PVTZ-JKFIT

    Orbital Energies [Eh]
    ---------------------

    Doubly Occupied:

       1A    -20.464459     2A    -15.609931     3A    -11.337047
       4A    -11.281493     5A    -11.264197     6A    -11.243164
       7A    -11.240357     8A    -11.238291     9A    -11.238187
      10A     -1.330441    11A     -1.192656    12A     -1.111206
      13A     -1.051590    14A     -0.995288    15A     -0.944397
      16A     -0.889978    17A     -0.804120    18A     -0.739687
      19A     -0.702561    20A     -0.671657    21A     -0.644962
      22A     -0.624764    23A     -0.606418    24A     -0.601060
      25A     -0.575496    26A     -0.561560    27A     -0.553606
      28A     -0.526936    29A     -0.507716    30A     -0.486285
      31A     -0.478163    32A     -0.463137    33A     -0.448468
      34A     -0.375008    35A     -0.351620

  @DF-RHF Final Energy:  -402.04983943000389

   => Energetics <=

    Nuclear Repulsion Energy =            487.3971658239237854
    One-Electron Energy =               -1512.5821998073565737
    Two-Electron Energy =                 623.1351945534288461
    Total Energy =                       -402.0498394300038854
  Basis Set: (AUG-CC-PVTZ AUX)
    Blend: AUG-CC-PVTZ-RI
    Molecular point group: c1

    Geometry (in Angstrom), charge = 0, multiplicity = 1:

       Center              X                  Y                   Z               Mass
    ------------   -----------------  -----------------  -----------------  -----------------
         O            1.743762801159     1.572297333981    -0.297863550732    15.994914619570
         N            0.960436801159    -0.520021666019     0.199104449268    14.003074004430
         C           -2.258897198841    -0.279038666019    -0.183258550732    12.000000000000
         C           -1.303250198841    -1.463124666019    -0.322028550732    12.000000000000
         C           -1.629142198841     1.096246333981    -0.402343550732    12.000000000000
         C           -0.114348198841    -1.403963666019     0.638899449268    12.000000000000
         C           -0.488695198841     1.432367333981     0.571493449268    12.000000000000
         C            0.694527201159     0.727518333981     0.203483749268    12.000000000000
         C            2.161668801159    -1.146773666019    -0.332711550732    12.000000000000
         H           -2.700130198841    -0.304597666019     0.823013449268     1.007825032230
         H           -3.091077198841    -0.407140666019    -0.886416550732     1.007825032230
         H           -1.862382198841    -2.388658666019    -0.132275550732     1.007825032230
         H           -0.918930198841    -1.528565666019    -1.347716550732     1.007825032230
         H           -2.413685198841     1.854774333981    -0.296091550732     1.007825032230
         H           -1.254823198841     1.181010333981    -1.430580550732     1.007825032230
         H           -0.454653198841    -1.118054666019     1.642488449268     1.007825032230
         H            0.331798801159    -2.398140666019     0.738223449268     1.007825032230
         H           -0.752090198841     1.112042333981     1.587696449268     1.007825032230
         H           -0.321260198841     2.511470333981     0.599751449268     1.007825032230
         H            1.918399801159    -1.785881666019    -1.189291550732     1.007825032230
         H            2.646073801159    -1.756822666019     0.436723449268     1.007825032230
         H            2.837226801159    -0.354944666019    -0.650885550732     1.007825032230

  Basis Set: AUG-CC-PVTZ
    Blend: AUG-CC-PVTZ
  Basis Set: (AUG-CC-PVTZ AUX)
    Blend: AUG-CC-PVTZ-JKFIT
	 Reference Energy          =    -402.0498394300038854 [Eh]
	 Singles Energy            =      -0.0000000000000000 [Eh]
	 Same-Spin Energy          =      -0.4260524960361869 [Eh]
	 Opposite-Spin Energy      =      -1.4135359981344671 [Eh]
	 Correlation Energy        =      -1.8395884941706540 [Eh]
	 Total Energy              =    -403.8894279241745267 [Eh]

	 ================> DF-SCS-MP2 Energies <==================
	-----------------------------------------------------------
	 SCS Same-Spin Scale       =       0.3333333333333333 [-]
	 SCS Opposite-Spin Scale   =       1.2000000000000000 [-]
	 SCS Same-Spin Energy      =      -0.1420174986787290 [Eh]
	 SCS Opposite-Spin Energy  =      -1.6962431977613603 [Eh]
	 SCS Correlation Energy    =      -1.8382606964400894 [Eh]
	 SCS Total Energy          =    -403.8881001264439874 [Eh]
	-----------------------------------------------------------

  Dipole Moment: [D]
     X:    -3.3340      Y:    -4.3142      Z:     1.0728     Total:     5.5569

*** Psi4 exiting successfully. Buy a developer a beer!
