                               Psi4 1.3.2 release

  ==> Input File <==

--------------------------------------------------------------------------
#psi4
#
memory 32 gb

molecule  {
0 1
  O        1.7739800     1.6003060    -0.2911220
  N        0.9906540    -0.4920130     0.2058460
  C       -2.2286800    -0.2510300    -0.1765170
  C       -1.2730330    -1.4351160    -0.3152870
  C       -1.5989250     1.1242550    -0.3956020
  C       -0.0841310    -1.3759550     0.6456410
  C       -0.4584780     1.4603760     0.5782350
  C        0.9566265     0.8752358     0.0981691
  C        2.1918860    -1.1187650    -0.3259700
  H       -2.6699130    -0.2765890     0.8297550
  H       -3.0608600    -0.3791320    -0.8796750
  H       -1.8321650    -2.3606500    -0.1255340
  H       -0.8887130    -1.5005570    -1.3409750
  H       -2.3834680     1.8827830    -0.2893500
  H       -1.2246060     1.2090190    -1.4238390
  H       -0.4244360    -1.0900460     1.6492300
  H        0.3620160    -2.3701320     0.7449650
  H       -0.7218730     1.1400510     1.5944380
  H       -0.2910430     2.5394790     0.6064930
  H        1.9486170    -1.7578730    -1.1825500
  H        2.6762910    -1.7288140     0.4434650
  H        2.8674440    -0.3269360    -0.6441440
units angstrom
no_reorient  #important for SAPT in psi4, default
symmetry c1  #important for SAPT in psi4, default
}

set PROPERTIES_ORIGIN ["COM"]
properties('MP2/aug-cc-pvtz', properties = ['dipole'])
--------------------------------------------------------------------------

    Molecular point group: c1
  Charge       = 0
  Multiplicity = 1
  Basis Set: AUG-CC-PVTZ
    Blend: AUG-CC-PVTZ
  Basis Set: (AUG-CC-PVTZ AUX)
    Blend: AUG-CC-PVTZ-JKFIT

    Orbital Energies [Eh]
    ---------------------

    Doubly Occupied:

       1A    -20.517823     2A    -15.575372     3A    -11.335688
       4A    -11.272588     5A    -11.248733     6A    -11.231275
       7A    -11.228803     8A    -11.227895     9A    -11.226729
      10A     -1.413731    11A     -1.246850    12A     -1.091694
      13A     -1.028660    14A     -0.968206    15A     -0.910977
      16A     -0.869460    17A     -0.787546    18A     -0.724708
      19A     -0.689901    20A     -0.670257    21A     -0.637750
      22A     -0.614473    23A     -0.602895    24A     -0.593419
      25A     -0.580315    26A     -0.557484    27A     -0.552226
      28A     -0.530104    29A     -0.522472    30A     -0.509372
      31A     -0.476054    32A     -0.469766    33A     -0.460768
      34A     -0.396470    35A     -0.369192

  @DF-RHF Final Energy:  -402.10470654193301

   => Energetics <=

    Nuclear Repulsion Energy =            486.4285693937390533
    One-Electron Energy =               -1510.7872374845990180
    Two-Electron Energy =                 622.2539615489270091
    Total Energy =                       -402.1047065419329556
  Basis Set: (AUG-CC-PVTZ AUX)
    Blend: AUG-CC-PVTZ-RI
    Molecular point group: c1

    Geometry (in Angstrom), charge = 0, multiplicity = 1:

       Center              X                  Y                   Z               Mass
    ------------   -----------------  -----------------  -----------------  -----------------
         O            1.721869870708     1.560995140181    -0.287283869966    15.994914619570
         N            0.938543870708    -0.531323859819     0.209684130034    14.003074004430
         C           -2.280790129292    -0.290340859819    -0.172678869966    12.000000000000
         C           -1.325143129292    -1.474426859819    -0.311448869966    12.000000000000
         C           -1.651035129292     1.084944140181    -0.391763869966    12.000000000000
         C           -0.136241129292    -1.415265859819     0.649479130034    12.000000000000
         C           -0.510588129292     1.421065140181     0.582073130034    12.000000000000
         C            0.904516370708     0.835924940181     0.102007230034    12.000000000000
         C            2.139775870708    -1.158075859819    -0.322131869966    12.000000000000
         H           -2.722023129292    -0.315899859819     0.833593130034     1.007825032230
         H           -3.112970129292    -0.418442859819    -0.875836869966     1.007825032230
         H           -1.884275129292    -2.399960859819    -0.121695869966     1.007825032230
         H           -0.940823129292    -1.539867859819    -1.337136869966     1.007825032230
         H           -2.435578129292     1.843472140181    -0.285511869966     1.007825032230
         H           -1.276716129292     1.169708140181    -1.420000869966     1.007825032230
         H           -0.476546129292    -1.129356859819     1.653068130034     1.007825032230
         H            0.309905870708    -2.409442859819     0.748803130034     1.007825032230
         H           -0.773983129292     1.100740140181     1.598276130034     1.007825032230
         H           -0.343153129292     2.500168140181     0.610331130034     1.007825032230
         H            1.896506870708    -1.797183859819    -1.178711869966     1.007825032230
         H            2.624180870708    -1.768124859819     0.447303130034     1.007825032230
         H            2.815333870708    -0.366246859819    -0.640305869966     1.007825032230

  Basis Set: AUG-CC-PVTZ
    Blend: AUG-CC-PVTZ
  Basis Set: (AUG-CC-PVTZ AUX)
    Blend: AUG-CC-PVTZ-JKFIT
	 Reference Energy          =    -402.1047065419330124 [Eh]
	 Singles Energy            =      -0.0000000000000000 [Eh]
	 Same-Spin Energy          =      -0.4201000686204767 [Eh]
	 Opposite-Spin Energy      =      -1.4021229566440270 [Eh]
	 Correlation Energy        =      -1.8222230252645035 [Eh]
	 Total Energy              =    -403.9269295671975328 [Eh]

	 ================> DF-SCS-MP2 Energies <==================
	-----------------------------------------------------------
	 SCS Same-Spin Scale       =       0.3333333333333333 [-]
	 SCS Opposite-Spin Scale   =       1.2000000000000000 [-]
	 SCS Same-Spin Energy      =      -0.1400333562068256 [Eh]
	 SCS Opposite-Spin Energy  =      -1.6825475479728322 [Eh]
	 SCS Correlation Energy    =      -1.8225809041796577 [Eh]
	 SCS Total Energy          =    -403.9272874461126435 [Eh]
	-----------------------------------------------------------

  Dipole Moment: [D]
     X:    -2.0992      Y:    -2.9209      Z:     0.6421     Total:     3.6538

*** Psi4 exiting successfully. Buy a developer a beer!
