                               Psi4 1.3.2 release

  ==> Input File <==

--------------------------------------------------------------------------
#psi4
#
memory 32 gb

molecule  {
0 1
  O        1.7739800     1.6003060    -0.2911220
  N        0.9906540    -0.4920130     0.2058460
  C       -2.2286800    -0.2510300    -0.1765170
  C       -1.2730330    -1.4351160    -0.3152870
  C       -1.5989250     1.1242550    -0.3956020
  C       -0.0841310    -1.3759550     0.6456410
  C       -0.4584780     1.4603760     0.5782350
  C        0.8707430     0.8730760     0.1404640
  C        2.1918860    -1.1187650    -0.3259700
  H       -2.6699130    -0.2765890     0.8297550
  H       -3.0608600    -0.3791320    -0.8796750
  H       -1.8280218    -2.3665915    -0.1432727
  H       -0.8887130    -1.5005570    -1.3409750
  H       -2.3834680     1.8827830    -0.2893500
  H       -1.2246060     1.2090190    -1.4238390
  H       -0.4244360    -1.0900460     1.6492300
  H        0.3620160    -2.3701320     0.7449650
  H       -0.7218730     1.1400510     1.5944380
  H       -0.2910430     2.5394790     0.6064930
  H        1.9486170    -1.7578730    -1.1825500
  H        2.6762910    -1.7288140     0.4434650
  H        2.8674440    -0.3269360    -0.6441440
units angstrom
no_reorient  #important for SAPT in psi4, default
symmetry c1  #important for SAPT in psi4, default
}

set PROPERTIES_ORIGIN ["COM"]
properties('MP2/aug-cc-pvtz', properties = ['dipole'])
--------------------------------------------------------------------------

    Molecular point group: c1
  Charge       = 0
  Multiplicity = 1
  Basis Set: AUG-CC-PVTZ
    Blend: AUG-CC-PVTZ
  Basis Set: (AUG-CC-PVTZ AUX)
    Blend: AUG-CC-PVTZ-JKFIT

    Orbital Energies [Eh]
    ---------------------

    Doubly Occupied:

       1A    -20.505723     2A    -15.580613     3A    -11.339952
       4A    -11.272297     5A    -11.250594     6A    -11.234735
       7A    -11.233535     8A    -11.233319     9A    -11.231579
      10A     -1.361861    11A     -1.241208    12A     -1.097514
      13A     -1.038075    14A     -0.975626    15A     -0.913913
      16A     -0.878253    17A     -0.792784    18A     -0.725337
      19A     -0.690508    20A     -0.668862    21A     -0.633397
      22A     -0.608294    23A     -0.601539    24A     -0.594161
      25A     -0.583249    26A     -0.558298    27A     -0.544398
      28A     -0.527456    29A     -0.509516    30A     -0.508936
      31A     -0.479003    32A     -0.467690    33A     -0.465561
      34A     -0.407467    35A     -0.365176

  @DF-RHF Final Energy:  -402.11202218618513

   => Energetics <=

    Nuclear Repulsion Energy =            486.2891277713470117
    One-Electron Energy =               -1510.5614369769391487
    Two-Electron Energy =                 622.1602870194069510
    Total Energy =                       -402.1120221861851860
  Basis Set: (AUG-CC-PVTZ AUX)
    Blend: AUG-CC-PVTZ-RI
    Molecular point group: c1

    Geometry (in Angstrom), charge = 0, multiplicity = 1:

       Center              X                  Y                   Z               Mass
    ------------   -----------------  -----------------  -----------------  -----------------
         O            1.729945627503     1.561246168224    -0.291136445857    15.994914619570
         N            0.946619627503    -0.531072831776     0.205831554143    14.003074004430
         C           -2.272714372497    -0.290089831776    -0.176531445857    12.000000000000
         C           -1.317067372497    -1.474175831776    -0.315301445857    12.000000000000
         C           -1.642959372497     1.085195168224    -0.395616445857    12.000000000000
         C           -0.128165372497    -1.415014831776     0.645626554143    12.000000000000
         C           -0.502512372497     1.421316168224     0.578220554143    12.000000000000
         C            0.826708627503     0.834016168224     0.140449554143    12.000000000000
         C            2.147851627503    -1.157824831776    -0.325984445857    12.000000000000
         H           -2.713947372497    -0.315648831776     0.829740554143     1.007825032230
         H           -3.104894372497    -0.418191831776    -0.879689445857     1.007825032230
         H           -1.872056172497    -2.405651331776    -0.143287145857     1.007825032230
         H           -0.932747372497    -1.539616831776    -1.340989445857     1.007825032230
         H           -2.427502372497     1.843723168224    -0.289364445857     1.007825032230
         H           -1.268640372497     1.169959168224    -1.423853445857     1.007825032230
         H           -0.468470372497    -1.129105831776     1.649215554143     1.007825032230
         H            0.317981627503    -2.409191831776     0.744950554143     1.007825032230
         H           -0.765907372497     1.100991168224     1.594423554143     1.007825032230
         H           -0.335077372497     2.500419168224     0.606478554143     1.007825032230
         H            1.904582627503    -1.796932831776    -1.182564445857     1.007825032230
         H            2.632256627503    -1.767873831776     0.443450554143     1.007825032230
         H            2.823409627503    -0.365995831776    -0.644158445857     1.007825032230

  Basis Set: AUG-CC-PVTZ
    Blend: AUG-CC-PVTZ
  Basis Set: (AUG-CC-PVTZ AUX)
    Blend: AUG-CC-PVTZ-JKFIT
	 Reference Energy          =    -402.1120221861851292 [Eh]
	 Singles Energy            =      -0.0000000000000000 [Eh]
	 Same-Spin Energy          =      -0.4217812676380110 [Eh]
	 Opposite-Spin Energy      =      -1.4052007963929656 [Eh]
	 Correlation Energy        =      -1.8269820640309766 [Eh]
	 Total Energy              =    -403.9390042502161009 [Eh]

	 ================> DF-SCS-MP2 Energies <==================
	-----------------------------------------------------------
	 SCS Same-Spin Scale       =       0.3333333333333333 [-]
	 SCS Opposite-Spin Scale   =       1.2000000000000000 [-]
	 SCS Same-Spin Energy      =      -0.1405937558793370 [Eh]
	 SCS Opposite-Spin Energy  =      -1.6862409556715587 [Eh]
	 SCS Correlation Energy    =      -1.8268347115508958 [Eh]
	 SCS Total Energy          =    -403.9388568977360023 [Eh]
	-----------------------------------------------------------

  Dipole Moment: [D]
     X:    -2.5790      Y:    -3.1055      Z:     0.7881     Total:     4.1129

*** Psi4 exiting successfully. Buy a developer a beer!
