                               Psi4 1.3.2 release

  ==> Input File <==

--------------------------------------------------------------------------
#psi4
#
memory 32 gb

molecule  {
0 1
  O        1.7739800     1.6003060    -0.2911220
  N        0.9906540    -0.4920130     0.2058460
  C       -2.2286800    -0.2510300    -0.1765170
  C       -1.2730330    -1.4351160    -0.3152870
  C       -1.5989250     1.1242550    -0.3956020
  C       -0.0841310    -1.3759550     0.6456410
  C       -0.4584780     1.4603760     0.5782350
  C        0.9996567     0.8738172     0.0772055
  C        2.1918860    -1.1187650    -0.3259700
  H       -2.6699130    -0.2765890     0.8297550
  H       -3.0608600    -0.3791320    -0.8796750
  H       -1.8321650    -2.3606500    -0.1255340
  H       -0.8887130    -1.5005570    -1.3409750
  H       -2.3834680     1.8827830    -0.2893500
  H       -1.2246060     1.2090190    -1.4238390
  H       -0.4244360    -1.0900460     1.6492300
  H        0.3620160    -2.3701320     0.7449650
  H       -0.7218730     1.1400510     1.5944380
  H       -0.2910430     2.5394790     0.6064930
  H        1.9486170    -1.7578730    -1.1825500
  H        2.6762910    -1.7288140     0.4434650
  H        2.8674440    -0.3269360    -0.6441440
units angstrom
no_reorient  #important for SAPT in psi4, default
symmetry c1  #important for SAPT in psi4, default
}

set PROPERTIES_ORIGIN ["COM"]
properties('MP2/aug-cc-pvtz', properties = ['dipole'])
--------------------------------------------------------------------------

    Molecular point group: c1
  Charge       = 0
  Multiplicity = 1
  Basis Set: AUG-CC-PVTZ
    Blend: AUG-CC-PVTZ
  Basis Set: (AUG-CC-PVTZ AUX)
    Blend: AUG-CC-PVTZ-JKFIT

    Orbital Energies [Eh]
    ---------------------

    Doubly Occupied:

       1A    -20.524409     2A    -15.573889     3A    -11.334675
       4A    -11.273067     5A    -11.248389     6A    -11.230308
       7A    -11.226208     8A    -11.225275     9A    -11.221462
      10A     -1.442572    11A     -1.248803    12A     -1.089227
      13A     -1.024414    14A     -0.964767    15A     -0.909845
      16A     -0.865109    17A     -0.784949    18A     -0.725516
      19A     -0.693021    20A     -0.671576    21A     -0.641388
      22A     -0.619986    23A     -0.601915    24A     -0.593032
      25A     -0.578886    26A     -0.561224    27A     -0.556111
      28A     -0.534654    29A     -0.525443    30A     -0.508008
      31A     -0.474278    32A     -0.468808    33A     -0.458515
      34A     -0.385049    35A     -0.371063

  @DF-RHF Final Energy:  -402.08954132611427

   => Energetics <=

    Nuclear Repulsion Energy =            486.5523278980097075
    One-Electron Energy =               -1510.9720573456513648
    Two-Electron Energy =                 622.3301881215273852
    Total Energy =                       -402.0895413261142721
  Basis Set: (AUG-CC-PVTZ AUX)
    Blend: AUG-CC-PVTZ-RI
    Molecular point group: c1

    Geometry (in Angstrom), charge = 0, multiplicity = 1:

       Center              X                  Y                   Z               Mass
    ------------   -----------------  -----------------  -----------------  -----------------
         O            1.717807214832     1.561129075966    -0.285304611383    15.994914619570
         N            0.934481214832    -0.531189924034     0.211663388617    14.003074004430
         C           -2.284852785168    -0.290206924034    -0.170699611383    12.000000000000
         C           -1.329205785168    -1.474292924034    -0.309469611383    12.000000000000
         C           -1.655097785168     1.085078075966    -0.389784611383    12.000000000000
         C           -0.140303785168    -1.415131924034     0.651458388617    12.000000000000
         C           -0.514650785168     1.421199075966     0.584052388617    12.000000000000
         C            0.943483914832     0.834640275966     0.083022888617    12.000000000000
         C            2.135713214832    -1.157941924034    -0.320152611383    12.000000000000
         H           -2.726085785168    -0.315765924034     0.835572388617     1.007825032230
         H           -3.117032785168    -0.418308924034    -0.873857611383     1.007825032230
         H           -1.888337785168    -2.399826924034    -0.119716611383     1.007825032230
         H           -0.944885785168    -1.539733924034    -1.335157611383     1.007825032230
         H           -2.439640785168     1.843606075966    -0.283532611383     1.007825032230
         H           -1.280778785168     1.169842075966    -1.418021611383     1.007825032230
         H           -0.480608785168    -1.129222924034     1.655047388617     1.007825032230
         H            0.305843214832    -2.409308924034     0.750782388617     1.007825032230
         H           -0.778045785168     1.100874075966     1.600255388617     1.007825032230
         H           -0.347215785168     2.500302075966     0.612310388617     1.007825032230
         H            1.892444214832    -1.797049924034    -1.176732611383     1.007825032230
         H            2.620118214832    -1.767990924034     0.449282388617     1.007825032230
         H            2.811271214832    -0.366112924034    -0.638326611383     1.007825032230

  Basis Set: AUG-CC-PVTZ
    Blend: AUG-CC-PVTZ
  Basis Set: (AUG-CC-PVTZ AUX)
    Blend: AUG-CC-PVTZ-JKFIT
	 Reference Energy          =    -402.0895413261142721 [Eh]
	 Singles Energy            =      -0.0000000000000000 [Eh]
	 Same-Spin Energy          =      -0.4196149453960776 [Eh]
	 Opposite-Spin Energy      =      -1.4012502862806970 [Eh]
	 Correlation Energy        =      -1.8208652316767746 [Eh]
	 Total Energy              =    -403.9104065577910205 [Eh]

	 ================> DF-SCS-MP2 Energies <==================
	-----------------------------------------------------------
	 SCS Same-Spin Scale       =       0.3333333333333333 [-]
	 SCS Opposite-Spin Scale   =       1.2000000000000000 [-]
	 SCS Same-Spin Energy      =      -0.1398716484653592 [Eh]
	 SCS Opposite-Spin Energy  =      -1.6815003435368363 [Eh]
	 SCS Correlation Energy    =      -1.8213719920021956 [Eh]
	 SCS Total Energy          =    -403.9109133181164566 [Eh]
	-----------------------------------------------------------

  Dipole Moment: [D]
     X:    -1.8144      Y:    -2.8539      Z:     0.5519     Total:     3.4266

*** Psi4 exiting successfully. Buy a developer a beer!
