                               Psi4 1.4a3.dev225

  ==> Input File <==

--------------------------------------------------------------------------
#psi4
#
memory 32 gb

molecule  {
0 1
  O        1.7739800     1.6003060    -0.2911220
  N        0.9906540    -0.4920130     0.2058460
  C       -2.2286800    -0.2510300    -0.1765170
  C       -1.2730330    -1.4351160    -0.3152870
  C       -1.5989250     1.1242550    -0.3956020
  C       -0.0841310    -1.3759550     0.6456410
  C       -0.4584780     1.4603760     0.5782350
  C        0.8707430     0.8730760     0.1404640
  C        2.2331501    -1.1402948    -0.3442386
  H       -2.6699130    -0.2765890     0.8297550
  H       -3.0608600    -0.3791320    -0.8796750
  H       -1.8321650    -2.3606500    -0.1255340
  H       -0.8887130    -1.5005570    -1.3409750
  H       -2.3834680     1.8827830    -0.2893500
  H       -1.2246060     1.2090190    -1.4238390
  H       -0.4244360    -1.0900460     1.6492300
  H        0.3620160    -2.3701320     0.7449650
  H       -0.7218730     1.1400510     1.5944380
  H       -0.2910430     2.5394790     0.6064930
  H        1.9486170    -1.7578730    -1.1825500
  H        2.6762910    -1.7288140     0.4434650
  H        2.8674440    -0.3269360    -0.6441440
units angstrom
no_reorient  #important for SAPT in psi4, default
symmetry c1  #important for SAPT in psi4, default
}

set PROPERTIES_ORIGIN ["COM"]
properties('MP2/aug-cc-pvtz', properties = ['dipole'])
--------------------------------------------------------------------------

    Molecular point group: c1
  Charge       = 0
  Multiplicity = 1
  Basis Set: AUG-CC-PVTZ
    Blend: AUG-CC-PVTZ
  Basis Set: (AUG-CC-PVTZ AUX)
    Blend: AUG-CC-PVTZ-JKFIT

    Orbital Energies [Eh]
    ---------------------

    Doubly Occupied:

       1A    -20.504000     2A    -15.579200     3A    -11.338321
       4A    -11.271026     5A    -11.251733     6A    -11.233831
       7A    -11.232489     8A    -11.232463     9A    -11.230762
      10A     -1.359160    11A     -1.232663    12A     -1.095344
      13A     -1.036860    14A     -0.974374    15A     -0.914641
      16A     -0.877825    17A     -0.791395    18A     -0.720847
      19A     -0.688723    20A     -0.666167    21A     -0.631693
      22A     -0.604647    23A     -0.601558    24A     -0.593920
      25A     -0.582296    26A     -0.563764    27A     -0.542581
      28A     -0.531719    29A     -0.510244    30A     -0.507481
      31A     -0.478543    32A     -0.465896    33A     -0.464651
      34A     -0.405580    35A     -0.365022

  @DF-RHF Final Energy:  -402.10997555673822

   => Energetics <=

    Nuclear Repulsion Energy =            485.2708809938599188
    One-Electron Energy =               -1508.5988756867604934
    Two-Electron Energy =                 621.2180191361622974
    Total Energy =                       -402.1099755567382772
  Basis Set: (AUG-CC-PVTZ AUX)
    Blend: AUG-CC-PVTZ-RI
    Molecular point group: c1

    Geometry (in Angstrom), charge = 0, multiplicity = 1:

       Center              X                  Y                   Z               Mass
    ------------   -----------------  -----------------  -----------------  -----------------
         O            1.726082569407     1.563231771492    -0.289552290491    15.994914619570
         N            0.942756569407    -0.529087228508     0.207415709509    14.003074004430
         C           -2.276577430593    -0.288104228508    -0.174947290491    12.000000000000
         C           -1.320930430593    -1.472190228508    -0.313717290491    12.000000000000
         C           -1.646822430593     1.087180771492    -0.394032290491    12.000000000000
         C           -0.132028430593    -1.413029228508     0.647210709509    12.000000000000
         C           -0.506375430593     1.423301771492     0.579804709509    12.000000000000
         C            0.822845569407     0.836001771492     0.142033709509    12.000000000000
         C            2.185252669407    -1.177369028508    -0.342668890491    12.000000000000
         H           -2.717810430593    -0.313663228508     0.831324709509     1.007825032230
         H           -3.108757430593    -0.416206228508    -0.878105290491     1.007825032230
         H           -1.880062430593    -2.397724228508    -0.123964290491     1.007825032230
         H           -0.936610430593    -1.537631228508    -1.339405290491     1.007825032230
         H           -2.431365430593     1.845708771492    -0.287780290491     1.007825032230
         H           -1.272503430593     1.171944771492    -1.422269290491     1.007825032230
         H           -0.472333430593    -1.127120228508     1.650799709509     1.007825032230
         H            0.314118569407    -2.407206228508     0.746534709509     1.007825032230
         H           -0.769770430593     1.102976771492     1.596007709509     1.007825032230
         H           -0.338940430593     2.502404771492     0.608062709509     1.007825032230
         H            1.900719569407    -1.794947228508    -1.180980290491     1.007825032230
         H            2.628393569407    -1.765888228508     0.445034709509     1.007825032230
         H            2.819546569407    -0.364010228508    -0.642574290491     1.007825032230

  Basis Set: AUG-CC-PVTZ
    Blend: AUG-CC-PVTZ
  Basis Set: (AUG-CC-PVTZ AUX)
    Blend: AUG-CC-PVTZ-JKFIT
	 Reference Energy          =    -402.1099755567382203 [Eh]
	 Singles Energy            =      -0.0000000000000000 [Eh]
	 Same-Spin Energy          =      -0.4215650954635702 [Eh]
	 Opposite-Spin Energy      =      -1.4053361512108424 [Eh]
	 Correlation Energy        =      -1.8269012466744126 [Eh]
	 Total Energy              =    -403.9368768034126447 [Eh]

	 ================> DF-SCS-MP2 Energies <==================
	-----------------------------------------------------------
	 SCS Same-Spin Scale       =       0.3333333333333333 [-]
	 SCS Opposite-Spin Scale   =       1.2000000000000000 [-]
	 SCS Same-Spin Energy      =      -0.1405216984878567 [Eh]
	 SCS Opposite-Spin Energy  =      -1.6864033814530108 [Eh]
	 SCS Correlation Energy    =      -1.8269250799408676 [Eh]
	 SCS Total Energy          =    -403.9369006366790700 [Eh]
	-----------------------------------------------------------

  Dipole Moment: [D]
     X:    -2.4813      Y:    -3.1918      Z:     0.7607     Total:     4.1138

*** Psi4 exiting successfully. Buy a developer a beer!
