                               Psi4 1.3.2 release

  ==> Input File <==

--------------------------------------------------------------------------
#psi4
#
memory 32 gb

molecule  {
0 1
  O        1.7739800     1.6003060    -0.2911220
  N        0.9906540    -0.4920130     0.2058460
  C       -2.2286800    -0.2510300    -0.1765170
  C       -1.2730330    -1.4351160    -0.3152870
  C       -1.5395200     1.1670172    -0.4740217
  C       -0.0841310    -1.3759550     0.6456410
  C       -0.4584780     1.4603760     0.5782350
  C        0.8707430     0.8730760     0.1404640
  C        2.1918860    -1.1187650    -0.3259700
  H       -2.6699130    -0.2765890     0.8297550
  H       -3.0608600    -0.3791320    -0.8796750
  H       -1.8321650    -2.3606500    -0.1255340
  H       -0.8887130    -1.5005570    -1.3409750
  H       -2.3834680     1.8827830    -0.2893500
  H       -1.2246060     1.2090190    -1.4238390
  H       -0.4244360    -1.0900460     1.6492300
  H        0.3620160    -2.3701320     0.7449650
  H       -0.7218730     1.1400510     1.5944380
  H       -0.2910430     2.5394790     0.6064930
  H        1.9486170    -1.7578730    -1.1825500
  H        2.6762910    -1.7288140     0.4434650
  H        2.8674440    -0.3269360    -0.6441440
units angstrom
no_reorient  #important for SAPT in psi4, default
symmetry c1  #important for SAPT in psi4, default
}

set PROPERTIES_ORIGIN ["COM"]
properties('MP2/aug-cc-pvtz', properties = ['dipole'])
--------------------------------------------------------------------------

    Molecular point group: c1
  Charge       = 0
  Multiplicity = 1
  Basis Set: AUG-CC-PVTZ
    Blend: AUG-CC-PVTZ
  Basis Set: (AUG-CC-PVTZ AUX)
    Blend: AUG-CC-PVTZ-JKFIT

    Orbital Energies [Eh]
    ---------------------

    Doubly Occupied:

       1A    -20.504945     2A    -15.580388     3A    -11.339088
       4A    -11.271672     5A    -11.250464     6A    -11.234295
       7A    -11.233868     8A    -11.232636     9A    -11.232092
      10A     -1.361430    11A     -1.240834    12A     -1.091300
      13A     -1.038929    14A     -0.971747    15A     -0.912904
      16A     -0.877755    17A     -0.799327    18A     -0.725561
      19A     -0.690931    20A     -0.666191    21A     -0.634663
      22A     -0.608172    23A     -0.599311    24A     -0.591398
      25A     -0.580215    26A     -0.560323    27A     -0.544369
      28A     -0.531179    29A     -0.518221    30A     -0.508187
      31A     -0.488446    32A     -0.466998    33A     -0.446072
      34A     -0.405458    35A     -0.364863

  @DF-RHF Final Energy:  -402.09984995464578

   => Energetics <=

    Nuclear Repulsion Energy =            485.8935180135495671
    One-Electron Energy =               -1509.7782721526079968
    Two-Electron Energy =                 621.7849041844127669
    Total Energy =                       -402.0998499546457197
  Basis Set: (AUG-CC-PVTZ AUX)
    Blend: AUG-CC-PVTZ-RI
    Molecular point group: c1

    Geometry (in Angstrom), charge = 0, multiplicity = 1:

       Center              X                  Y                   Z               Mass
    ------------   -----------------  -----------------  -----------------  -----------------
         O            1.724369813389     1.557161702760    -0.283873180939    15.994914619570
         N            0.941043813389    -0.535157297240     0.213094819061    14.003074004430
         C           -2.278290186611    -0.294174297240    -0.169268180939    12.000000000000
         C           -1.322643186611    -1.478260297240    -0.308038180939    12.000000000000
         C           -1.589130186611     1.123872902760    -0.466772880939    12.000000000000
         C           -0.133741186611    -1.419099297240     0.652889819061    12.000000000000
         C           -0.508088186611     1.417231702760     0.585483819061    12.000000000000
         C            0.821132813389     0.829931702760     0.147712819061    12.000000000000
         C            2.142275813389    -1.161909297240    -0.318721180939    12.000000000000
         H           -2.719523186611    -0.319733297240     0.837003819061     1.007825032230
         H           -3.110470186611    -0.422276297240    -0.872426180939     1.007825032230
         H           -1.881775186611    -2.403794297240    -0.118285180939     1.007825032230
         H           -0.938323186611    -1.543701297240    -1.333726180939     1.007825032230
         H           -2.433078186611     1.839638702760    -0.282101180939     1.007825032230
         H           -1.274216186611     1.165874702760    -1.416590180939     1.007825032230
         H           -0.474046186611    -1.133190297240     1.656478819061     1.007825032230
         H            0.312405813389    -2.413276297240     0.752213819061     1.007825032230
         H           -0.771483186611     1.096906702760     1.601686819061     1.007825032230
         H           -0.340653186611     2.496334702760     0.613741819061     1.007825032230
         H            1.899006813389    -1.801017297240    -1.175301180939     1.007825032230
         H            2.626680813389    -1.771958297240     0.450713819061     1.007825032230
         H            2.817833813389    -0.370080297240    -0.636895180939     1.007825032230

  Basis Set: AUG-CC-PVTZ
    Blend: AUG-CC-PVTZ
  Basis Set: (AUG-CC-PVTZ AUX)
    Blend: AUG-CC-PVTZ-JKFIT
	 Reference Energy          =    -402.0998499546457765 [Eh]
	 Singles Energy            =      -0.0000000000000000 [Eh]
	 Same-Spin Energy          =      -0.4215962017469453 [Eh]
	 Opposite-Spin Energy      =      -1.4054929129622569 [Eh]
	 Correlation Energy        =      -1.8270891147092021 [Eh]
	 Total Energy              =    -403.9269390693550008 [Eh]

	 ================> DF-SCS-MP2 Energies <==================
	-----------------------------------------------------------
	 SCS Same-Spin Scale       =       0.3333333333333333 [-]
	 SCS Opposite-Spin Scale   =       1.2000000000000000 [-]
	 SCS Same-Spin Energy      =      -0.1405320672489818 [Eh]
	 SCS Opposite-Spin Energy  =      -1.6865914955547081 [Eh]
	 SCS Correlation Energy    =      -1.8271235628036899 [Eh]
	 SCS Total Energy          =    -403.9269735174494826 [Eh]
	-----------------------------------------------------------

  Dipole Moment: [D]
     X:    -2.5620      Y:    -3.0909      Z:     0.7815     Total:     4.0900

*** Psi4 exiting successfully. Buy a developer a beer!
