                               Psi4 1.4a3.dev225

  ==> Input File <==

--------------------------------------------------------------------------
#psi4
#
memory 32 gb

molecule  {
0 1
  O        1.7739800     1.6003060    -0.2911220
  N        0.9906540    -0.4920130     0.2058460
  C       -2.2286800    -0.2510300    -0.1765170
  C       -1.2730330    -1.4351160    -0.3152870
  C       -1.5989250     1.1242550    -0.3956020
  C       -0.0841310    -1.3759550     0.6456410
  C       -0.4584780     1.4603760     0.5782350
  C        0.8707430     0.8730760     0.1404640
  C        2.1918860    -1.1187650    -0.3259700
  H       -2.6699130    -0.2765890     0.8297550
  H       -3.0608600    -0.3791320    -0.8796750
  H       -1.8576301    -2.4028026    -0.1168919
  H       -0.8887130    -1.5005570    -1.3409750
  H       -2.3834680     1.8827830    -0.2893500
  H       -1.2246060     1.2090190    -1.4238390
  H       -0.4244360    -1.0900460     1.6492300
  H        0.3620160    -2.3701320     0.7449650
  H       -0.7218730     1.1400510     1.5944380
  H       -0.2910430     2.5394790     0.6064930
  H        1.9486170    -1.7578730    -1.1825500
  H        2.6762910    -1.7288140     0.4434650
  H        2.8674440    -0.3269360    -0.6441440
units angstrom
no_reorient  #important for SAPT in psi4, default
symmetry c1  #important for SAPT in psi4, default
}

set PROPERTIES_ORIGIN ["COM"]
properties('MP2/aug-cc-pvtz', properties = ['dipole'])
--------------------------------------------------------------------------

    Molecular point group: c1
  Charge       = 0
  Multiplicity = 1
  Basis Set: AUG-CC-PVTZ
    Blend: AUG-CC-PVTZ
  Basis Set: (AUG-CC-PVTZ AUX)
    Blend: AUG-CC-PVTZ-JKFIT

    Orbital Energies [Eh]
    ---------------------

    Doubly Occupied:

       1A    -20.506054     2A    -15.581032     3A    -11.340276
       4A    -11.272667     5A    -11.250838     6A    -11.239476
       7A    -11.235091     8A    -11.233826     9A    -11.232003
      10A     -1.362190    11A     -1.241575    12A     -1.097311
      13A     -1.037060    14A     -0.975947    15A     -0.914223
      16A     -0.876253    17A     -0.791566    18A     -0.725566
      19A     -0.690434    20A     -0.667682    21A     -0.633312
      22A     -0.608729    23A     -0.601363    24A     -0.593086
      25A     -0.582225    26A     -0.557293    27A     -0.544682
      28A     -0.526737    29A     -0.509713    30A     -0.509100
      31A     -0.479291    32A     -0.467038    33A     -0.464274
      34A     -0.407750    35A     -0.365435

  @DF-RHF Final Energy:  -402.10992781018052

   => Energetics <=

    Nuclear Repulsion Energy =            486.0466401747268606
    One-Electron Energy =               -1510.0709401459223500
    Two-Electron Energy =                 621.9143721610148532
    Total Energy =                       -402.1099278101805794
  Basis Set: (AUG-CC-PVTZ AUX)
    Blend: AUG-CC-PVTZ-RI
    Molecular point group: c1

    Geometry (in Angstrom), charge = 0, multiplicity = 1:

       Center              X                  Y                   Z               Mass
    ------------   -----------------  -----------------  -----------------  -----------------
         O            1.730180403687     1.561533300680    -0.291345629889    15.994914619570
         N            0.946854403687    -0.530785699320     0.205622370111    14.003074004430
         C           -2.272479596313    -0.289802699320    -0.176740629889    12.000000000000
         C           -1.316832596313    -1.473888699320    -0.315510629889    12.000000000000
         C           -1.642724596313     1.085482300680    -0.395825629889    12.000000000000
         C           -0.127930596313    -1.414727699320     0.645417370111    12.000000000000
         C           -0.502277596313     1.421603300680     0.578011370111    12.000000000000
         C            0.826943403687     0.834303300680     0.140240370111    12.000000000000
         C            2.148086403687    -1.157537699320    -0.326193629889    12.000000000000
         H           -2.713712596313    -0.315361699320     0.829531370111     1.007825032230
         H           -3.104659596313    -0.417904699320    -0.879898629889     1.007825032230
         H           -1.901429696313    -2.441575299320    -0.117115529889     1.007825032230
         H           -0.932512596313    -1.539329699320    -1.341198629889     1.007825032230
         H           -2.427267596313     1.844010300680    -0.289573629889     1.007825032230
         H           -1.268405596313     1.170246300680    -1.424062629889     1.007825032230
         H           -0.468235596313    -1.128818699320     1.649006370111     1.007825032230
         H            0.318216403687    -2.408904699320     0.744741370111     1.007825032230
         H           -0.765672596313     1.101278300680     1.594214370111     1.007825032230
         H           -0.334842596313     2.500706300680     0.606269370111     1.007825032230
         H            1.904817403687    -1.796645699320    -1.182773629889     1.007825032230
         H            2.632491403687    -1.767586699320     0.443241370111     1.007825032230
         H            2.823644403687    -0.365708699320    -0.644367629889     1.007825032230

  Basis Set: AUG-CC-PVTZ
    Blend: AUG-CC-PVTZ
  Basis Set: (AUG-CC-PVTZ AUX)
    Blend: AUG-CC-PVTZ-JKFIT
	 Reference Energy          =    -402.1099278101805226 [Eh]
	 Singles Energy            =      -0.0000000000000000 [Eh]
	 Same-Spin Energy          =      -0.4217986873000333 [Eh]
	 Opposite-Spin Energy      =      -1.4055823235933467 [Eh]
	 Correlation Energy        =      -1.8273810108933799 [Eh]
	 Total Energy              =    -403.9373088210738842 [Eh]

	 ================> DF-SCS-MP2 Energies <==================
	-----------------------------------------------------------
	 SCS Same-Spin Scale       =       0.3333333333333333 [-]
	 SCS Opposite-Spin Scale   =       1.2000000000000000 [-]
	 SCS Same-Spin Energy      =      -0.1405995624333444 [Eh]
	 SCS Opposite-Spin Energy  =      -1.6866987883120159 [Eh]
	 SCS Correlation Energy    =      -1.8272983507453604 [Eh]
	 SCS Total Energy          =    -403.9372261609258885 [Eh]
	-----------------------------------------------------------

  Dipole Moment: [D]
     X:    -2.5569      Y:    -3.0629      Z:     0.7914     Total:     4.0676

*** Psi4 exiting successfully. Buy a developer a beer!
