                               Psi4 1.3.2 release

  ==> Input File <==

--------------------------------------------------------------------------
#psi4
#
memory 32 gb

molecule  {
0 1
  O        1.7739800     1.6003060    -0.2911220
  N        0.9906540    -0.4920130     0.2058460
  C       -2.2286800    -0.2510300    -0.1765170
  C       -1.2730330    -1.4351160    -0.3152870
  C       -1.5989250     1.1242550    -0.3956020
  C       -0.0841310    -1.3759550     0.6456410
  C       -0.4584780     1.4603760     0.5782350
  C        0.8707430     0.8730760     0.1404640
  C        2.1918860    -1.1187650    -0.3259700
  H       -2.6699130    -0.2765890     0.8297550
  H       -3.0608600    -0.3791320    -0.8796750
  H       -1.8321650    -2.3606500    -0.1255340
  H       -0.8887130    -1.5005570    -1.3409750
  H       -2.3834680     1.8827830    -0.2893500
  H       -1.2246060     1.2090190    -1.4238390
  H       -0.4244360    -1.0900460     1.6492300
  H        0.3620160    -2.3701320     0.7449650
  H       -0.6738768     1.1984210     1.4092643
  H       -0.2910430     2.5394790     0.6064930
  H        1.9486170    -1.7578730    -1.1825500
  H        2.6762910    -1.7288140     0.4434650
  H        2.8674440    -0.3269360    -0.6441440
units angstrom
no_reorient  #important for SAPT in psi4, default
symmetry c1  #important for SAPT in psi4, default
}

set PROPERTIES_ORIGIN ["COM"]
properties('MP2/aug-cc-pvtz', properties = ['dipole'])
--------------------------------------------------------------------------

    Molecular point group: c1
  Charge       = 0
  Multiplicity = 1
  Basis Set: AUG-CC-PVTZ
    Blend: AUG-CC-PVTZ
  Basis Set: (AUG-CC-PVTZ AUX)
    Blend: AUG-CC-PVTZ-JKFIT

    Orbital Energies [Eh]
    ---------------------

    Doubly Occupied:

       1A    -20.504450     2A    -15.580369     3A    -11.338367
       4A    -11.272914     5A    -11.250458     6A    -11.233501
       7A    -11.233010     8A    -11.231442     9A    -11.208898
      10A     -1.360896    11A     -1.241151    12A     -1.101599
      13A     -1.046134    14A     -0.977879    15A     -0.918507
      16A     -0.882235    17A     -0.797214    18A     -0.730191
      19A     -0.702401    20A     -0.669369    21A     -0.633499
      22A     -0.617200    23A     -0.604495    24A     -0.594697
      25A     -0.582574    26A     -0.562484    27A     -0.543657
      28A     -0.526789    29A     -0.518105    30A     -0.509062
      31A     -0.479494    32A     -0.466823    33A     -0.466347
      34A     -0.407211    35A     -0.364881

  @DF-RHF Final Energy:  -402.07959674914656

   => Energetics <=

    Nuclear Repulsion Energy =            487.3825288860612091
    One-Electron Energy =               -1512.6076498579288909
    Two-Electron Energy =                 623.1455242227210647
    Total Energy =                       -402.0795967491466172
  Basis Set: (AUG-CC-PVTZ AUX)
    Blend: AUG-CC-PVTZ-RI
    Molecular point group: c1

    Geometry (in Angstrom), charge = 0, multiplicity = 1:

       Center              X                  Y                   Z               Mass
    ------------   -----------------  -----------------  -----------------  -----------------
         O            1.729597899331     1.560736216333    -0.289808786031    15.994914619570
         N            0.946271899331    -0.531582783667     0.207159213969    14.003074004430
         C           -2.273062100669    -0.290599783667    -0.175203786031    12.000000000000
         C           -1.317415100669    -1.474685783667    -0.313973786031    12.000000000000
         C           -1.643307100669     1.084685216333    -0.394288786031    12.000000000000
         C           -0.128513100669    -1.415524783667     0.646954213969    12.000000000000
         C           -0.502860100669     1.420806216333     0.579548213969    12.000000000000
         C            0.826360899331     0.833506216333     0.141777213969    12.000000000000
         C            2.147503899331    -1.158334783667    -0.324656786031    12.000000000000
         H           -2.714295100669    -0.316158783667     0.831068213969     1.007825032230
         H           -3.105242100669    -0.418701783667    -0.878361786031     1.007825032230
         H           -1.876547100669    -2.400219783667    -0.124220786031     1.007825032230
         H           -0.933095100669    -1.540126783667    -1.339661786031     1.007825032230
         H           -2.427850100669     1.843213216333    -0.288036786031     1.007825032230
         H           -1.268988100669     1.169449216333    -1.422525786031     1.007825032230
         H           -0.468818100669    -1.129615783667     1.650543213969     1.007825032230
         H            0.317633899331    -2.409701783667     0.746278213969     1.007825032230
         H           -0.718258900669     1.158851216333     1.410577513969     1.007825032230
         H           -0.335425100669     2.499909216333     0.607806213969     1.007825032230
         H            1.904234899331    -1.797442783667    -1.181236786031     1.007825032230
         H            2.631908899331    -1.768383783667     0.444778213969     1.007825032230
         H            2.823061899331    -0.366505783667    -0.642830786031     1.007825032230

  Basis Set: AUG-CC-PVTZ
    Blend: AUG-CC-PVTZ
  Basis Set: (AUG-CC-PVTZ AUX)
    Blend: AUG-CC-PVTZ-JKFIT
	 Reference Energy          =    -402.0795967491465603 [Eh]
	 Singles Energy            =      -0.0000000000000000 [Eh]
	 Same-Spin Energy          =      -0.4215804766140023 [Eh]
	 Opposite-Spin Energy      =      -1.4043697845618821 [Eh]
	 Correlation Energy        =      -1.8259502611758844 [Eh]
	 Total Energy              =    -403.9055470103224366 [Eh]

	 ================> DF-SCS-MP2 Energies <==================
	-----------------------------------------------------------
	 SCS Same-Spin Scale       =       0.3333333333333333 [-]
	 SCS Opposite-Spin Scale   =       1.2000000000000000 [-]
	 SCS Same-Spin Energy      =      -0.1405268255380008 [Eh]
	 SCS Opposite-Spin Energy  =      -1.6852437414742585 [Eh]
	 SCS Correlation Energy    =      -1.8257705670122593 [Eh]
	 SCS Total Energy          =    -403.9053673161588449 [Eh]
	-----------------------------------------------------------

  Dipole Moment: [D]
     X:    -2.5985      Y:    -3.1109      Z:     0.8677     Total:     4.1452

*** Psi4 exiting successfully. Buy a developer a beer!
