                               Psi4 1.3.2 release

  ==> Input File <==

--------------------------------------------------------------------------
#psi4
#
memory 32 gb

molecule  {
0 1
  O        1.7739800     1.6003060    -0.2911220
  N        0.9906540    -0.4920130     0.2058460
  C       -2.2286800    -0.2510300    -0.1765170
  C       -1.2730330    -1.4351160    -0.3152870
  C       -1.5989250     1.1242550    -0.3956020
  C       -0.0841310    -1.3759550     0.6456410
  C       -0.4584780     1.4603760     0.5782350
  C        0.8707430     0.8730760     0.1404640
  C        2.1918860    -1.1187650    -0.3259700
  H       -2.6699130    -0.2765890     0.8297550
  H       -3.0608600    -0.3791320    -0.8796750
  H       -1.8321650    -2.3606500    -0.1255340
  H       -0.8887130    -1.5005570    -1.3409750
  H       -2.3834680     1.8827830    -0.2893500
  H       -1.2246060     1.2090190    -1.4238390
  H       -0.4244360    -1.0900460     1.6492300
  H        0.3620160    -2.3701320     0.7449650
  H       -0.7234602     1.1220218     1.5881629
  H       -0.2910430     2.5394790     0.6064930
  H        1.9486170    -1.7578730    -1.1825500
  H        2.6762910    -1.7288140     0.4434650
  H        2.8674440    -0.3269360    -0.6441440
units angstrom
no_reorient  #important for SAPT in psi4, default
symmetry c1  #important for SAPT in psi4, default
}

set PROPERTIES_ORIGIN ["COM"]
properties('MP2/aug-cc-pvtz', properties = ['dipole'])
--------------------------------------------------------------------------

    Molecular point group: c1
  Charge       = 0
  Multiplicity = 1
  Basis Set: AUG-CC-PVTZ
    Blend: AUG-CC-PVTZ
  Basis Set: (AUG-CC-PVTZ AUX)
    Blend: AUG-CC-PVTZ-JKFIT

    Orbital Energies [Eh]
    ---------------------

    Doubly Occupied:

       1A    -20.505650     2A    -15.580585     3A    -11.339810
       4A    -11.272299     5A    -11.250608     6A    -11.234595
       7A    -11.233574     8A    -11.233445     9A    -11.231572
      10A     -1.361819    11A     -1.241229    12A     -1.097683
      13A     -1.038225    14A     -0.975676    15A     -0.913877
      16A     -0.878138    17A     -0.792570    18A     -0.725149
      19A     -0.690516    20A     -0.669067    21A     -0.633323
      22A     -0.608203    23A     -0.602142    24A     -0.594268
      25A     -0.583300    26A     -0.558698    27A     -0.544463
      28A     -0.527109    29A     -0.509686    30A     -0.509272
      31A     -0.479510    32A     -0.467324    33A     -0.465351
      34A     -0.407351    35A     -0.365139

  @DF-RHF Final Energy:  -402.11203882194661

   => Energetics <=

    Nuclear Repulsion Energy =            486.3414961130103507
    One-Electron Energy =               -1510.6646175966468491
    Two-Electron Energy =                 622.2110826616898294
    Total Energy =                       -402.1120388219466122
  Basis Set: (AUG-CC-PVTZ AUX)
    Blend: AUG-CC-PVTZ-RI
    Molecular point group: c1

    Geometry (in Angstrom), charge = 0, multiplicity = 1:

       Center              X                  Y                   Z               Mass
    ------------   -----------------  -----------------  -----------------  -----------------
         O            1.729991066162     1.561342016485    -0.291227345378    15.994914619570
         N            0.946665066162    -0.530976983515     0.205740654622    14.003074004430
         C           -2.272668933838    -0.289993983515    -0.176622345378    12.000000000000
         C           -1.317021933838    -1.474079983515    -0.315392345378    12.000000000000
         C           -1.642913933838     1.085291016485    -0.395707345378    12.000000000000
         C           -0.128119933838    -1.414918983515     0.645535654622    12.000000000000
         C           -0.502466933838     1.421412016485     0.578129654622    12.000000000000
         C            0.826754066162     0.834112016485     0.140358654622    12.000000000000
         C            2.147897066162    -1.157728983515    -0.326075345378    12.000000000000
         H           -2.713901933838    -0.315552983515     0.829649654622     1.007825032230
         H           -3.104848933838    -0.418095983515    -0.879780345378     1.007825032230
         H           -1.876153933838    -2.399613983515    -0.125639345378     1.007825032230
         H           -0.932701933838    -1.539520983515    -1.341080345378     1.007825032230
         H           -2.427456933838     1.843819016485    -0.289455345378     1.007825032230
         H           -1.268594933838     1.170055016485    -1.423944345378     1.007825032230
         H           -0.468424933838    -1.129009983515     1.649124654622     1.007825032230
         H            0.318027066162    -2.409095983515     0.744859654622     1.007825032230
         H           -0.767449133838     1.083057816485     1.588057554622     1.007825032230
         H           -0.335031933838     2.500515016485     0.606387654622     1.007825032230
         H            1.904628066162    -1.796836983515    -1.182655345378     1.007825032230
         H            2.632302066162    -1.767777983515     0.443359654622     1.007825032230
         H            2.823455066162    -0.365899983515    -0.644249345378     1.007825032230

  Basis Set: AUG-CC-PVTZ
    Blend: AUG-CC-PVTZ
  Basis Set: (AUG-CC-PVTZ AUX)
    Blend: AUG-CC-PVTZ-JKFIT
	 Reference Energy          =    -402.1120388219466122 [Eh]
	 Singles Energy            =      -0.0000000000000000 [Eh]
	 Same-Spin Energy          =      -0.4217996965749334 [Eh]
	 Opposite-Spin Energy      =      -1.4052354145162933 [Eh]
	 Correlation Energy        =      -1.8270351110912268 [Eh]
	 Total Energy              =    -403.9390739330378324 [Eh]

	 ================> DF-SCS-MP2 Energies <==================
	-----------------------------------------------------------
	 SCS Same-Spin Scale       =       0.3333333333333333 [-]
	 SCS Opposite-Spin Scale   =       1.2000000000000000 [-]
	 SCS Same-Spin Energy      =      -0.1405998988583111 [Eh]
	 SCS Opposite-Spin Energy  =      -1.6862824974195518 [Eh]
	 SCS Correlation Energy    =      -1.8268823962778629 [Eh]
	 SCS Total Energy          =    -403.9389212182244933 [Eh]
	-----------------------------------------------------------

  Dipole Moment: [D]
     X:    -2.5815      Y:    -3.1099      Z:     0.7884     Total:     4.1179

*** Psi4 exiting successfully. Buy a developer a beer!
