                               Psi4 1.4a3.dev225

  ==> Input File <==

--------------------------------------------------------------------------
#psi4
#
memory 32 gb

molecule  {
0 1
  O        1.7739800     1.6003060    -0.2911220
  N        0.9906540    -0.4920130     0.2058460
  C       -2.2286800    -0.2510300    -0.1765170
  C       -1.2730330    -1.4351160    -0.3152870
  C       -1.5989250     1.1242550    -0.3956020
  C       -0.1209531    -1.4062388     0.6607084
  C       -0.4584780     1.4603760     0.5782350
  C        0.8707430     0.8730760     0.1404640
  C        2.1918860    -1.1187650    -0.3259700
  H       -2.6699130    -0.2765890     0.8297550
  H       -3.0608600    -0.3791320    -0.8796750
  H       -1.8321650    -2.3606500    -0.1255340
  H       -0.8887130    -1.5005570    -1.3409750
  H       -2.3834680     1.8827830    -0.2893500
  H       -1.2246060     1.2090190    -1.4238390
  H       -0.4244360    -1.0900460     1.6492300
  H        0.3620160    -2.3701320     0.7449650
  H       -0.7218730     1.1400510     1.5944380
  H       -0.2910430     2.5394790     0.6064930
  H        1.9486170    -1.7578730    -1.1825500
  H        2.6762910    -1.7288140     0.4434650
  H        2.8674440    -0.3269360    -0.6441440
units angstrom
no_reorient  #important for SAPT in psi4, default
symmetry c1  #important for SAPT in psi4, default
}

set PROPERTIES_ORIGIN ["COM"]
properties('MP2/aug-cc-pvtz', properties = ['dipole'])
--------------------------------------------------------------------------

    Molecular point group: c1
  Charge       = 0
  Multiplicity = 1
  Basis Set: AUG-CC-PVTZ
    Blend: AUG-CC-PVTZ
  Basis Set: (AUG-CC-PVTZ AUX)
    Blend: AUG-CC-PVTZ-JKFIT

    Orbital Energies [Eh]
    ---------------------

    Doubly Occupied:

       1A    -20.503392     2A    -15.578602     3A    -11.337745
       4A    -11.273534     5A    -11.248996     6A    -11.234619
       7A    -11.234299     8A    -11.232823     9A    -11.232511
      10A     -1.358943    11A     -1.231120    12A     -1.098763
      13A     -1.040922    14A     -0.974532    15A     -0.913593
      16A     -0.875716    17A     -0.793367    18A     -0.721602
      19A     -0.688887    20A     -0.667479    21A     -0.630844
      22A     -0.610436    23A     -0.601281    24A     -0.593497
      25A     -0.584809    26A     -0.559650    27A     -0.544663
      28A     -0.526199    29A     -0.510072    30A     -0.506477
      31A     -0.480391    32A     -0.467956    33A     -0.466057
      34A     -0.405592    35A     -0.364793

  @DF-RHF Final Energy:  -402.10986883620598

   => Energetics <=

    Nuclear Repulsion Energy =            485.6179638712586666
    One-Electron Energy =               -1509.2673404028503228
    Two-Electron Energy =                 621.5395076953856233
    Total Energy =                       -402.1098688362060329
  Basis Set: (AUG-CC-PVTZ AUX)
    Blend: AUG-CC-PVTZ-RI
    Molecular point group: c1

    Geometry (in Angstrom), charge = 0, multiplicity = 1:

       Center              X                  Y                   Z               Mass
    ------------   -----------------  -----------------  -----------------  -----------------
         O            1.733455004562     1.564058272171    -0.292699677588    15.994914619570
         N            0.950129004562    -0.528260727829     0.204268322412    14.003074004430
         C           -2.269204995438    -0.287277727829    -0.178094677588    12.000000000000
         C           -1.313557995438    -1.471363727829    -0.316864677588    12.000000000000
         C           -1.639449995438     1.088007272171    -0.397179677588    12.000000000000
         C           -0.161478095438    -1.442486527829     0.659130722412    12.000000000000
         C           -0.499002995438     1.424128272171     0.576657322412    12.000000000000
         C            0.830218004562     0.836828272171     0.138886322412    12.000000000000
         C            2.151361004562    -1.155012727829    -0.327547677588    12.000000000000
         H           -2.710437995438    -0.312836727829     0.828177322412     1.007825032230
         H           -3.101384995438    -0.415379727829    -0.881252677588     1.007825032230
         H           -1.872689995438    -2.396897727829    -0.127111677588     1.007825032230
         H           -0.929237995438    -1.536804727829    -1.342552677588     1.007825032230
         H           -2.423992995438     1.846535272171    -0.290927677588     1.007825032230
         H           -1.265130995438     1.172771272171    -1.425416677588     1.007825032230
         H           -0.464960995438    -1.126293727829     1.647652322412     1.007825032230
         H            0.321491004562    -2.406379727829     0.743387322412     1.007825032230
         H           -0.762397995438     1.103803272171     1.592860322412     1.007825032230
         H           -0.331567995438     2.503231272171     0.604915322412     1.007825032230
         H            1.908092004562    -1.794120727829    -1.184127677588     1.007825032230
         H            2.635766004562    -1.765061727829     0.441887322412     1.007825032230
         H            2.826919004562    -0.363183727829    -0.645721677588     1.007825032230

  Basis Set: AUG-CC-PVTZ
    Blend: AUG-CC-PVTZ
  Basis Set: (AUG-CC-PVTZ AUX)
    Blend: AUG-CC-PVTZ-JKFIT
	 Reference Energy          =    -402.1098688362059761 [Eh]
	 Singles Energy            =      -0.0000000000000000 [Eh]
	 Same-Spin Energy          =      -0.4216705465750540 [Eh]
	 Opposite-Spin Energy      =      -1.4053814064038002 [Eh]
	 Correlation Energy        =      -1.8270519529788540 [Eh]
	 Total Energy              =    -403.9369207891848532 [Eh]

	 ================> DF-SCS-MP2 Energies <==================
	-----------------------------------------------------------
	 SCS Same-Spin Scale       =       0.3333333333333333 [-]
	 SCS Opposite-Spin Scale   =       1.2000000000000000 [-]
	 SCS Same-Spin Energy      =      -0.1405568488583513 [Eh]
	 SCS Opposite-Spin Energy  =      -1.6864576876845601 [Eh]
	 SCS Correlation Energy    =      -1.8270145365429113 [Eh]
	 SCS Total Energy          =    -403.9368833727488663 [Eh]
	-----------------------------------------------------------

  Dipole Moment: [D]
     X:    -2.6934      Y:    -3.1995      Z:     0.8255     Total:     4.2630

*** Psi4 exiting successfully. Buy a developer a beer!
