                               Psi4 1.3.2 release

  ==> Input File <==

--------------------------------------------------------------------------
#psi4
#
memory 32 gb

molecule  {
0 1
  O        1.7739800     1.6003060    -0.2911220
  N        0.9906540    -0.4920130     0.2058460
  C       -2.1466302    -0.1869127    -0.1995525
  C       -1.2730330    -1.4351160    -0.3152870
  C       -1.5989250     1.1242550    -0.3956020
  C       -0.0841310    -1.3759550     0.6456410
  C       -0.4584780     1.4603760     0.5782350
  C        0.8707430     0.8730760     0.1404640
  C        2.1918860    -1.1187650    -0.3259700
  H       -2.6699130    -0.2765890     0.8297550
  H       -3.0608600    -0.3791320    -0.8796750
  H       -1.8321650    -2.3606500    -0.1255340
  H       -0.8887130    -1.5005570    -1.3409750
  H       -2.3834680     1.8827830    -0.2893500
  H       -1.2246060     1.2090190    -1.4238390
  H       -0.4244360    -1.0900460     1.6492300
  H        0.3620160    -2.3701320     0.7449650
  H       -0.7218730     1.1400510     1.5944380
  H       -0.2910430     2.5394790     0.6064930
  H        1.9486170    -1.7578730    -1.1825500
  H        2.6762910    -1.7288140     0.4434650
  H        2.8674440    -0.3269360    -0.6441440
units angstrom
no_reorient  #important for SAPT in psi4, default
symmetry c1  #important for SAPT in psi4, default
}

set PROPERTIES_ORIGIN ["COM"]
properties('MP2/aug-cc-pvtz', properties = ['dipole'])
--------------------------------------------------------------------------

    Molecular point group: c1
  Charge       = 0
  Multiplicity = 1
  Basis Set: AUG-CC-PVTZ
    Blend: AUG-CC-PVTZ
  Basis Set: (AUG-CC-PVTZ AUX)
    Blend: AUG-CC-PVTZ-JKFIT

    Orbital Energies [Eh]
    ---------------------

    Doubly Occupied:

       1A    -20.506199     2A    -15.581141     3A    -11.340630
       4A    -11.271514     5A    -11.250819     6A    -11.237877
       7A    -11.235221     8A    -11.233939     9A    -11.231940
      10A     -1.362404    11A     -1.241906    12A     -1.109876
      13A     -1.039427    14A     -0.979142    15A     -0.912669
      16A     -0.884269    17A     -0.784213    18A     -0.725935
      19A     -0.692828    20A     -0.671658    21A     -0.632531
      22A     -0.610051    23A     -0.609122    24A     -0.592803
      25A     -0.585424    26A     -0.556993    27A     -0.547471
      28A     -0.528641    29A     -0.510700    30A     -0.506446
      31A     -0.490941    32A     -0.460990    33A     -0.450944
      34A     -0.407891    35A     -0.365131

  @DF-RHF Final Energy:  -402.09843559780393

   => Energetics <=

    Nuclear Repulsion Energy =            487.8966144240969243
    One-Electron Energy =               -1513.6907220385592154
    Two-Electron Energy =                 623.6956720166583636
    Total Energy =                       -402.0984355978039275
  Basis Set: (AUG-CC-PVTZ AUX)
    Blend: AUG-CC-PVTZ-RI
    Molecular point group: c1

    Geometry (in Angstrom), charge = 0, multiplicity = 1:

       Center              X                  Y                   Z               Mass
    ------------   -----------------  -----------------  -----------------  -----------------
         O            1.722231825888     1.555145481072    -0.289102228109    15.994914619570
         N            0.938905825888    -0.537173518928     0.207865771891    14.003074004430
         C           -2.198378374112    -0.232073218928    -0.197532728109    12.000000000000
         C           -1.324781174112    -1.480276518928    -0.313267228109    12.000000000000
         C           -1.650673174112     1.079094481072    -0.393582228109    12.000000000000
         C           -0.135879174112    -1.421115518928     0.647660771891    12.000000000000
         C           -0.510226174112     1.415215481072     0.580254771891    12.000000000000
         C            0.818994825888     0.827915481072     0.142483771891    12.000000000000
         C            2.140137825888    -1.163925518928    -0.323950228109    12.000000000000
         H           -2.721661174112    -0.321749518928     0.831774771891     1.007825032230
         H           -3.112608174112    -0.424292518928    -0.877655228109     1.007825032230
         H           -1.883913174112    -2.405810518928    -0.123514228109     1.007825032230
         H           -0.940461174112    -1.545717518928    -1.338955228109     1.007825032230
         H           -2.435216174112     1.837622481072    -0.287330228109     1.007825032230
         H           -1.276354174112     1.163858481072    -1.421819228109     1.007825032230
         H           -0.476184174112    -1.135206518928     1.651249771891     1.007825032230
         H            0.310267825888    -2.415292518928     0.746984771891     1.007825032230
         H           -0.773621174112     1.094890481072     1.596457771891     1.007825032230
         H           -0.342791174112     2.494318481072     0.608512771891     1.007825032230
         H            1.896868825888    -1.803033518928    -1.180530228109     1.007825032230
         H            2.624542825888    -1.773974518928     0.445484771891     1.007825032230
         H            2.815695825888    -0.372096518928    -0.642124228109     1.007825032230

  Basis Set: AUG-CC-PVTZ
    Blend: AUG-CC-PVTZ
  Basis Set: (AUG-CC-PVTZ AUX)
    Blend: AUG-CC-PVTZ-JKFIT
	 Reference Energy          =    -402.0984355978039275 [Eh]
	 Singles Energy            =      -0.0000000000000000 [Eh]
	 Same-Spin Energy          =      -0.4229130245420068 [Eh]
	 Opposite-Spin Energy      =      -1.4067819835533231 [Eh]
	 Correlation Energy        =      -1.8296950080953298 [Eh]
	 Total Energy              =    -403.9281306058992413 [Eh]

	 ================> DF-SCS-MP2 Energies <==================
	-----------------------------------------------------------
	 SCS Same-Spin Scale       =       0.3333333333333333 [-]
	 SCS Opposite-Spin Scale   =       1.2000000000000000 [-]
	 SCS Same-Spin Energy      =      -0.1409710081806689 [Eh]
	 SCS Opposite-Spin Energy  =      -1.6881383802639875 [Eh]
	 SCS Correlation Energy    =      -1.8291093884446565 [Eh]
	 SCS Total Energy          =    -403.9275449862485630 [Eh]
	-----------------------------------------------------------

  Dipole Moment: [D]
     X:    -2.5277      Y:    -3.0817      Z:     0.7664     Total:     4.0587

*** Psi4 exiting successfully. Buy a developer a beer!
