                               Psi4 1.3.2 release

  ==> Input File <==

--------------------------------------------------------------------------
#psi4
#
memory 32 gb

molecule  {
0 1
  O        1.7739800     1.6003060    -0.2911220
  N        0.9906540    -0.4920130     0.2058460
  C       -2.2286800    -0.2510300    -0.1765170
  C       -1.2730330    -1.4351160    -0.3152870
  C       -1.5989250     1.1242550    -0.3956020
  C       -0.0841310    -1.3759550     0.6456410
  C       -0.4320511     1.4170917     0.5607489
  C        0.8707430     0.8730760     0.1404640
  C        2.1918860    -1.1187650    -0.3259700
  H       -2.6699130    -0.2765890     0.8297550
  H       -3.0608600    -0.3791320    -0.8796750
  H       -1.8321650    -2.3606500    -0.1255340
  H       -0.8887130    -1.5005570    -1.3409750
  H       -2.3834680     1.8827830    -0.2893500
  H       -1.2246060     1.2090190    -1.4238390
  H       -0.4244360    -1.0900460     1.6492300
  H        0.3620160    -2.3701320     0.7449650
  H       -0.7218730     1.1400510     1.5944380
  H       -0.2910430     2.5394790     0.6064930
  H        1.9486170    -1.7578730    -1.1825500
  H        2.6762910    -1.7288140     0.4434650
  H        2.8674440    -0.3269360    -0.6441440
units angstrom
no_reorient  #important for SAPT in psi4, default
symmetry c1  #important for SAPT in psi4, default
}

set PROPERTIES_ORIGIN ["COM"]
properties('MP2/aug-cc-pvtz', properties = ['dipole'])
--------------------------------------------------------------------------

    Molecular point group: c1
  Charge       = 0
  Multiplicity = 1
  Basis Set: AUG-CC-PVTZ
    Blend: AUG-CC-PVTZ
  Basis Set: (AUG-CC-PVTZ AUX)
    Blend: AUG-CC-PVTZ-JKFIT

    Orbital Energies [Eh]
    ---------------------

    Doubly Occupied:

       1A    -20.506065     2A    -15.580094     3A    -11.338780
       4A    -11.272130     5A    -11.250311     6A    -11.235896
       7A    -11.234823     8A    -11.233465     9A    -11.231145
      10A     -1.363238    11A     -1.241876    12A     -1.098564
      13A     -1.040674    14A     -0.977852    15A     -0.912453
      16A     -0.880534    17A     -0.793077    18A     -0.724321
      19A     -0.695019    20A     -0.669295    21A     -0.633827
      22A     -0.609145    23A     -0.601056    24A     -0.594144
      25A     -0.581959    26A     -0.556602    27A     -0.547386
      28A     -0.524473    29A     -0.510513    30A     -0.506087
      31A     -0.479077    32A     -0.466133    33A     -0.461684
      34A     -0.411807    35A     -0.364988

  @DF-RHF Final Energy:  -402.10808267888905

   => Energetics <=

    Nuclear Repulsion Energy =            487.2300129852402506
    One-Electron Energy =               -1512.4192104012981872
    Two-Electron Energy =                 623.0811147371689458
    Total Energy =                       -402.1080826788891045
  Basis Set: (AUG-CC-PVTZ AUX)
    Blend: AUG-CC-PVTZ-RI
    Molecular point group: c1

    Geometry (in Angstrom), charge = 0, multiplicity = 1:

       Center              X                  Y                   Z               Mass
    ------------   -----------------  -----------------  -----------------  -----------------
         O            1.727483409694     1.565285702155    -0.289626169493    15.994914619570
         N            0.944157409694    -0.527033297845     0.207341830507    14.003074004430
         C           -2.275176590306    -0.286050297845    -0.175021169493    12.000000000000
         C           -1.319529590306    -1.470136297845    -0.313791169493    12.000000000000
         C           -1.645421590306     1.089234702155    -0.394106169493    12.000000000000
         C           -0.130627590306    -1.410975297845     0.647136830507    12.000000000000
         C           -0.478547690306     1.382071402155     0.562244730507    12.000000000000
         C            0.824246409694     0.838055702155     0.141959830507    12.000000000000
         C            2.145389409694    -1.153785297845    -0.324474169493    12.000000000000
         H           -2.716409590306    -0.311609297845     0.831250830507     1.007825032230
         H           -3.107356590306    -0.414152297845    -0.878179169493     1.007825032230
         H           -1.878661590306    -2.395670297845    -0.124038169493     1.007825032230
         H           -0.935209590306    -1.535577297845    -1.339479169493     1.007825032230
         H           -2.429964590306     1.847762702155    -0.287854169493     1.007825032230
         H           -1.271102590306     1.173998702155    -1.422343169493     1.007825032230
         H           -0.470932590306    -1.125066297845     1.650725830507     1.007825032230
         H            0.315519409694    -2.405152297845     0.746460830507     1.007825032230
         H           -0.768369590306     1.105030702155     1.595933830507     1.007825032230
         H           -0.337539590306     2.504458702155     0.607988830507     1.007825032230
         H            1.902120409694    -1.792893297845    -1.181054169493     1.007825032230
         H            2.629794409694    -1.763834297845     0.444960830507     1.007825032230
         H            2.820947409694    -0.361956297845    -0.642648169493     1.007825032230

  Basis Set: AUG-CC-PVTZ
    Blend: AUG-CC-PVTZ
  Basis Set: (AUG-CC-PVTZ AUX)
    Blend: AUG-CC-PVTZ-JKFIT
	 Reference Energy          =    -402.1080826788890477 [Eh]
	 Singles Energy            =      -0.0000000000000000 [Eh]
	 Same-Spin Energy          =      -0.4223704353755373 [Eh]
	 Opposite-Spin Energy      =      -1.4060170177815401 [Eh]
	 Correlation Energy        =      -1.8283874531570774 [Eh]
	 Total Energy              =    -403.9364701320461108 [Eh]

	 ================> DF-SCS-MP2 Energies <==================
	-----------------------------------------------------------
	 SCS Same-Spin Scale       =       0.3333333333333333 [-]
	 SCS Opposite-Spin Scale   =       1.2000000000000000 [-]
	 SCS Same-Spin Energy      =      -0.1407901451251791 [Eh]
	 SCS Opposite-Spin Energy  =      -1.6872204213378481 [Eh]
	 SCS Correlation Energy    =      -1.8280105664630273 [Eh]
	 SCS Total Energy          =    -403.9360932453520832 [Eh]
	-----------------------------------------------------------

  Dipole Moment: [D]
     X:    -2.6163      Y:    -3.0960      Z:     0.7956     Total:     4.1308

*** Psi4 exiting successfully. Buy a developer a beer!
