                               Psi4 1.4a3.dev225

  ==> Input File <==

--------------------------------------------------------------------------
#psi4
#
memory 32 gb

molecule  {
0 1
  O        1.7739800     1.6003060    -0.2911220
  N        0.9906540    -0.4920130     0.2058460
  C       -2.2286800    -0.2510300    -0.1765170
  C       -1.2730330    -1.4351160    -0.3152870
  C       -1.6071657     1.1062586    -0.3927351
  C       -0.0841310    -1.3759550     0.6456410
  C       -0.4584780     1.4603760     0.5782350
  C        0.8707430     0.8730760     0.1404640
  C        2.1918860    -1.1187650    -0.3259700
  H       -2.6699130    -0.2765890     0.8297550
  H       -3.0608600    -0.3791320    -0.8796750
  H       -1.8321650    -2.3606500    -0.1255340
  H       -0.8887130    -1.5005570    -1.3409750
  H       -2.3834680     1.8827830    -0.2893500
  H       -1.2246060     1.2090190    -1.4238390
  H       -0.4244360    -1.0900460     1.6492300
  H        0.3620160    -2.3701320     0.7449650
  H       -0.7218730     1.1400510     1.5944380
  H       -0.2910430     2.5394790     0.6064930
  H        1.9486170    -1.7578730    -1.1825500
  H        2.6762910    -1.7288140     0.4434650
  H        2.8674440    -0.3269360    -0.6441440
units angstrom
no_reorient  #important for SAPT in psi4, default
symmetry c1  #important for SAPT in psi4, default
}

set PROPERTIES_ORIGIN ["COM"]
properties('MP2/aug-cc-pvtz', properties = ['dipole'])
--------------------------------------------------------------------------

    Molecular point group: c1
  Charge       = 0
  Multiplicity = 1
  Basis Set: AUG-CC-PVTZ
    Blend: AUG-CC-PVTZ
  Basis Set: (AUG-CC-PVTZ AUX)
    Blend: AUG-CC-PVTZ-JKFIT

    Orbital Energies [Eh]
    ---------------------

    Doubly Occupied:

       1A    -20.505630     2A    -15.580462     3A    -11.339779
       4A    -11.272309     5A    -11.250546     6A    -11.235375
       7A    -11.233925     8A    -11.233512     9A    -11.230930
      10A     -1.361754    11A     -1.241169    12A     -1.099287
      13A     -1.037322    14A     -0.976802    15A     -0.913801
      16A     -0.878579    17A     -0.791866    18A     -0.725223
      19A     -0.690359    20A     -0.669213    21A     -0.633445
      22A     -0.608331    23A     -0.603003    24A     -0.594489
      25A     -0.582804    26A     -0.558414    27A     -0.543701
      28A     -0.527028    29A     -0.509269    30A     -0.509147
      31A     -0.479934    32A     -0.469286    33A     -0.463632
      34A     -0.407283    35A     -0.365069

  @DF-RHF Final Energy:  -402.11153810884764

   => Energetics <=

    Nuclear Repulsion Energy =            486.4341169561710103
    One-Electron Energy =               -1510.8459540309636395
    Two-Electron Energy =                 622.3002989659449895
    Total Energy =                       -402.1115381088476397
  Basis Set: (AUG-CC-PVTZ AUX)
    Blend: AUG-CC-PVTZ-RI
    Molecular point group: c1

    Geometry (in Angstrom), charge = 0, multiplicity = 1:

       Center              X                  Y                   Z               Mass
    ------------   -----------------  -----------------  -----------------  -----------------
         O            1.730756518553     1.562898168853    -0.291547778851    15.994914619570
         N            0.947430518553    -0.529420831147     0.205420221149    14.003074004430
         C           -2.271903481447    -0.288437831147    -0.176942778851    12.000000000000
         C           -1.316256481447    -1.472523831147    -0.315712778851    12.000000000000
         C           -1.650389181447     1.068850768853    -0.393160878851    12.000000000000
         C           -0.127354481447    -1.413362831147     0.645215221149    12.000000000000
         C           -0.501701481447     1.422968168853     0.577809221149    12.000000000000
         C            0.827519518553     0.835668168853     0.140038221149    12.000000000000
         C            2.148662518553    -1.156172831147    -0.326395778851    12.000000000000
         H           -2.713136481447    -0.313996831147     0.829329221149     1.007825032230
         H           -3.104083481447    -0.416539831147    -0.880100778851     1.007825032230
         H           -1.875388481447    -2.398057831147    -0.125959778851     1.007825032230
         H           -0.931936481447    -1.537964831147    -1.341400778851     1.007825032230
         H           -2.426691481447     1.845375168853    -0.289775778851     1.007825032230
         H           -1.267829481447     1.171611168853    -1.424264778851     1.007825032230
         H           -0.467659481447    -1.127453831147     1.648804221149     1.007825032230
         H            0.318792518553    -2.407539831147     0.744539221149     1.007825032230
         H           -0.765096481447     1.102643168853     1.594012221149     1.007825032230
         H           -0.334266481447     2.502071168853     0.606067221149     1.007825032230
         H            1.905393518553    -1.795280831147    -1.182975778851     1.007825032230
         H            2.633067518553    -1.766221831147     0.443039221149     1.007825032230
         H            2.824220518553    -0.364343831147    -0.644569778851     1.007825032230

  Basis Set: AUG-CC-PVTZ
    Blend: AUG-CC-PVTZ
  Basis Set: (AUG-CC-PVTZ AUX)
    Blend: AUG-CC-PVTZ-JKFIT
	 Reference Energy          =    -402.1115381088476397 [Eh]
	 Singles Energy            =      -0.0000000000000000 [Eh]
	 Same-Spin Energy          =      -0.4218815331881564 [Eh]
	 Opposite-Spin Energy      =      -1.4053042101289179 [Eh]
	 Correlation Energy        =      -1.8271857433170742 [Eh]
	 Total Energy              =    -403.9387238521647419 [Eh]

	 ================> DF-SCS-MP2 Energies <==================
	-----------------------------------------------------------
	 SCS Same-Spin Scale       =       0.3333333333333333 [-]
	 SCS Opposite-Spin Scale   =       1.2000000000000000 [-]
	 SCS Same-Spin Energy      =      -0.1406271777293854 [Eh]
	 SCS Opposite-Spin Energy  =      -1.6863650521547016 [Eh]
	 SCS Correlation Energy    =      -1.8269922298840870 [Eh]
	 SCS Total Energy          =    -403.9385303387317094 [Eh]
	-----------------------------------------------------------

  Dipole Moment: [D]
     X:    -2.5886      Y:    -3.1092      Z:     0.7953     Total:     4.1232

*** Psi4 exiting successfully. Buy a developer a beer!
