                               Psi4 1.4a3.dev225

  ==> Input File <==

--------------------------------------------------------------------------
#psi4
#
memory 32 gb

molecule  {
0 1
  O        1.7739800     1.6003060    -0.2911220
  N        0.9906540    -0.4920130     0.2058460
  C       -2.2286800    -0.2510300    -0.1765170
  C       -1.2730330    -1.4351160    -0.3152870
  C       -1.5989250     1.1242550    -0.3956020
  C       -0.0841310    -1.3759550     0.6456410
  C       -0.4584780     1.4603760     0.5782350
  C        0.8724911     0.8531754     0.1414172
  C        2.1918860    -1.1187650    -0.3259700
  H       -2.6699130    -0.2765890     0.8297550
  H       -3.0608600    -0.3791320    -0.8796750
  H       -1.8321650    -2.3606500    -0.1255340
  H       -0.8887130    -1.5005570    -1.3409750
  H       -2.3834680     1.8827830    -0.2893500
  H       -1.2246060     1.2090190    -1.4238390
  H       -0.4244360    -1.0900460     1.6492300
  H        0.3620160    -2.3701320     0.7449650
  H       -0.7218730     1.1400510     1.5944380
  H       -0.2910430     2.5394790     0.6064930
  H        1.9486170    -1.7578730    -1.1825500
  H        2.6762910    -1.7288140     0.4434650
  H        2.8674440    -0.3269360    -0.6441440
units angstrom
no_reorient  #important for SAPT in psi4, default
symmetry c1  #important for SAPT in psi4, default
}

set PROPERTIES_ORIGIN ["COM"]
properties('MP2/aug-cc-pvtz', properties = ['dipole'])
--------------------------------------------------------------------------

    Molecular point group: c1
  Charge       = 0
  Multiplicity = 1
  Basis Set: AUG-CC-PVTZ
    Blend: AUG-CC-PVTZ
  Basis Set: (AUG-CC-PVTZ AUX)
    Blend: AUG-CC-PVTZ-JKFIT

    Orbital Energies [Eh]
    ---------------------

    Doubly Occupied:

       1A    -20.501627     2A    -15.584159     3A    -11.338577
       4A    -11.274187     5A    -11.252343     6A    -11.234593
       7A    -11.234029     8A    -11.233113     9A    -11.231739
      10A     -1.355817    11A     -1.245061    12A     -1.097875
      13A     -1.038024    14A     -0.976981    15A     -0.918722
      16A     -0.877852    17A     -0.793070    18A     -0.727214
      19A     -0.689920    20A     -0.668951    21A     -0.635017
      22A     -0.609359    23A     -0.600934    24A     -0.595044
      25A     -0.581835    26A     -0.558925    27A     -0.541909
      28A     -0.528730    29A     -0.509581    30A     -0.508792
      31A     -0.479681    32A     -0.466777    33A     -0.465122
      34A     -0.404086    35A     -0.366962

  @DF-RHF Final Energy:  -402.11133772086248

   => Energetics <=

    Nuclear Repulsion Energy =            486.4357176960725155
    One-Electron Energy =               -1510.8408993198795542
    Two-Electron Energy =                 622.2938439029445590
    Total Energy =                       -402.1113377208624797
  Basis Set: (AUG-CC-PVTZ AUX)
    Blend: AUG-CC-PVTZ-RI
    Molecular point group: c1

    Geometry (in Angstrom), charge = 0, multiplicity = 1:

       Center              X                  Y                   Z               Mass
    ------------   -----------------  -----------------  -----------------  -----------------
         O            1.729813435393     1.563077952106    -0.291367098665    15.994914619570
         N            0.946487435393    -0.529241047894     0.205600901335    14.003074004430
         C           -2.272846564607    -0.288258047894    -0.176762098665    12.000000000000
         C           -1.317199564607    -1.472344047894    -0.315532098665    12.000000000000
         C           -1.643091564607     1.087026952106    -0.395847098665    12.000000000000
         C           -0.128297564607    -1.413183047894     0.645395901335    12.000000000000
         C           -0.502644564607     1.423147952106     0.577989901335    12.000000000000
         C            0.828324535393     0.815947352106     0.141172101335    12.000000000000
         C            2.147719435393    -1.155993047894    -0.326215098665    12.000000000000
         H           -2.714079564607    -0.313817047894     0.829509901335     1.007825032230
         H           -3.105026564607    -0.416360047894    -0.879920098665     1.007825032230
         H           -1.876331564607    -2.397878047894    -0.125779098665     1.007825032230
         H           -0.932879564607    -1.537785047894    -1.341220098665     1.007825032230
         H           -2.427634564607     1.845554952106    -0.289595098665     1.007825032230
         H           -1.268772564607     1.171790952106    -1.424084098665     1.007825032230
         H           -0.468602564607    -1.127274047894     1.648984901335     1.007825032230
         H            0.317849435393    -2.407360047894     0.744719901335     1.007825032230
         H           -0.766039564607     1.102822952106     1.594192901335     1.007825032230
         H           -0.335209564607     2.502250952106     0.606247901335     1.007825032230
         H            1.904450435393    -1.795101047894    -1.182795098665     1.007825032230
         H            2.632124435393    -1.766042047894     0.443219901335     1.007825032230
         H            2.823277435393    -0.364164047894    -0.644389098665     1.007825032230

  Basis Set: AUG-CC-PVTZ
    Blend: AUG-CC-PVTZ
  Basis Set: (AUG-CC-PVTZ AUX)
    Blend: AUG-CC-PVTZ-JKFIT
	 Reference Energy          =    -402.1113377208624797 [Eh]
	 Singles Energy            =      -0.0000000000000000 [Eh]
	 Same-Spin Energy          =      -0.4218649105910446 [Eh]
	 Opposite-Spin Energy      =      -1.4054195295661618 [Eh]
	 Correlation Energy        =      -1.8272844401572064 [Eh]
	 Total Energy              =    -403.9386221610196799 [Eh]

	 ================> DF-SCS-MP2 Energies <==================
	-----------------------------------------------------------
	 SCS Same-Spin Scale       =       0.3333333333333333 [-]
	 SCS Opposite-Spin Scale   =       1.2000000000000000 [-]
	 SCS Same-Spin Energy      =      -0.1406216368636815 [Eh]
	 SCS Opposite-Spin Energy  =      -1.6865034354793942 [Eh]
	 SCS Correlation Energy    =      -1.8271250723430756 [Eh]
	 SCS Total Energy          =    -403.9384627932055309 [Eh]
	-----------------------------------------------------------

  Dipole Moment: [D]
     X:    -2.5937      Y:    -3.2803      Z:     0.8103     Total:     4.2596

*** Psi4 exiting successfully. Buy a developer a beer!
