                               Psi4 1.4a3.dev225

  ==> Input File <==

--------------------------------------------------------------------------
#psi4
#
memory 32 gb

molecule  {
0 1
  O        1.7739800     1.6003060    -0.2911220
  N        0.9906540    -0.4920130     0.2058460
  C       -2.2286800    -0.2510300    -0.1765170
  C       -1.2730330    -1.4351160    -0.3152870
  C       -1.5989250     1.1242550    -0.3956020
  C       -0.0841310    -1.3759550     0.6456410
  C       -0.4584780     1.4603760     0.5782350
  C        0.8707430     0.8730760     0.1404640
  C        2.1918860    -1.1187650    -0.3259700
  H       -2.6699130    -0.2765890     0.8297550
  H       -3.0608600    -0.3791320    -0.8796750
  H       -1.8321650    -2.3606500    -0.1255340
  H       -0.8887130    -1.5005570    -1.3409750
  H       -2.3691572     1.8689467    -0.2912881
  H       -1.2246060     1.2090190    -1.4238390
  H       -0.4244360    -1.0900460     1.6492300
  H        0.3620160    -2.3701320     0.7449650
  H       -0.7218730     1.1400510     1.5944380
  H       -0.2910430     2.5394790     0.6064930
  H        1.9486170    -1.7578730    -1.1825500
  H        2.6762910    -1.7288140     0.4434650
  H        2.8674440    -0.3269360    -0.6441440
units angstrom
no_reorient  #important for SAPT in psi4, default
symmetry c1  #important for SAPT in psi4, default
}

set PROPERTIES_ORIGIN ["COM"]
properties('MP2/aug-cc-pvtz', properties = ['dipole'])
--------------------------------------------------------------------------

    Molecular point group: c1
  Charge       = 0
  Multiplicity = 1
  Basis Set: AUG-CC-PVTZ
    Blend: AUG-CC-PVTZ
  Basis Set: (AUG-CC-PVTZ AUX)
    Blend: AUG-CC-PVTZ-JKFIT

    Orbital Energies [Eh]
    ---------------------

    Doubly Occupied:

       1A    -20.505582     2A    -15.580458     3A    -11.339805
       4A    -11.272116     5A    -11.250505     6A    -11.233490
       7A    -11.233249     8A    -11.232135     9A    -11.231259
      10A     -1.361730    11A     -1.241082    12A     -1.097891
      13A     -1.038255    14A     -0.975727    15A     -0.913868
      16A     -0.879026    17A     -0.793160    18A     -0.725211
      19A     -0.690696    20A     -0.669062    21A     -0.633169
      22A     -0.608778    23A     -0.601743    24A     -0.595442
      25A     -0.583467    26A     -0.558228    27A     -0.544505
      28A     -0.527018    29A     -0.509880    30A     -0.509003
      31A     -0.479376    32A     -0.467490    33A     -0.466106
      34A     -0.407436    35A     -0.365006

  @DF-RHF Final Energy:  -402.11214770486845

   => Energetics <=

    Nuclear Repulsion Energy =            486.4073592788123506
    One-Electron Energy =               -1510.7971022875269682
    Two-Electron Energy =                 622.2775953038460557
    Total Energy =                       -402.1121477048684483
  Basis Set: (AUG-CC-PVTZ AUX)
    Blend: AUG-CC-PVTZ-RI
    Molecular point group: c1

    Geometry (in Angstrom), charge = 0, multiplicity = 1:

       Center              X                  Y                   Z               Mass
    ------------   -----------------  -----------------  -----------------  -----------------
         O            1.729865004490     1.561308769286    -0.291261735205    15.994914619570
         N            0.946539004490    -0.531010230714     0.205706264795    14.003074004430
         C           -2.272794995510    -0.290027230714    -0.176656735205    12.000000000000
         C           -1.317147995510    -1.474113230714    -0.315426735205    12.000000000000
         C           -1.643039995510     1.085257769286    -0.395741735205    12.000000000000
         C           -0.128245995510    -1.414952230714     0.645501264795    12.000000000000
         C           -0.502592995510     1.421378769286     0.578095264795    12.000000000000
         C            0.826628004490     0.834078769286     0.140324264795    12.000000000000
         C            2.147771004490    -1.157762230714    -0.326109735205    12.000000000000
         H           -2.714027995510    -0.315586230714     0.829615264795     1.007825032230
         H           -3.104974995510    -0.418129230714    -0.879814735205     1.007825032230
         H           -1.876279995510    -2.399647230714    -0.125673735205     1.007825032230
         H           -0.932827995510    -1.539554230714    -1.341114735205     1.007825032230
         H           -2.413272195510     1.829949469286    -0.291427835205     1.007825032230
         H           -1.268720995510     1.170021769286    -1.423978735205     1.007825032230
         H           -0.468550995510    -1.129043230714     1.649090264795     1.007825032230
         H            0.317901004490    -2.409129230714     0.744825264795     1.007825032230
         H           -0.765987995510     1.101053769286     1.594298264795     1.007825032230
         H           -0.335157995510     2.500481769286     0.606353264795     1.007825032230
         H            1.904502004490    -1.796870230714    -1.182689735205     1.007825032230
         H            2.632176004490    -1.767811230714     0.443325264795     1.007825032230
         H            2.823329004490    -0.365933230714    -0.644283735205     1.007825032230

  Basis Set: AUG-CC-PVTZ
    Blend: AUG-CC-PVTZ
  Basis Set: (AUG-CC-PVTZ AUX)
    Blend: AUG-CC-PVTZ-JKFIT
	 Reference Energy          =    -402.1121477048684483 [Eh]
	 Singles Energy            =      -0.0000000000000000 [Eh]
	 Same-Spin Energy          =      -0.4217705946147416 [Eh]
	 Opposite-Spin Energy      =      -1.4050648951613043 [Eh]
	 Correlation Energy        =      -1.8268354897760459 [Eh]
	 Total Energy              =    -403.9389831946444929 [Eh]

	 ================> DF-SCS-MP2 Energies <==================
	-----------------------------------------------------------
	 SCS Same-Spin Scale       =       0.3333333333333333 [-]
	 SCS Opposite-Spin Scale   =       1.2000000000000000 [-]
	 SCS Same-Spin Energy      =      -0.1405901982049139 [Eh]
	 SCS Opposite-Spin Energy  =      -1.6860778741935651 [Eh]
	 SCS Correlation Energy    =      -1.8266680723984789 [Eh]
	 SCS Total Energy          =    -403.9388157772669388 [Eh]
	-----------------------------------------------------------

  Dipole Moment: [D]
     X:    -2.5914      Y:    -3.0927      Z:     0.7922     Total:     4.1119

*** Psi4 exiting successfully. Buy a developer a beer!
