                               Psi4 1.3.2 release

  ==> Input File <==

--------------------------------------------------------------------------
#psi4
#
memory 32 gb

molecule  {
0 1
  O        1.7739800     1.6003060    -0.2911220
  N        0.9906540    -0.4920130     0.2058460
  C       -2.2286800    -0.2510300    -0.1765170
  C       -1.2730330    -1.4351160    -0.3152870
  C       -1.5989250     1.1242550    -0.3956020
  C       -0.1136918    -1.3350626     0.6526387
  C       -0.4584780     1.4603760     0.5782350
  C        0.8707430     0.8730760     0.1404640
  C        2.1918860    -1.1187650    -0.3259700
  H       -2.6699130    -0.2765890     0.8297550
  H       -3.0608600    -0.3791320    -0.8796750
  H       -1.8321650    -2.3606500    -0.1255340
  H       -0.8887130    -1.5005570    -1.3409750
  H       -2.3834680     1.8827830    -0.2893500
  H       -1.2246060     1.2090190    -1.4238390
  H       -0.4244360    -1.0900460     1.6492300
  H        0.3620160    -2.3701320     0.7449650
  H       -0.7218730     1.1400510     1.5944380
  H       -0.2910430     2.5394790     0.6064930
  H        1.9486170    -1.7578730    -1.1825500
  H        2.6762910    -1.7288140     0.4434650
  H        2.8674440    -0.3269360    -0.6441440
units angstrom
no_reorient  #important for SAPT in psi4, default
symmetry c1  #important for SAPT in psi4, default
}

set PROPERTIES_ORIGIN ["COM"]
properties('MP2/aug-cc-pvtz', properties = ['dipole'])
--------------------------------------------------------------------------

    Molecular point group: c1
  Charge       = 0
  Multiplicity = 1
  Basis Set: AUG-CC-PVTZ
    Blend: AUG-CC-PVTZ
  Basis Set: (AUG-CC-PVTZ AUX)
    Blend: AUG-CC-PVTZ-JKFIT

    Orbital Energies [Eh]
    ---------------------

    Doubly Occupied:

       1A    -20.505334     2A    -15.580855     3A    -11.338930
       4A    -11.273048     5A    -11.251327     6A    -11.234829
       7A    -11.233670     8A    -11.232982     9A    -11.230865
      10A     -1.361663    11A     -1.241395    12A     -1.099056
      13A     -1.039042    14A     -0.976764    15A     -0.911884
      16A     -0.877651    17A     -0.793364    18A     -0.727328
      19A     -0.691303    20A     -0.667067    21A     -0.634296
      22A     -0.608538    23A     -0.602176    24A     -0.593685
      25A     -0.577191    26A     -0.560926    27A     -0.544485
      28A     -0.528727    29A     -0.512974    30A     -0.507163
      31A     -0.479902    32A     -0.468509    33A     -0.460227
      34A     -0.406683    35A     -0.366624

  @DF-RHF Final Energy:  -402.10875790588830

   => Energetics <=

    Nuclear Repulsion Energy =            486.7633424553761756
    One-Electron Energy =               -1511.5032693695598027
    Two-Electron Energy =                 622.6311690082952737
    Total Energy =                       -402.1087579058882966
  Basis Set: (AUG-CC-PVTZ AUX)
    Blend: AUG-CC-PVTZ-RI
    Molecular point group: c1

    Geometry (in Angstrom), charge = 0, multiplicity = 1:

       Center              X                  Y                   Z               Mass
    ------------   -----------------  -----------------  -----------------  -----------------
         O            1.732769435749     1.557338238169    -0.291937784449    15.994914619570
         N            0.949443435749    -0.534980761831     0.205030215551    14.003074004430
         C           -2.269890564251    -0.293997761831    -0.177332784449    12.000000000000
         C           -1.314243564251    -1.478083761831    -0.316102784449    12.000000000000
         C           -1.640135564251     1.081287238169    -0.396417784449    12.000000000000
         C           -0.154902364251    -1.378030361831     0.651822915551    12.000000000000
         C           -0.499688564251     1.417408238169     0.577419215551    12.000000000000
         C            0.829532435749     0.830108238169     0.139648215551    12.000000000000
         C            2.150675435749    -1.161732761831    -0.326785784449    12.000000000000
         H           -2.711123564251    -0.319556761831     0.828939215551     1.007825032230
         H           -3.102070564251    -0.422099761831    -0.880490784449     1.007825032230
         H           -1.873375564251    -2.403617761831    -0.126349784449     1.007825032230
         H           -0.929923564251    -1.543524761831    -1.341790784449     1.007825032230
         H           -2.424678564251     1.839815238169    -0.290165784449     1.007825032230
         H           -1.265816564251     1.166051238169    -1.424654784449     1.007825032230
         H           -0.465646564251    -1.133013761831     1.648414215551     1.007825032230
         H            0.320805435749    -2.413099761831     0.744149215551     1.007825032230
         H           -0.763083564251     1.097083238169     1.593622215551     1.007825032230
         H           -0.332253564251     2.496511238169     0.605677215551     1.007825032230
         H            1.907406435749    -1.800840761831    -1.183365784449     1.007825032230
         H            2.635080435749    -1.771781761831     0.442649215551     1.007825032230
         H            2.826233435749    -0.369903761831    -0.644959784449     1.007825032230

  Basis Set: AUG-CC-PVTZ
    Blend: AUG-CC-PVTZ
  Basis Set: (AUG-CC-PVTZ AUX)
    Blend: AUG-CC-PVTZ-JKFIT
	 Reference Energy          =    -402.1087579058882966 [Eh]
	 Singles Energy            =      -0.0000000000000000 [Eh]
	 Same-Spin Energy          =      -0.4220364827362313 [Eh]
	 Opposite-Spin Energy      =      -1.4056229226616399 [Eh]
	 Correlation Energy        =      -1.8276594053978712 [Eh]
	 Total Energy              =    -403.9364173112861636 [Eh]

	 ================> DF-SCS-MP2 Energies <==================
	-----------------------------------------------------------
	 SCS Same-Spin Scale       =       0.3333333333333333 [-]
	 SCS Opposite-Spin Scale   =       1.2000000000000000 [-]
	 SCS Same-Spin Energy      =      -0.1406788275787438 [Eh]
	 SCS Opposite-Spin Energy  =      -1.6867475071939679 [Eh]
	 SCS Correlation Energy    =      -1.8274263347727118 [Eh]
	 SCS Total Energy          =    -403.9361842406610208 [Eh]
	-----------------------------------------------------------

  Dipole Moment: [D]
     X:    -2.5918      Y:    -3.0769      Z:     0.7906     Total:     4.1000

*** Psi4 exiting successfully. Buy a developer a beer!
