                               Psi4 1.3.2 release

  ==> Input File <==

--------------------------------------------------------------------------
#psi4
#
memory 32 gb

molecule  {
0 1
  O        1.7739800     1.6003060    -0.2911220
  N        0.9771702    -0.4863627     0.1849879
  C       -2.2286800    -0.2510300    -0.1765170
  C       -1.2730330    -1.4351160    -0.3152870
  C       -1.5989250     1.1242550    -0.3956020
  C       -0.0841310    -1.3759550     0.6456410
  C       -0.4584780     1.4603760     0.5782350
  C        0.8707430     0.8730760     0.1404640
  C        2.1918860    -1.1187650    -0.3259700
  H       -2.6699130    -0.2765890     0.8297550
  H       -3.0608600    -0.3791320    -0.8796750
  H       -1.8321650    -2.3606500    -0.1255340
  H       -0.8887130    -1.5005570    -1.3409750
  H       -2.3834680     1.8827830    -0.2893500
  H       -1.2246060     1.2090190    -1.4238390
  H       -0.4244360    -1.0900460     1.6492300
  H        0.3620160    -2.3701320     0.7449650
  H       -0.7218730     1.1400510     1.5944380
  H       -0.2910430     2.5394790     0.6064930
  H        1.9486170    -1.7578730    -1.1825500
  H        2.6762910    -1.7288140     0.4434650
  H        2.8674440    -0.3269360    -0.6441440
units angstrom
no_reorient  #important for SAPT in psi4, default
symmetry c1  #important for SAPT in psi4, default
}

set PROPERTIES_ORIGIN ["COM"]
properties('MP2/aug-cc-pvtz', properties = ['dipole'])
--------------------------------------------------------------------------

    Molecular point group: c1
  Charge       = 0
  Multiplicity = 1
  Basis Set: AUG-CC-PVTZ
    Blend: AUG-CC-PVTZ
  Basis Set: (AUG-CC-PVTZ AUX)
    Blend: AUG-CC-PVTZ-JKFIT

    Orbital Energies [Eh]
    ---------------------

    Doubly Occupied:

       1A    -20.504315     2A    -15.581100     3A    -11.338764
       4A    -11.272725     5A    -11.251526     6A    -11.234284
       7A    -11.233047     8A    -11.232873     9A    -11.231294
      10A     -1.361603    11A     -1.241645    12A     -1.097081
      13A     -1.038399    14A     -0.975276    15A     -0.915547
      16A     -0.877632    17A     -0.792437    18A     -0.726078
      19A     -0.690298    20A     -0.668978    21A     -0.633347
      22A     -0.607097    23A     -0.601509    24A     -0.594637
      25A     -0.583155    26A     -0.558716    27A     -0.544240
      28A     -0.527035    29A     -0.510155    30A     -0.508621
      31A     -0.479149    32A     -0.466917    33A     -0.465166
      34A     -0.406719    35A     -0.365557

  @DF-RHF Final Energy:  -402.11202972572642

   => Energetics <=

    Nuclear Repulsion Energy =            486.5262008804934908
    One-Electron Energy =               -1511.0426178015629830
    Two-Electron Energy =                 622.4043871953431335
    Total Energy =                       -402.1120297257264156
  Basis Set: (AUG-CC-PVTZ AUX)
    Blend: AUG-CC-PVTZ-RI
    Molecular point group: c1

    Geometry (in Angstrom), charge = 0, multiplicity = 1:

       Center              X                  Y                   Z               Mass
    ------------   -----------------  -----------------  -----------------  -----------------
         O            1.731464043743     1.560576539955    -0.288979084497    15.994914619570
         N            0.934654243743    -0.526092160045     0.187130815503    14.003074004430
         C           -2.271195956257    -0.290759460045    -0.174374084497    12.000000000000
         C           -1.315548956257    -1.474845460045    -0.313144084497    12.000000000000
         C           -1.641440956257     1.084525539955    -0.393459084497    12.000000000000
         C           -0.126646956257    -1.415684460045     0.647783915503    12.000000000000
         C           -0.500993956257     1.420646539955     0.580377915503    12.000000000000
         C            0.828227043743     0.833346539955     0.142606915503    12.000000000000
         C            2.149370043743    -1.158494460045    -0.323827084497    12.000000000000
         H           -2.712428956257    -0.316318460045     0.831897915503     1.007825032230
         H           -3.103375956257    -0.418861460045    -0.877532084497     1.007825032230
         H           -1.874680956257    -2.400379460045    -0.123391084497     1.007825032230
         H           -0.931228956257    -1.540286460045    -1.338832084497     1.007825032230
         H           -2.425983956257     1.843053539955    -0.287207084497     1.007825032230
         H           -1.267121956257     1.169289539955    -1.421696084497     1.007825032230
         H           -0.466951956257    -1.129775460045     1.651372915503     1.007825032230
         H            0.319500043743    -2.409861460045     0.747107915503     1.007825032230
         H           -0.764388956257     1.100321539955     1.596580915503     1.007825032230
         H           -0.333558956257     2.499749539955     0.608635915503     1.007825032230
         H            1.906101043743    -1.797602460045    -1.180407084497     1.007825032230
         H            2.633775043743    -1.768543460045     0.445607915503     1.007825032230
         H            2.824928043743    -0.366665460045    -0.642001084497     1.007825032230

  Basis Set: AUG-CC-PVTZ
    Blend: AUG-CC-PVTZ
  Basis Set: (AUG-CC-PVTZ AUX)
    Blend: AUG-CC-PVTZ-JKFIT
	 Reference Energy          =    -402.1120297257264156 [Eh]
	 Singles Energy            =      -0.0000000000000000 [Eh]
	 Same-Spin Energy          =      -0.4217663315590747 [Eh]
	 Opposite-Spin Energy      =      -1.4051942530066388 [Eh]
	 Correlation Energy        =      -1.8269605845657135 [Eh]
	 Total Energy              =    -403.9389903102921267 [Eh]

	 ================> DF-SCS-MP2 Energies <==================
	-----------------------------------------------------------
	 SCS Same-Spin Scale       =       0.3333333333333333 [-]
	 SCS Opposite-Spin Scale   =       1.2000000000000000 [-]
	 SCS Same-Spin Energy      =      -0.1405887771863582 [Eh]
	 SCS Opposite-Spin Energy  =      -1.6862331036079665 [Eh]
	 SCS Correlation Energy    =      -1.8268218807943248 [Eh]
	 SCS Total Energy          =    -403.9388516065207568 [Eh]
	-----------------------------------------------------------

  Dipole Moment: [D]
     X:    -2.5550      Y:    -3.1557      Z:     0.8262     Total:     4.1435

*** Psi4 exiting successfully. Buy a developer a beer!
