                               Psi4 1.3.2 release

  ==> Input File <==

--------------------------------------------------------------------------
#psi4
#
memory 32 gb

molecule  {
0 1
  O        1.7739800     1.6003060    -0.2911220
  N        0.9906540    -0.4920130     0.2058460
  C       -2.2286800    -0.2510300    -0.1765170
  C       -1.2730330    -1.4351160    -0.3152870
  C       -1.5989250     1.1242550    -0.3956020
  C       -0.0841310    -1.3759550     0.6456410
  C       -0.3842720     1.4822466     0.6416001
  C        0.8707430     0.8730760     0.1404640
  C        2.1918860    -1.1187650    -0.3259700
  H       -2.6699130    -0.2765890     0.8297550
  H       -3.0608600    -0.3791320    -0.8796750
  H       -1.8321650    -2.3606500    -0.1255340
  H       -0.8887130    -1.5005570    -1.3409750
  H       -2.3834680     1.8827830    -0.2893500
  H       -1.2246060     1.2090190    -1.4238390
  H       -0.4244360    -1.0900460     1.6492300
  H        0.3620160    -2.3701320     0.7449650
  H       -0.7218730     1.1400510     1.5944380
  H       -0.2910430     2.5394790     0.6064930
  H        1.9486170    -1.7578730    -1.1825500
  H        2.6762910    -1.7288140     0.4434650
  H        2.8674440    -0.3269360    -0.6441440
units angstrom
no_reorient  #important for SAPT in psi4, default
symmetry c1  #important for SAPT in psi4, default
}

set PROPERTIES_ORIGIN ["COM"]
properties('MP2/aug-cc-pvtz', properties = ['dipole'])
--------------------------------------------------------------------------

    Molecular point group: c1
  Charge       = 0
  Multiplicity = 1
  Basis Set: AUG-CC-PVTZ
    Blend: AUG-CC-PVTZ
  Basis Set: (AUG-CC-PVTZ AUX)
    Blend: AUG-CC-PVTZ-JKFIT

    Orbital Energies [Eh]
    ---------------------

    Doubly Occupied:

       1A    -20.503441     2A    -15.580211     3A    -11.338229
       4A    -11.272321     5A    -11.250487     6A    -11.240225
       7A    -11.233322     8A    -11.232072     9A    -11.231006
      10A     -1.361855    11A     -1.240829    12A     -1.091788
      13A     -1.035365    14A     -0.977703    15A     -0.913035
      16A     -0.880621    17A     -0.791594    18A     -0.727254
      19A     -0.694300    20A     -0.668311    21A     -0.633431
      22A     -0.607260    23A     -0.601439    24A     -0.595595
      25A     -0.582529    26A     -0.561930    27A     -0.544020
      28A     -0.525892    29A     -0.513220    30A     -0.508581
      31A     -0.480106    32A     -0.471261    33A     -0.450718
      34A     -0.408078    35A     -0.364757

  @DF-RHF Final Energy:  -402.10564662302426

   => Energetics <=

    Nuclear Repulsion Energy =            485.7426177440044057
    One-Electron Energy =               -1509.4709527626648651
    Two-Electron Energy =                 621.6226883956362599
    Total Energy =                       -402.1056466230241995
  Basis Set: (AUG-CC-PVTZ AUX)
    Blend: AUG-CC-PVTZ-RI
    Molecular point group: c1

    Geometry (in Angstrom), charge = 0, multiplicity = 1:

       Center              X                  Y                   Z               Mass
    ------------   -----------------  -----------------  -----------------  -----------------
         O            1.722972390891     1.559134163532    -0.297259659523    15.994914619570
         N            0.939646390891    -0.533184836468     0.199708340477    14.003074004430
         C           -2.279687609109    -0.292201836468    -0.182654659523    12.000000000000
         C           -1.324040609109    -1.476287836468    -0.321424659523    12.000000000000
         C           -1.649932609109     1.083083163532    -0.401739659523    12.000000000000
         C           -0.135138609109    -1.417126836468     0.639503340477    12.000000000000
         C           -0.435279609109     1.441074763532     0.635462440477    12.000000000000
         C            0.819735390891     0.831904163532     0.134326340477    12.000000000000
         C            2.140878390891    -1.159936836468    -0.332107659523    12.000000000000
         H           -2.720920609109    -0.317760836468     0.823617340477     1.007825032230
         H           -3.111867609109    -0.420303836468    -0.885812659523     1.007825032230
         H           -1.883172609109    -2.401821836468    -0.131671659523     1.007825032230
         H           -0.939720609109    -1.541728836468    -1.347112659523     1.007825032230
         H           -2.434475609109     1.841611163532    -0.295487659523     1.007825032230
         H           -1.275613609109     1.167847163532    -1.429976659523     1.007825032230
         H           -0.475443609109    -1.131217836468     1.643092340477     1.007825032230
         H            0.311008390891    -2.411303836468     0.738827340477     1.007825032230
         H           -0.772880609109     1.098879163532     1.588300340477     1.007825032230
         H           -0.342050609109     2.498307163532     0.600355340477     1.007825032230
         H            1.897609390891    -1.799044836468    -1.188687659523     1.007825032230
         H            2.625283390891    -1.769985836468     0.437327340477     1.007825032230
         H            2.816436390891    -0.368107836468    -0.650281659523     1.007825032230

  Basis Set: AUG-CC-PVTZ
    Blend: AUG-CC-PVTZ
  Basis Set: (AUG-CC-PVTZ AUX)
    Blend: AUG-CC-PVTZ-JKFIT
	 Reference Energy          =    -402.1056466230242563 [Eh]
	 Singles Energy            =      -0.0000000000000000 [Eh]
	 Same-Spin Energy          =      -0.4215655930113759 [Eh]
	 Opposite-Spin Energy      =      -1.4051381470775859 [Eh]
	 Correlation Energy        =      -1.8267037400889619 [Eh]
	 Total Energy              =    -403.9323503631132439 [Eh]

	 ================> DF-SCS-MP2 Energies <==================
	-----------------------------------------------------------
	 SCS Same-Spin Scale       =       0.3333333333333333 [-]
	 SCS Opposite-Spin Scale   =       1.2000000000000000 [-]
	 SCS Same-Spin Energy      =      -0.1405218643371253 [Eh]
	 SCS Opposite-Spin Energy  =      -1.6861657764931031 [Eh]
	 SCS Correlation Energy    =      -1.8266876408302284 [Eh]
	 SCS Total Energy          =    -403.9323342638545000 [Eh]
	-----------------------------------------------------------

  Dipole Moment: [D]
     X:    -2.6563      Y:    -3.0865      Z:     0.8240     Total:     4.1547

*** Psi4 exiting successfully. Buy a developer a beer!
