                               Psi4 1.3.2 release

  ==> Input File <==

--------------------------------------------------------------------------
#psi4
#
memory 32 gb

molecule  {
0 1
  O        1.7739800     1.6003060    -0.2911220
  N        0.9906540    -0.4920130     0.2058460
  C       -2.2286800    -0.2510300    -0.1765170
  C       -1.2730330    -1.4351160    -0.3152870
  C       -1.5989250     1.1242550    -0.3956020
  C       -0.0841310    -1.3759550     0.6456410
  C       -0.4584780     1.4603760     0.5782350
  C        0.8707430     0.8730760     0.1404640
  C        2.1918860    -1.1187650    -0.3259700
  H       -2.6699130    -0.2765890     0.8297550
  H       -3.0608600    -0.3791320    -0.8796750
  H       -1.8047969    -2.3920095    -0.2326438
  H       -0.8887130    -1.5005570    -1.3409750
  H       -2.3834680     1.8827830    -0.2893500
  H       -1.2246060     1.2090190    -1.4238390
  H       -0.4244360    -1.0900460     1.6492300
  H        0.3620160    -2.3701320     0.7449650
  H       -0.7218730     1.1400510     1.5944380
  H       -0.2910430     2.5394790     0.6064930
  H        1.9486170    -1.7578730    -1.1825500
  H        2.6762910    -1.7288140     0.4434650
  H        2.8674440    -0.3269360    -0.6441440
units angstrom
no_reorient  #important for SAPT in psi4, default
symmetry c1  #important for SAPT in psi4, default
}

set PROPERTIES_ORIGIN ["COM"]
properties('MP2/aug-cc-pvtz', properties = ['dipole'])
--------------------------------------------------------------------------

    Molecular point group: c1
  Charge       = 0
  Multiplicity = 1
  Basis Set: AUG-CC-PVTZ
    Blend: AUG-CC-PVTZ
  Basis Set: (AUG-CC-PVTZ AUX)
    Blend: AUG-CC-PVTZ-JKFIT

    Orbital Energies [Eh]
    ---------------------

    Doubly Occupied:

       1A    -20.505781     2A    -15.580741     3A    -11.340019
       4A    -11.272720     5A    -11.250610     6A    -11.235070
       7A    -11.233643     8A    -11.233010     9A    -11.231989
      10A     -1.361908    11A     -1.241244    12A     -1.097348
      13A     -1.037799    14A     -0.975661    15A     -0.913912
      16A     -0.878747    17A     -0.794169    18A     -0.725624
      19A     -0.689997    20A     -0.669024    21A     -0.634050
      22A     -0.608695    23A     -0.600267    24A     -0.592938
      25A     -0.583276    26A     -0.558130    27A     -0.544164
      28A     -0.529217    29A     -0.509328    30A     -0.507045
      31A     -0.477037    32A     -0.468854    33A     -0.466037
      34A     -0.407521    35A     -0.365478

  @DF-RHF Final Energy:  -402.11072248972630

   => Energetics <=

    Nuclear Repulsion Energy =            486.2361936631220942
    One-Electron Energy =               -1510.4517310110600192
    Two-Electron Energy =                 622.1048148582116255
    Total Energy =                       -402.1107224897262995
  Basis Set: (AUG-CC-PVTZ AUX)
    Blend: AUG-CC-PVTZ-RI
    Molecular point group: c1

    Geometry (in Angstrom), charge = 0, multiplicity = 1:

       Center              X                  Y                   Z               Mass
    ------------   -----------------  -----------------  -----------------  -----------------
         O            1.729761467878     1.561447717825    -0.290427786263    15.994914619570
         N            0.946435467878    -0.530871282175     0.206540213737    14.003074004430
         C           -2.272898532122    -0.289888282175    -0.175822786263    12.000000000000
         C           -1.317251532122    -1.473974282175    -0.314592786263    12.000000000000
         C           -1.643143532122     1.085396717825    -0.394907786263    12.000000000000
         C           -0.128349532122    -1.414813282175     0.646335213737    12.000000000000
         C           -0.502696532122     1.421517717825     0.578929213737    12.000000000000
         C            0.826524467878     0.834217717825     0.141158213737    12.000000000000
         C            2.147667467878    -1.157623282175    -0.325275786263    12.000000000000
         H           -2.714131532122    -0.315447282175     0.830449213737     1.007825032230
         H           -3.105078532122    -0.417990282175    -0.878980786263     1.007825032230
         H           -1.849015432122    -2.430867782175    -0.231949586263     1.007825032230
         H           -0.932931532122    -1.539415282175    -1.340280786263     1.007825032230
         H           -2.427686532122     1.843924717825    -0.288655786263     1.007825032230
         H           -1.268824532122     1.170160717825    -1.423144786263     1.007825032230
         H           -0.468654532122    -1.128904282175     1.649924213737     1.007825032230
         H            0.317797467878    -2.408990282175     0.745659213737     1.007825032230
         H           -0.766091532122     1.101192717825     1.595132213737     1.007825032230
         H           -0.335261532122     2.500620717825     0.607187213737     1.007825032230
         H            1.904398467878    -1.796731282175    -1.181855786263     1.007825032230
         H            2.632072467878    -1.767672282175     0.444159213737     1.007825032230
         H            2.823225467878    -0.365794282175    -0.643449786263     1.007825032230

  Basis Set: AUG-CC-PVTZ
    Blend: AUG-CC-PVTZ
  Basis Set: (AUG-CC-PVTZ AUX)
    Blend: AUG-CC-PVTZ-JKFIT
	 Reference Energy          =    -402.1107224897262995 [Eh]
	 Singles Energy            =      -0.0000000000000000 [Eh]
	 Same-Spin Energy          =      -0.4218426093175461 [Eh]
	 Opposite-Spin Energy      =      -1.4052517452771331 [Eh]
	 Correlation Energy        =      -1.8270943545946792 [Eh]
	 Total Energy              =    -403.9378168443209915 [Eh]

	 ================> DF-SCS-MP2 Energies <==================
	-----------------------------------------------------------
	 SCS Same-Spin Scale       =       0.3333333333333333 [-]
	 SCS Opposite-Spin Scale   =       1.2000000000000000 [-]
	 SCS Same-Spin Energy      =      -0.1406142031058487 [Eh]
	 SCS Opposite-Spin Energy  =      -1.6863020943325597 [Eh]
	 SCS Correlation Energy    =      -1.8269162974384083 [Eh]
	 SCS Total Energy          =    -403.9376387871647012 [Eh]
	-----------------------------------------------------------

  Dipole Moment: [D]
     X:    -2.5731      Y:    -3.1127      Z:     0.7592     Total:     4.1093

*** Psi4 exiting successfully. Buy a developer a beer!
