                               Psi4 1.3.2 release

  ==> Input File <==

--------------------------------------------------------------------------
#psi4
#
memory 32 gb

molecule  {
0 1
  O        1.7739800     1.6003060    -0.2911220
  N        0.9906540    -0.4920130     0.2058460
  C       -2.2286800    -0.2510300    -0.1765170
  C       -1.2730330    -1.4351160    -0.3152870
  C       -1.6159361     1.1379682    -0.3800442
  C       -0.0841310    -1.3759550     0.6456410
  C       -0.4584780     1.4603760     0.5782350
  C        0.8707430     0.8730760     0.1404640
  C        2.1918860    -1.1187650    -0.3259700
  H       -2.6699130    -0.2765890     0.8297550
  H       -3.0608600    -0.3791320    -0.8796750
  H       -1.8321650    -2.3606500    -0.1255340
  H       -0.8887130    -1.5005570    -1.3409750
  H       -2.3834680     1.8827830    -0.2893500
  H       -1.2246060     1.2090190    -1.4238390
  H       -0.4244360    -1.0900460     1.6492300
  H        0.3620160    -2.3701320     0.7449650
  H       -0.7218730     1.1400510     1.5944380
  H       -0.2910430     2.5394790     0.6064930
  H        1.9486170    -1.7578730    -1.1825500
  H        2.6762910    -1.7288140     0.4434650
  H        2.8674440    -0.3269360    -0.6441440
units angstrom
no_reorient  #important for SAPT in psi4, default
symmetry c1  #important for SAPT in psi4, default
}

set PROPERTIES_ORIGIN ["COM"]
properties('MP2/aug-cc-pvtz', properties = ['dipole'])
--------------------------------------------------------------------------

    Molecular point group: c1
  Charge       = 0
  Multiplicity = 1
  Basis Set: AUG-CC-PVTZ
    Blend: AUG-CC-PVTZ
  Basis Set: (AUG-CC-PVTZ AUX)
    Blend: AUG-CC-PVTZ-JKFIT

    Orbital Energies [Eh]
    ---------------------

    Doubly Occupied:

       1A    -20.505995     2A    -15.580744     3A    -11.340437
       4A    -11.272292     5A    -11.250663     6A    -11.234586
       7A    -11.233849     8A    -11.233435     9A    -11.231522
      10A     -1.362034    11A     -1.241286    12A     -1.097021
      13A     -1.038219    14A     -0.975632    15A     -0.914080
      16A     -0.878904    17A     -0.792025    18A     -0.725331
      19A     -0.690578    20A     -0.669153    21A     -0.632920
      22A     -0.609002    23A     -0.601089    24A     -0.595994
      25A     -0.583850    26A     -0.558227    27A     -0.545235
      28A     -0.526620    29A     -0.509547    30A     -0.508105
      31A     -0.475950    32A     -0.469040    33A     -0.466005
      34A     -0.408150    35A     -0.365178

  @DF-RHF Final Energy:  -402.11128838668054

   => Energetics <=

    Nuclear Repulsion Energy =            486.0656724993531270
    One-Electron Energy =               -1510.1085259182477785
    Two-Electron Energy =                 621.9315650322139390
    Total Energy =                       -402.1112883866805987
  Basis Set: (AUG-CC-PVTZ AUX)
    Blend: AUG-CC-PVTZ-RI
    Molecular point group: c1

    Geometry (in Angstrom), charge = 0, multiplicity = 1:

       Center              X                  Y                   Z               Mass
    ------------   -----------------  -----------------  -----------------  -----------------
         O            1.731584567623     1.559904336783    -0.292745978243    15.994914619570
         N            0.948258567623    -0.532414663217     0.204222021757    14.003074004430
         C           -2.271075432377    -0.291431663217    -0.178140978243    12.000000000000
         C           -1.315428432377    -1.475517663217    -0.316910978243    12.000000000000
         C           -1.658331532377     1.097566536783    -0.381668178243    12.000000000000
         C           -0.126526432377    -1.416356663217     0.644017021757    12.000000000000
         C           -0.500873432377     1.419974336783     0.576611021757    12.000000000000
         C            0.828347567623     0.832674336783     0.138840021757    12.000000000000
         C            2.149490567623    -1.159166663217    -0.327593978243    12.000000000000
         H           -2.712308432377    -0.316990663217     0.828131021757     1.007825032230
         H           -3.103255432377    -0.419533663217    -0.881298978243     1.007825032230
         H           -1.874560432377    -2.401051663217    -0.127157978243     1.007825032230
         H           -0.931108432377    -1.540958663217    -1.342598978243     1.007825032230
         H           -2.425863432377     1.842381336783    -0.290973978243     1.007825032230
         H           -1.267001432377     1.168617336783    -1.425462978243     1.007825032230
         H           -0.466831432377    -1.130447663217     1.647606021757     1.007825032230
         H            0.319620567623    -2.410533663217     0.743341021757     1.007825032230
         H           -0.764268432377     1.099649336783     1.592814021757     1.007825032230
         H           -0.333438432377     2.499077336783     0.604869021757     1.007825032230
         H            1.906221567623    -1.798274663217    -1.184173978243     1.007825032230
         H            2.633895567623    -1.769215663217     0.441841021757     1.007825032230
         H            2.825048567623    -0.367337663217    -0.645767978243     1.007825032230

  Basis Set: AUG-CC-PVTZ
    Blend: AUG-CC-PVTZ
  Basis Set: (AUG-CC-PVTZ AUX)
    Blend: AUG-CC-PVTZ-JKFIT
	 Reference Energy          =    -402.1112883866805419 [Eh]
	 Singles Energy            =      -0.0000000000000000 [Eh]
	 Same-Spin Energy          =      -0.4217586830348520 [Eh]
	 Opposite-Spin Energy      =      -1.4052257256374707 [Eh]
	 Correlation Energy        =      -1.8269844086723226 [Eh]
	 Total Energy              =    -403.9382727953528729 [Eh]

	 ================> DF-SCS-MP2 Energies <==================
	-----------------------------------------------------------
	 SCS Same-Spin Scale       =       0.3333333333333333 [-]
	 SCS Opposite-Spin Scale   =       1.2000000000000000 [-]
	 SCS Same-Spin Energy      =      -0.1405862276782840 [Eh]
	 SCS Opposite-Spin Energy  =      -1.6862708707649647 [Eh]
	 SCS Correlation Energy    =      -1.8268570984432486 [Eh]
	 SCS Total Energy          =    -403.9381454851238118 [Eh]
	-----------------------------------------------------------

  Dipole Moment: [D]
     X:    -2.5800      Y:    -3.1038      Z:     0.7977     Total:     4.1142

*** Psi4 exiting successfully. Buy a developer a beer!
