                               Psi4 1.3.2 release

  ==> Input File <==

--------------------------------------------------------------------------
#psi4
#
memory 32 gb

molecule  {
0 1
  O        1.7739800     1.6003060    -0.2911220
  N        0.9906540    -0.4920130     0.2058460
  C       -2.2286800    -0.2510300    -0.1765170
  C       -1.2730330    -1.4351160    -0.3152870
  C       -1.5638659     1.0971399    -0.4258229
  C       -0.0841310    -1.3759550     0.6456410
  C       -0.4584780     1.4603760     0.5782350
  C        0.8707430     0.8730760     0.1404640
  C        2.1918860    -1.1187650    -0.3259700
  H       -2.6699130    -0.2765890     0.8297550
  H       -3.0608600    -0.3791320    -0.8796750
  H       -1.8321650    -2.3606500    -0.1255340
  H       -0.8887130    -1.5005570    -1.3409750
  H       -2.3834680     1.8827830    -0.2893500
  H       -1.2246060     1.2090190    -1.4238390
  H       -0.4244360    -1.0900460     1.6492300
  H        0.3620160    -2.3701320     0.7449650
  H       -0.7218730     1.1400510     1.5944380
  H       -0.2910430     2.5394790     0.6064930
  H        1.9486170    -1.7578730    -1.1825500
  H        2.6762910    -1.7288140     0.4434650
  H        2.8674440    -0.3269360    -0.6441440
units angstrom
no_reorient  #important for SAPT in psi4, default
symmetry c1  #important for SAPT in psi4, default
}

set PROPERTIES_ORIGIN ["COM"]
properties('MP2/aug-cc-pvtz', properties = ['dipole'])
--------------------------------------------------------------------------

    Molecular point group: c1
  Charge       = 0
  Multiplicity = 1
  Basis Set: AUG-CC-PVTZ
    Blend: AUG-CC-PVTZ
  Basis Set: (AUG-CC-PVTZ AUX)
    Blend: AUG-CC-PVTZ-JKFIT

    Orbital Energies [Eh]
    ---------------------

    Doubly Occupied:

       1A    -20.505210     2A    -15.580330     3A    -11.339056
       4A    -11.272152     5A    -11.250504     6A    -11.235383
       7A    -11.234008     8A    -11.232629     9A    -11.231785
      10A     -1.361564    11A     -1.241113    12A     -1.098706
      13A     -1.038214    14A     -0.975639    15A     -0.913688
      16A     -0.877094    17A     -0.794534    18A     -0.725349
      19A     -0.690548    20A     -0.668553    21A     -0.634227
      22A     -0.607909    23A     -0.603524    24A     -0.591728
      25A     -0.580938    26A     -0.558723    27A     -0.543075
      28A     -0.528292    29A     -0.513261    30A     -0.508760
      31A     -0.486120    32A     -0.469029    33A     -0.456565
      34A     -0.405804    35A     -0.365031

  @DF-RHF Final Energy:  -402.10879915853565

   => Energetics <=

    Nuclear Repulsion Energy =            486.7727829376325417
    One-Electron Energy =               -1511.5250740627679988
    Two-Electron Energy =                 622.6434919665996404
    Total Energy =                       -402.1087991585357031
  Basis Set: (AUG-CC-PVTZ AUX)
    Blend: AUG-CC-PVTZ-RI
    Molecular point group: c1

    Geometry (in Angstrom), charge = 0, multiplicity = 1:

       Center              X                  Y                   Z               Mass
    ------------   -----------------  -----------------  -----------------  -----------------
         O            1.726668408648     1.563759102340    -0.288423825324    15.994914619570
         N            0.943342408648    -0.528559897660     0.208544174676    14.003074004430
         C           -2.275991591352    -0.287576897660    -0.173818825324    12.000000000000
         C           -1.320344591352    -1.471662897660    -0.312588825324    12.000000000000
         C           -1.611177491352     1.060593002340    -0.423124725324    12.000000000000
         C           -0.131442591352    -1.412501897660     0.648339174676    12.000000000000
         C           -0.505789591352     1.423829102340     0.580933174676    12.000000000000
         C            0.823431408648     0.836529102340     0.143162174676    12.000000000000
         C            2.144574408648    -1.155311897660    -0.323271825324    12.000000000000
         H           -2.717224591352    -0.313135897660     0.832453174676     1.007825032230
         H           -3.108171591352    -0.415678897660    -0.876976825324     1.007825032230
         H           -1.879476591352    -2.397196897660    -0.122835825324     1.007825032230
         H           -0.936024591352    -1.537103897660    -1.338276825324     1.007825032230
         H           -2.430779591352     1.846236102340    -0.286651825324     1.007825032230
         H           -1.271917591352     1.172472102340    -1.421140825324     1.007825032230
         H           -0.471747591352    -1.126592897660     1.651928174676     1.007825032230
         H            0.314704408648    -2.406678897660     0.747663174676     1.007825032230
         H           -0.769184591352     1.103504102340     1.597136174676     1.007825032230
         H           -0.338354591352     2.502932102340     0.609191174676     1.007825032230
         H            1.901305408648    -1.794419897660    -1.179851825324     1.007825032230
         H            2.628979408648    -1.765360897660     0.446163174676     1.007825032230
         H            2.820132408648    -0.363482897660    -0.641445825324     1.007825032230

  Basis Set: AUG-CC-PVTZ
    Blend: AUG-CC-PVTZ
  Basis Set: (AUG-CC-PVTZ AUX)
    Blend: AUG-CC-PVTZ-JKFIT
	 Reference Energy          =    -402.1087991585356463 [Eh]
	 Singles Energy            =      -0.0000000000000000 [Eh]
	 Same-Spin Energy          =      -0.4219050488419165 [Eh]
	 Opposite-Spin Energy      =      -1.4054287676813766 [Eh]
	 Correlation Energy        =      -1.8273338165232931 [Eh]
	 Total Energy              =    -403.9361329750589675 [Eh]

	 ================> DF-SCS-MP2 Energies <==================
	-----------------------------------------------------------
	 SCS Same-Spin Scale       =       0.3333333333333333 [-]
	 SCS Opposite-Spin Scale   =       1.2000000000000000 [-]
	 SCS Same-Spin Energy      =      -0.1406350162806388 [Eh]
	 SCS Opposite-Spin Energy  =      -1.6865145212176518 [Eh]
	 SCS Correlation Energy    =      -1.8271495374982907 [Eh]
	 SCS Total Energy          =    -403.9359486960339609 [Eh]
	-----------------------------------------------------------

  Dipole Moment: [D]
     X:    -2.5744      Y:    -3.1101      Z:     0.7903     Total:     4.1139

*** Psi4 exiting successfully. Buy a developer a beer!
