                               Psi4 1.3.2 release

  ==> Input File <==

--------------------------------------------------------------------------
#psi4
#
memory 32 gb

molecule  {
0 1
  O        1.7739800     1.6003060    -0.2911220
  N        0.9906540    -0.4920130     0.2058460
  C       -2.2286800    -0.2510300    -0.1765170
  C       -1.1583917    -1.3281118    -0.3466811
  C       -1.5989250     1.1242550    -0.3956020
  C       -0.0841310    -1.3759550     0.6456410
  C       -0.4584780     1.4603760     0.5782350
  C        0.8707430     0.8730760     0.1404640
  C        2.1918860    -1.1187650    -0.3259700
  H       -2.6699130    -0.2765890     0.8297550
  H       -3.0608600    -0.3791320    -0.8796750
  H       -1.8321650    -2.3606500    -0.1255340
  H       -0.8887130    -1.5005570    -1.3409750
  H       -2.3834680     1.8827830    -0.2893500
  H       -1.2246060     1.2090190    -1.4238390
  H       -0.4244360    -1.0900460     1.6492300
  H        0.3620160    -2.3701320     0.7449650
  H       -0.7218730     1.1400510     1.5944380
  H       -0.2910430     2.5394790     0.6064930
  H        1.9486170    -1.7578730    -1.1825500
  H        2.6762910    -1.7288140     0.4434650
  H        2.8674440    -0.3269360    -0.6441440
units angstrom
no_reorient  #important for SAPT in psi4, default
symmetry c1  #important for SAPT in psi4, default
}

set PROPERTIES_ORIGIN ["COM"]
properties('MP2/aug-cc-pvtz', properties = ['dipole'])
--------------------------------------------------------------------------

    Molecular point group: c1
  Charge       = 0
  Multiplicity = 1
  Basis Set: AUG-CC-PVTZ
    Blend: AUG-CC-PVTZ
  Basis Set: (AUG-CC-PVTZ AUX)
    Blend: AUG-CC-PVTZ-JKFIT

    Orbital Energies [Eh]
    ---------------------

    Doubly Occupied:

       1A    -20.505468     2A    -15.578336     3A    -11.339973
       4A    -11.272371     5A    -11.250919     6A    -11.240027
       7A    -11.234651     8A    -11.234088     9A    -11.232311
      10A     -1.362018    11A     -1.245000    12A     -1.101653
      13A     -1.042567    14A     -0.979126    15A     -0.915692
      16A     -0.873467    17A     -0.796894    18A     -0.729139
      19A     -0.690398    20A     -0.670947    21A     -0.638827
      22A     -0.615387    23A     -0.601145    24A     -0.593748
      25A     -0.579244    26A     -0.559014    27A     -0.545976
      28A     -0.533161    29A     -0.512486    30A     -0.506260
      31A     -0.487272    32A     -0.472012    33A     -0.436453
      34A     -0.407101    35A     -0.364068

  @DF-RHF Final Energy:  -402.08655721047467

   => Energetics <=

    Nuclear Repulsion Energy =            488.5458002209299480
    One-Electron Energy =               -1514.9703140469766822
    Two-Electron Energy =                 624.3379566155720113
    Total Energy =                       -402.0865572104746661
  Basis Set: (AUG-CC-PVTZ AUX)
    Blend: AUG-CC-PVTZ-RI
    Molecular point group: c1

    Geometry (in Angstrom), charge = 0, multiplicity = 1:

       Center              X                  Y                   Z               Mass
    ------------   -----------------  -----------------  -----------------  -----------------
         O            1.719154730059     1.551096354732    -0.288313058749    15.994914619570
         N            0.935828730059    -0.541222645268     0.208654941251    14.003074004430
         C           -2.283505269941    -0.300239645268    -0.173708058749    12.000000000000
         C           -1.213216969941    -1.377321445268    -0.343872158749    12.000000000000
         C           -1.653750269941     1.075045354732    -0.392793058749    12.000000000000
         C           -0.138956269941    -1.425164645268     0.648449941251    12.000000000000
         C           -0.513303269941     1.411166354732     0.581043941251    12.000000000000
         C            0.815917730059     0.823866354732     0.143272941251    12.000000000000
         C            2.137060730059    -1.167974645268    -0.323161058749    12.000000000000
         H           -2.724738269941    -0.325798645268     0.832563941251     1.007825032230
         H           -3.115685269941    -0.428341645268    -0.876866058749     1.007825032230
         H           -1.886990269941    -2.409859645268    -0.122725058749     1.007825032230
         H           -0.943538269941    -1.549766645268    -1.338166058749     1.007825032230
         H           -2.438293269941     1.833573354732    -0.286541058749     1.007825032230
         H           -1.279431269941     1.159809354732    -1.421030058749     1.007825032230
         H           -0.479261269941    -1.139255645268     1.652038941251     1.007825032230
         H            0.307190730059    -2.419341645268     0.747773941251     1.007825032230
         H           -0.776698269941     1.090841354732     1.597246941251     1.007825032230
         H           -0.345868269941     2.490269354732     0.609301941251     1.007825032230
         H            1.893791730059    -1.807082645268    -1.179741058749     1.007825032230
         H            2.621465730059    -1.778023645268     0.446273941251     1.007825032230
         H            2.812618730059    -0.376145645268    -0.641335058749     1.007825032230

  Basis Set: AUG-CC-PVTZ
    Blend: AUG-CC-PVTZ
  Basis Set: (AUG-CC-PVTZ AUX)
    Blend: AUG-CC-PVTZ-JKFIT
	 Reference Energy          =    -402.0865572104746661 [Eh]
	 Singles Energy            =      -0.0000000000000000 [Eh]
	 Same-Spin Energy          =      -0.4230295172676654 [Eh]
	 Opposite-Spin Energy      =      -1.4074801972086497 [Eh]
	 Correlation Energy        =      -1.8305097144763152 [Eh]
	 Total Energy              =    -403.9170669249509729 [Eh]

	 ================> DF-SCS-MP2 Energies <==================
	-----------------------------------------------------------
	 SCS Same-Spin Scale       =       0.3333333333333333 [-]
	 SCS Opposite-Spin Scale   =       1.2000000000000000 [-]
	 SCS Same-Spin Energy      =      -0.1410098390892218 [Eh]
	 SCS Opposite-Spin Energy  =      -1.6889762366503795 [Eh]
	 SCS Correlation Energy    =      -1.8299860757396014 [Eh]
	 SCS Total Energy          =    -403.9165432862142779 [Eh]
	-----------------------------------------------------------

  Dipole Moment: [D]
     X:    -2.5279      Y:    -3.0394      Z:     0.8051     Total:     4.0344

*** Psi4 exiting successfully. Buy a developer a beer!
