                               Psi4 1.4a3.dev225

  ==> Input File <==

--------------------------------------------------------------------------
#psi4
#
memory 32 gb

molecule  {
0 1
  O        1.7739800     1.6003060    -0.2911220
  N        0.9906540    -0.4920130     0.2058460
  C       -2.2286800    -0.2510300    -0.1765170
  C       -1.2730330    -1.4351160    -0.3152870
  C       -1.5989250     1.1242550    -0.3956020
  C       -0.0473089    -1.3456712     0.6305736
  C       -0.4584780     1.4603760     0.5782350
  C        0.8707430     0.8730760     0.1404640
  C        2.1918860    -1.1187650    -0.3259700
  H       -2.6699130    -0.2765890     0.8297550
  H       -3.0608600    -0.3791320    -0.8796750
  H       -1.8321650    -2.3606500    -0.1255340
  H       -0.8887130    -1.5005570    -1.3409750
  H       -2.3834680     1.8827830    -0.2893500
  H       -1.2246060     1.2090190    -1.4238390
  H       -0.4244360    -1.0900460     1.6492300
  H        0.3620160    -2.3701320     0.7449650
  H       -0.7218730     1.1400510     1.5944380
  H       -0.2910430     2.5394790     0.6064930
  H        1.9486170    -1.7578730    -1.1825500
  H        2.6762910    -1.7288140     0.4434650
  H        2.8674440    -0.3269360    -0.6441440
units angstrom
no_reorient  #important for SAPT in psi4, default
symmetry c1  #important for SAPT in psi4, default
}

set PROPERTIES_ORIGIN ["COM"]
properties('MP2/aug-cc-pvtz', properties = ['dipole'])
--------------------------------------------------------------------------

    Molecular point group: c1
  Charge       = 0
  Multiplicity = 1
  Basis Set: AUG-CC-PVTZ
    Blend: AUG-CC-PVTZ
  Basis Set: (AUG-CC-PVTZ AUX)
    Blend: AUG-CC-PVTZ-JKFIT

    Orbital Energies [Eh]
    ---------------------

    Doubly Occupied:

       1A    -20.508130     2A    -15.582086     3A    -11.342136
       4A    -11.271681     5A    -11.252226     6A    -11.234794
       7A    -11.234135     8A    -11.232561     9A    -11.230494
      10A     -1.365082    11A     -1.252625    12A     -1.096562
      13A     -1.035389    14A     -0.977100    15A     -0.914163
      16A     -0.881292    17A     -0.792064    18A     -0.728830
      19A     -0.692648    20A     -0.670495    21A     -0.636460
      22A     -0.607650    23A     -0.601912    24A     -0.595314
      25A     -0.581496    26A     -0.556989    27A     -0.544300
      28A     -0.530396    29A     -0.509431    30A     -0.508032
      31A     -0.478276    32A     -0.467720    33A     -0.462731
      34A     -0.409202    35A     -0.364309

  @DF-RHF Final Energy:  -402.10951472279828

   => Energetics <=

    Nuclear Repulsion Energy =            487.0111947249426407
    One-Electron Energy =               -1511.9440005187793759
    Two-Electron Energy =                 622.8232910710383976
    Total Energy =                       -402.1095147227982807
  Basis Set: (AUG-CC-PVTZ AUX)
    Blend: AUG-CC-PVTZ-RI
    Molecular point group: c1

    Geometry (in Angstrom), charge = 0, multiplicity = 1:

       Center              X                  Y                   Z               Mass
    ------------   -----------------  -----------------  -----------------  -----------------
         O            1.726501956660     1.558339839164    -0.289854528779    15.994914619570
         N            0.943175956660    -0.533979160836     0.207113471221    14.003074004430
         C           -2.276158043340    -0.292996160836    -0.175249528779    12.000000000000
         C           -1.320511043340    -1.477082160836    -0.314019528779    12.000000000000
         C           -1.646403043340     1.082288839164    -0.394334528779    12.000000000000
         C           -0.094786943340    -1.387637360836     0.631841071221    12.000000000000
         C           -0.505956043340     1.418409839164     0.579502471221    12.000000000000
         C            0.823264956660     0.831109839164     0.141731471221    12.000000000000
         C            2.144407956660    -1.160731160836    -0.324702528779    12.000000000000
         H           -2.717391043340    -0.318555160836     0.831022471221     1.007825032230
         H           -3.108338043340    -0.421098160836    -0.878407528779     1.007825032230
         H           -1.879643043340    -2.402616160836    -0.124266528779     1.007825032230
         H           -0.936191043340    -1.542523160836    -1.339707528779     1.007825032230
         H           -2.430946043340     1.840816839164    -0.288082528779     1.007825032230
         H           -1.272084043340     1.167052839164    -1.422571528779     1.007825032230
         H           -0.471914043340    -1.132012160836     1.650497471221     1.007825032230
         H            0.314537956660    -2.412098160836     0.746232471221     1.007825032230
         H           -0.769351043340     1.098084839164     1.595705471221     1.007825032230
         H           -0.338521043340     2.497512839164     0.607760471221     1.007825032230
         H            1.901138956660    -1.799839160836    -1.181282528779     1.007825032230
         H            2.628812956660    -1.770780160836     0.444732471221     1.007825032230
         H            2.819965956660    -0.368902160836    -0.642876528779     1.007825032230

  Basis Set: AUG-CC-PVTZ
    Blend: AUG-CC-PVTZ
  Basis Set: (AUG-CC-PVTZ AUX)
    Blend: AUG-CC-PVTZ-JKFIT
	 Reference Energy          =    -402.1095147227982807 [Eh]
	 Singles Energy            =      -0.0000000000000000 [Eh]
	 Same-Spin Energy          =      -0.4221125130512765 [Eh]
	 Opposite-Spin Energy      =      -1.4053843616181232 [Eh]
	 Correlation Energy        =      -1.8274968746693996 [Eh]
	 Total Energy              =    -403.9370115974676878 [Eh]

	 ================> DF-SCS-MP2 Energies <==================
	-----------------------------------------------------------
	 SCS Same-Spin Scale       =       0.3333333333333333 [-]
	 SCS Opposite-Spin Scale   =       1.2000000000000000 [-]
	 SCS Same-Spin Energy      =      -0.1407041710170922 [Eh]
	 SCS Opposite-Spin Energy  =      -1.6864612339417477 [Eh]
	 SCS Correlation Energy    =      -1.8271654049588399 [Eh]
	 SCS Total Energy          =    -403.9366801277571426 [Eh]
	-----------------------------------------------------------

  Dipole Moment: [D]
     X:    -2.4601      Y:    -3.0024      Z:     0.7549     Total:     3.9543

*** Psi4 exiting successfully. Buy a developer a beer!
