                               Psi4 1.3.2 release

  ==> Input File <==

--------------------------------------------------------------------------
#psi4
#
memory 32 gb

molecule  {
0 1
  O        1.7739800     1.6003060    -0.2911220
  N        0.9906540    -0.4920130     0.2058460
  C       -2.2618007    -0.2413088    -0.2171934
  C       -1.2730330    -1.4351160    -0.3152870
  C       -1.5989250     1.1242550    -0.3956020
  C       -0.0841310    -1.3759550     0.6456410
  C       -0.4584780     1.4603760     0.5782350
  C        0.8707430     0.8730760     0.1404640
  C        2.1918860    -1.1187650    -0.3259700
  H       -2.6699130    -0.2765890     0.8297550
  H       -3.0608600    -0.3791320    -0.8796750
  H       -1.8321650    -2.3606500    -0.1255340
  H       -0.8887130    -1.5005570    -1.3409750
  H       -2.3834680     1.8827830    -0.2893500
  H       -1.2246060     1.2090190    -1.4238390
  H       -0.4244360    -1.0900460     1.6492300
  H        0.3620160    -2.3701320     0.7449650
  H       -0.7218730     1.1400510     1.5944380
  H       -0.2910430     2.5394790     0.6064930
  H        1.9486170    -1.7578730    -1.1825500
  H        2.6762910    -1.7288140     0.4434650
  H        2.8674440    -0.3269360    -0.6441440
units angstrom
no_reorient  #important for SAPT in psi4, default
symmetry c1  #important for SAPT in psi4, default
}

set PROPERTIES_ORIGIN ["COM"]
properties('MP2/aug-cc-pvtz', properties = ['dipole'])
--------------------------------------------------------------------------

    Molecular point group: c1
  Charge       = 0
  Multiplicity = 1
  Basis Set: AUG-CC-PVTZ
    Blend: AUG-CC-PVTZ
  Basis Set: (AUG-CC-PVTZ AUX)
    Blend: AUG-CC-PVTZ-JKFIT

    Orbital Energies [Eh]
    ---------------------

    Doubly Occupied:

       1A    -20.505903     2A    -15.580603     3A    -11.340131
       4A    -11.272984     5A    -11.250596     6A    -11.234928
       7A    -11.234292     8A    -11.234021     9A    -11.231092
      10A     -1.362004    11A     -1.241114    12A     -1.095294
      13A     -1.036655    14A     -0.976874    15A     -0.914825
      16A     -0.877421    17A     -0.793172    18A     -0.725486
      19A     -0.691222    20A     -0.669120    21A     -0.632288
      22A     -0.610869    23A     -0.601580    24A     -0.593426
      25A     -0.582441    26A     -0.557752    27A     -0.546166
      28A     -0.526462    29A     -0.513361    30A     -0.509054
      31A     -0.475428    32A     -0.471807    33A     -0.459595
      34A     -0.407913    35A     -0.365390

  @DF-RHF Final Energy:  -402.10916877956112

   => Energetics <=

    Nuclear Repulsion Energy =            485.6987175965856522
    One-Electron Energy =               -1509.3732370070677007
    Two-Electron Energy =                 621.5653506309208751
    Total Energy =                       -402.1091687795611733
  Basis Set: (AUG-CC-PVTZ AUX)
    Blend: AUG-CC-PVTZ-RI
    Molecular point group: c1

    Geometry (in Angstrom), charge = 0, multiplicity = 1:

       Center              X                  Y                   Z               Mass
    ------------   -----------------  -----------------  -----------------  -----------------
         O            1.733105540361     1.560281237710    -0.287436679122    15.994914619570
         N            0.949779540361    -0.532037762290     0.209531320878    14.003074004430
         C           -2.302675159639    -0.281333562290    -0.213508079122    12.000000000000
         C           -1.313907459639    -1.475140762290    -0.311601679122    12.000000000000
         C           -1.639799459639     1.084230237710    -0.391916679122    12.000000000000
         C           -0.125005459639    -1.415979762290     0.649326320878    12.000000000000
         C           -0.499352459639     1.420351237710     0.581920320878    12.000000000000
         C            0.829868540361     0.833051237710     0.144149320878    12.000000000000
         C            2.151011540361    -1.158789762290    -0.322284679122    12.000000000000
         H           -2.710787459639    -0.316613762290     0.833440320878     1.007825032230
         H           -3.101734459639    -0.419156762290    -0.875989679122     1.007825032230
         H           -1.873039459639    -2.400674762290    -0.121848679122     1.007825032230
         H           -0.929587459639    -1.540581762290    -1.337289679122     1.007825032230
         H           -2.424342459639     1.842758237710    -0.285664679122     1.007825032230
         H           -1.265480459639     1.168994237710    -1.420153679122     1.007825032230
         H           -0.465310459639    -1.130070762290     1.652915320878     1.007825032230
         H            0.321141540361    -2.410156762290     0.748650320878     1.007825032230
         H           -0.762747459639     1.100026237710     1.598123320878     1.007825032230
         H           -0.331917459639     2.499454237710     0.610178320878     1.007825032230
         H            1.907742540361    -1.797897762290    -1.178864679122     1.007825032230
         H            2.635416540361    -1.768838762290     0.447150320878     1.007825032230
         H            2.826569540361    -0.366960762290    -0.640458679122     1.007825032230

  Basis Set: AUG-CC-PVTZ
    Blend: AUG-CC-PVTZ
  Basis Set: (AUG-CC-PVTZ AUX)
    Blend: AUG-CC-PVTZ-JKFIT
	 Reference Energy          =    -402.1091687795611165 [Eh]
	 Singles Energy            =      -0.0000000000000000 [Eh]
	 Same-Spin Energy          =      -0.4216401955207542 [Eh]
	 Opposite-Spin Energy      =      -1.4051726682101406 [Eh]
	 Correlation Energy        =      -1.8268128637308947 [Eh]
	 Total Energy              =    -403.9359816432919956 [Eh]

	 ================> DF-SCS-MP2 Energies <==================
	-----------------------------------------------------------
	 SCS Same-Spin Scale       =       0.3333333333333333 [-]
	 SCS Opposite-Spin Scale   =       1.2000000000000000 [-]
	 SCS Same-Spin Energy      =      -0.1405467318402514 [Eh]
	 SCS Opposite-Spin Energy  =      -1.6862072018521688 [Eh]
	 SCS Correlation Energy    =      -1.8267539336924201 [Eh]
	 SCS Total Energy          =    -403.9359227132535466 [Eh]
	-----------------------------------------------------------

  Dipole Moment: [D]
     X:    -2.5790      Y:    -3.0971      Z:     0.7765     Total:     4.1044

*** Psi4 exiting successfully. Buy a developer a beer!
