                               Psi4 1.3.2 release

  ==> Input File <==

--------------------------------------------------------------------------
#psi4
#
memory 32 gb

molecule  {
0 1
  O        1.7739800     1.6003060    -0.2911220
  N        0.9906540    -0.4920130     0.2058460
  C       -2.2286800    -0.2510300    -0.1765170
  C       -1.2730330    -1.4351160    -0.3152870
  C       -1.5989250     1.1242550    -0.3956020
  C       -0.0841310    -1.3759550     0.6456410
  C       -0.4584780     1.4603760     0.5782350
  C        0.7831613     0.9117729     0.1693085
  C        2.1918860    -1.1187650    -0.3259700
  H       -2.6699130    -0.2765890     0.8297550
  H       -3.0608600    -0.3791320    -0.8796750
  H       -1.8321650    -2.3606500    -0.1255340
  H       -0.8887130    -1.5005570    -1.3409750
  H       -2.3834680     1.8827830    -0.2893500
  H       -1.2246060     1.2090190    -1.4238390
  H       -0.4244360    -1.0900460     1.6492300
  H        0.3620160    -2.3701320     0.7449650
  H       -0.7218730     1.1400510     1.5944380
  H       -0.2910430     2.5394790     0.6064930
  H        1.9486170    -1.7578730    -1.1825500
  H        2.6762910    -1.7288140     0.4434650
  H        2.8674440    -0.3269360    -0.6441440
units angstrom
no_reorient  #important for SAPT in psi4, default
symmetry c1  #important for SAPT in psi4, default
}

set PROPERTIES_ORIGIN ["COM"]
properties('MP2/aug-cc-pvtz', properties = ['dipole'])
--------------------------------------------------------------------------

    Molecular point group: c1
  Charge       = 0
  Multiplicity = 1
  Basis Set: AUG-CC-PVTZ
    Blend: AUG-CC-PVTZ
  Basis Set: (AUG-CC-PVTZ AUX)
    Blend: AUG-CC-PVTZ-JKFIT

    Orbital Energies [Eh]
    ---------------------

    Doubly Occupied:

       1A    -20.503938     2A    -15.578537     3A    -11.348474
       4A    -11.267848     5A    -11.248999     6A    -11.241669
       7A    -11.237248     8A    -11.234442     9A    -11.232699
      10A     -1.333740    11A     -1.224583    12A     -1.105999
      13A     -1.049590    14A     -0.979958    15A     -0.906600
      16A     -0.885962    17A     -0.795363    18A     -0.724277
      19A     -0.696734    20A     -0.668256    21A     -0.628573
      22A     -0.611819    23A     -0.597125    24A     -0.592638
      25A     -0.587225    26A     -0.557119    27A     -0.550356
      28A     -0.523044    29A     -0.504123    30A     -0.500986
      31A     -0.481836    32A     -0.471508    33A     -0.458184
      34A     -0.411604    35A     -0.356503

  @DF-RHF Final Energy:  -402.09160305410217

   => Energetics <=

    Nuclear Repulsion Energy =            486.0596634549041823
    One-Electron Energy =               -1510.1074197610978445
    Two-Electron Energy =                 621.9561532520914398
    Total Energy =                       -402.0916030541021655
  Basis Set: (AUG-CC-PVTZ AUX)
    Blend: AUG-CC-PVTZ-RI
    Molecular point group: c1

    Geometry (in Angstrom), charge = 0, multiplicity = 1:

       Center              X                  Y                   Z               Mass
    ------------   -----------------  -----------------  -----------------  -----------------
         O            1.738247424470     1.557545524238    -0.294000429531    15.994914619570
         N            0.954921424470    -0.534773475762     0.202967570469    14.003074004430
         C           -2.264412575530    -0.293790475762    -0.179395429531    12.000000000000
         C           -1.308765575530    -1.477876475762    -0.318165429531    12.000000000000
         C           -1.634657575530     1.081494524238    -0.398480429531    12.000000000000
         C           -0.119863575530    -1.418715475762     0.642762570469    12.000000000000
         C           -0.494210575530     1.417615524238     0.575356570469    12.000000000000
         C            0.747428724470     0.869012424238     0.166430070469    12.000000000000
         C            2.156153424470    -1.161525475762    -0.328848429531    12.000000000000
         H           -2.705645575530    -0.319349475762     0.826876570469     1.007825032230
         H           -3.096592575530    -0.421892475762    -0.882553429531     1.007825032230
         H           -1.867897575530    -2.403410475762    -0.128412429531     1.007825032230
         H           -0.924445575530    -1.543317475762    -1.343853429531     1.007825032230
         H           -2.419200575530     1.840022524238    -0.292228429531     1.007825032230
         H           -1.260338575530     1.166258524238    -1.426717429531     1.007825032230
         H           -0.460168575530    -1.132806475762     1.646351570469     1.007825032230
         H            0.326283424470    -2.412892475762     0.742086570469     1.007825032230
         H           -0.757605575530     1.097290524238     1.591559570469     1.007825032230
         H           -0.326775575530     2.496718524238     0.603614570469     1.007825032230
         H            1.912884424470    -1.800633475762    -1.185428429531     1.007825032230
         H            2.640558424470    -1.771574475762     0.440586570469     1.007825032230
         H            2.831711424470    -0.369696475762    -0.647022429531     1.007825032230

  Basis Set: AUG-CC-PVTZ
    Blend: AUG-CC-PVTZ
  Basis Set: (AUG-CC-PVTZ AUX)
    Blend: AUG-CC-PVTZ-JKFIT
	 Reference Energy          =    -402.0916030541021655 [Eh]
	 Singles Energy            =      -0.0000000000000000 [Eh]
	 Same-Spin Energy          =      -0.4242188418007107 [Eh]
	 Opposite-Spin Energy      =      -1.4095860651847971 [Eh]
	 Correlation Energy        =      -1.8338049069855078 [Eh]
	 Total Energy              =    -403.9254079610876715 [Eh]

	 ================> DF-SCS-MP2 Energies <==================
	-----------------------------------------------------------
	 SCS Same-Spin Scale       =       0.3333333333333333 [-]
	 SCS Opposite-Spin Scale   =       1.2000000000000000 [-]
	 SCS Same-Spin Energy      =      -0.1414062806002369 [Eh]
	 SCS Opposite-Spin Energy  =      -1.6915032782217565 [Eh]
	 SCS Correlation Energy    =      -1.8329095588219935 [Eh]
	 SCS Total Energy          =    -403.9245126129241612 [Eh]
	-----------------------------------------------------------

  Dipole Moment: [D]
     X:    -2.9408      Y:    -2.8968      Z:     0.8692     Total:     4.2185

*** Psi4 exiting successfully. Buy a developer a beer!
