                               Psi4 1.3.2 release

  ==> Input File <==

--------------------------------------------------------------------------
#psi4
#
memory 32 gb

molecule  {
0 1
  O        1.7739800     1.6003060    -0.2911220
  N        0.9906540    -0.4920130     0.2058460
  C       -2.2286800    -0.2510300    -0.1765170
  C       -1.2730330    -1.4351160    -0.3152870
  C       -1.5989250     1.1242550    -0.3956020
  C       -0.0841310    -1.3759550     0.6456410
  C       -0.4070458     1.3734506     0.5420977
  C        0.8707430     0.8730760     0.1404640
  C        2.1918860    -1.1187650    -0.3259700
  H       -2.6699130    -0.2765890     0.8297550
  H       -3.0608600    -0.3791320    -0.8796750
  H       -1.8321650    -2.3606500    -0.1255340
  H       -0.8887130    -1.5005570    -1.3409750
  H       -2.3834680     1.8827830    -0.2893500
  H       -1.2246060     1.2090190    -1.4238390
  H       -0.4244360    -1.0900460     1.6492300
  H        0.3620160    -2.3701320     0.7449650
  H       -0.7218730     1.1400510     1.5944380
  H       -0.2910430     2.5394790     0.6064930
  H        1.9486170    -1.7578730    -1.1825500
  H        2.6762910    -1.7288140     0.4434650
  H        2.8674440    -0.3269360    -0.6441440
units angstrom
no_reorient  #important for SAPT in psi4, default
symmetry c1  #important for SAPT in psi4, default
}

set PROPERTIES_ORIGIN ["COM"]
properties('MP2/aug-cc-pvtz', properties = ['dipole'])
--------------------------------------------------------------------------

    Molecular point group: c1
  Charge       = 0
  Multiplicity = 1
  Basis Set: AUG-CC-PVTZ
    Blend: AUG-CC-PVTZ
  Basis Set: (AUG-CC-PVTZ AUX)
    Blend: AUG-CC-PVTZ-JKFIT

    Orbital Energies [Eh]
    ---------------------

    Doubly Occupied:

       1A    -20.506332     2A    -15.579532     3A    -11.337274
       4A    -11.272050     5A    -11.249962     6A    -11.237577
       7A    -11.236752     8A    -11.233597     9A    -11.230897
      10A     -1.364632    11A     -1.242664    12A     -1.099851
      13A     -1.043887    14A     -0.980321    15A     -0.911045
      16A     -0.883240    17A     -0.793837    18A     -0.723231
      19A     -0.699094    20A     -0.670018    21A     -0.634503
      22A     -0.610202    23A     -0.601432    24A     -0.594253
      25A     -0.580785    26A     -0.556319    27A     -0.548837
      28A     -0.522005    29A     -0.511275    30A     -0.502406
      31A     -0.478786    32A     -0.466235    33A     -0.455113
      34A     -0.414706    35A     -0.364796

  @DF-RHF Final Energy:  -402.09780224319826

   => Energetics <=

    Nuclear Repulsion Energy =            488.1786438855391452
    One-Electron Energy =               -1514.2780003685497832
    Two-Electron Energy =                 624.0015542398122079
    Total Energy =                       -402.0978022431983163
  Basis Set: (AUG-CC-PVTZ AUX)
    Blend: AUG-CC-PVTZ-RI
    Molecular point group: c1

    Geometry (in Angstrom), charge = 0, multiplicity = 1:

       Center              X                  Y                   Z               Mass
    ------------   -----------------  -----------------  -----------------  -----------------
         O            1.725122557805     1.569406035580    -0.287865233981    15.994914619570
         N            0.941796557805    -0.522912964420     0.209102766019    14.003074004430
         C           -2.277537442195    -0.281929964420    -0.173260233981    12.000000000000
         C           -1.321890442195    -1.466015964420    -0.312030233981    12.000000000000
         C           -1.647782442195     1.093355035580    -0.392345233981    12.000000000000
         C           -0.132988442195    -1.406854964420     0.648897766019    12.000000000000
         C           -0.455903242195     1.342550635580     0.545354466019    12.000000000000
         C            0.821885557805     0.842176035580     0.143720766019    12.000000000000
         C            2.143028557805    -1.149664964420    -0.322713233981    12.000000000000
         H           -2.718770442195    -0.307488964420     0.833011766019     1.007825032230
         H           -3.109717442195    -0.410031964420    -0.876418233981     1.007825032230
         H           -1.881022442195    -2.391549964420    -0.122277233981     1.007825032230
         H           -0.937570442195    -1.531456964420    -1.337718233981     1.007825032230
         H           -2.432325442195     1.851883035580    -0.286093233981     1.007825032230
         H           -1.273463442195     1.178119035580    -1.420582233981     1.007825032230
         H           -0.473293442195    -1.120945964420     1.652486766019     1.007825032230
         H            0.313158557805    -2.401031964420     0.748221766019     1.007825032230
         H           -0.770730442195     1.109151035580     1.597694766019     1.007825032230
         H           -0.339900442195     2.508579035580     0.609749766019     1.007825032230
         H            1.899759557805    -1.788772964420    -1.179293233981     1.007825032230
         H            2.627433557805    -1.759713964420     0.446721766019     1.007825032230
         H            2.818586557805    -0.357835964420    -0.640887233981     1.007825032230

  Basis Set: AUG-CC-PVTZ
    Blend: AUG-CC-PVTZ
  Basis Set: (AUG-CC-PVTZ AUX)
    Blend: AUG-CC-PVTZ-JKFIT
	 Reference Energy          =    -402.0978022431982595 [Eh]
	 Singles Energy            =      -0.0000000000000000 [Eh]
	 Same-Spin Energy          =      -0.4232128201628244 [Eh]
	 Opposite-Spin Energy      =      -1.4073062718613600 [Eh]
	 Correlation Energy        =      -1.8305190920241845 [Eh]
	 Total Energy              =    -403.9283213352224493 [Eh]

	 ================> DF-SCS-MP2 Energies <==================
	-----------------------------------------------------------
	 SCS Same-Spin Scale       =       0.3333333333333333 [-]
	 SCS Opposite-Spin Scale   =       1.2000000000000000 [-]
	 SCS Same-Spin Energy      =      -0.1410709400542748 [Eh]
	 SCS Opposite-Spin Energy  =      -1.6887675262336319 [Eh]
	 SCS Correlation Energy    =      -1.8298384662879066 [Eh]
	 SCS Total Energy          =    -403.9276407094861838 [Eh]
	-----------------------------------------------------------

  Dipole Moment: [D]
     X:    -2.6569      Y:    -3.0913      Z:     0.7955     Total:     4.1531

*** Psi4 exiting successfully. Buy a developer a beer!
