                               Psi4 1.3.2 release

  ==> Input File <==

--------------------------------------------------------------------------
#psi4
#
memory 32 gb

molecule  {
0 1
  O        1.7739800     1.6003060    -0.2911220
  N        0.9906540    -0.4920130     0.2058460
  C       -2.2286800    -0.2510300    -0.1765170
  C       -1.2730330    -1.4351160    -0.3152870
  C       -1.5989250     1.1242550    -0.3956020
  C       -0.0841310    -1.3759550     0.6456410
  C       -0.4584780     1.4603760     0.5782350
  C        0.8707430     0.8730760     0.1404640
  C        2.1918860    -1.1187650    -0.3259700
  H       -2.6699130    -0.2765890     0.8297550
  H       -3.0608600    -0.3791320    -0.8796750
  H       -1.8399393    -2.3479232    -0.0902353
  H       -0.8887130    -1.5005570    -1.3409750
  H       -2.3834680     1.8827830    -0.2893500
  H       -1.2246060     1.2090190    -1.4238390
  H       -0.4244360    -1.0900460     1.6492300
  H        0.3620160    -2.3701320     0.7449650
  H       -0.7218730     1.1400510     1.5944380
  H       -0.2910430     2.5394790     0.6064930
  H        1.9486170    -1.7578730    -1.1825500
  H        2.6762910    -1.7288140     0.4434650
  H        2.8674440    -0.3269360    -0.6441440
units angstrom
no_reorient  #important for SAPT in psi4, default
symmetry c1  #important for SAPT in psi4, default
}

set PROPERTIES_ORIGIN ["COM"]
properties('MP2/aug-cc-pvtz', properties = ['dipole'])
--------------------------------------------------------------------------

    Molecular point group: c1
  Charge       = 0
  Multiplicity = 1
  Basis Set: AUG-CC-PVTZ
    Blend: AUG-CC-PVTZ
  Basis Set: (AUG-CC-PVTZ AUX)
    Blend: AUG-CC-PVTZ-JKFIT

    Orbital Energies [Eh]
    ---------------------

    Doubly Occupied:

       1A    -20.505679     2A    -15.580506     3A    -11.339899
       4A    -11.272075     5A    -11.250582     6A    -11.234516
       7A    -11.233537     8A    -11.233456     9A    -11.231355
      10A     -1.361823    11A     -1.241178    12A     -1.097653
      13A     -1.038294    14A     -0.975607    15A     -0.913917
      16A     -0.878020    17A     -0.792032    18A     -0.725225
      19A     -0.690860    20A     -0.668738    21A     -0.633042
      22A     -0.608484    23A     -0.602490    24A     -0.594552
      25A     -0.583075    26A     -0.558371    27A     -0.544524
      28A     -0.526381    29A     -0.510508    30A     -0.509189
      31A     -0.480160    32A     -0.466995    33A     -0.464713
      34A     -0.407422    35A     -0.364961

  @DF-RHF Final Energy:  -402.11193601839631

   => Energetics <=

    Nuclear Repulsion Energy =            486.3277837682718427
    One-Electron Energy =               -1510.6398027933448702
    Two-Electron Energy =                 622.2000830066765502
    Total Energy =                       -402.1119360183963636
  Basis Set: (AUG-CC-PVTZ AUX)
    Blend: AUG-CC-PVTZ-RI
    Molecular point group: c1

    Geometry (in Angstrom), charge = 0, multiplicity = 1:

       Center              X                  Y                   Z               Mass
    ------------   -----------------  -----------------  -----------------  -----------------
         O            1.730040126179     1.561098139724    -0.291557000850    15.994914619570
         N            0.946714126179    -0.531220860276     0.205410999150    14.003074004430
         C           -2.272619873821    -0.290237860276    -0.176952000850    12.000000000000
         C           -1.316972873821    -1.474323860276    -0.315722000850    12.000000000000
         C           -1.642864873821     1.085047139724    -0.396037000850    12.000000000000
         C           -0.128070873821    -1.415162860276     0.645205999150    12.000000000000
         C           -0.502417873821     1.421168139724     0.577799999150    12.000000000000
         C            0.826803126179     0.833868139724     0.140028999150    12.000000000000
         C            2.147946126179    -1.157972860276    -0.326405000850    12.000000000000
         H           -2.713852873821    -0.315796860276     0.829319999150     1.007825032230
         H           -3.104799873821    -0.418339860276    -0.880110000850     1.007825032230
         H           -1.883879173821    -2.387131060276    -0.090670300850     1.007825032230
         H           -0.932652873821    -1.539764860276    -1.341410000850     1.007825032230
         H           -2.427407873821     1.843575139724    -0.289785000850     1.007825032230
         H           -1.268545873821     1.169811139724    -1.424274000850     1.007825032230
         H           -0.468375873821    -1.129253860276     1.648794999150     1.007825032230
         H            0.318076126179    -2.409339860276     0.744529999150     1.007825032230
         H           -0.765812873821     1.100843139724     1.594002999150     1.007825032230
         H           -0.334982873821     2.500271139724     0.606057999150     1.007825032230
         H            1.904677126179    -1.797080860276    -1.182985000850     1.007825032230
         H            2.632351126179    -1.768021860276     0.443029999150     1.007825032230
         H            2.823504126179    -0.366143860276    -0.644579000850     1.007825032230

  Basis Set: AUG-CC-PVTZ
    Blend: AUG-CC-PVTZ
  Basis Set: (AUG-CC-PVTZ AUX)
    Blend: AUG-CC-PVTZ-JKFIT
	 Reference Energy          =    -402.1119360183963067 [Eh]
	 Singles Energy            =      -0.0000000000000000 [Eh]
	 Same-Spin Energy          =      -0.4217892985767192 [Eh]
	 Opposite-Spin Energy      =      -1.4052386697620154 [Eh]
	 Correlation Energy        =      -1.8270279683387345 [Eh]
	 Total Energy              =    -403.9389639867350184 [Eh]

	 ================> DF-SCS-MP2 Energies <==================
	-----------------------------------------------------------
	 SCS Same-Spin Scale       =       0.3333333333333333 [-]
	 SCS Opposite-Spin Scale   =       1.2000000000000000 [-]
	 SCS Same-Spin Energy      =      -0.1405964328589064 [Eh]
	 SCS Opposite-Spin Energy  =      -1.6862864037144185 [Eh]
	 SCS Correlation Energy    =      -1.8268828365733250 [Eh]
	 SCS Total Energy          =    -403.9388188549696110 [Eh]
	-----------------------------------------------------------

  Dipole Moment: [D]
     X:    -2.5815      Y:    -3.1003      Z:     0.8033     Total:     4.1135

*** Psi4 exiting successfully. Buy a developer a beer!
