                               Psi4 1.3.2 release

  ==> Input File <==

--------------------------------------------------------------------------
#psi4
#
memory 32 gb

molecule  {
0 1
  O        1.7739800     1.6003060    -0.2911220
  N        0.9906540    -0.4920130     0.2058460
  C       -2.2286800    -0.2510300    -0.1765170
  C       -1.2730330    -1.4351160    -0.3152870
  C       -1.5989250     1.1242550    -0.3956020
  C       -0.0841310    -1.3759550     0.6456410
  C       -0.4584780     1.4603760     0.5782350
  C        0.8707430     0.8730760     0.1404640
  C        2.1918860    -1.1187650    -0.3259700
  H       -2.6699130    -0.2765890     0.8297550
  H       -3.0608600    -0.3791320    -0.8796750
  H       -1.8321650    -2.3606500    -0.1255340
  H       -0.8887130    -1.5005570    -1.3409750
  H       -2.3834680     1.8827830    -0.2893500
  H       -1.2246060     1.2090190    -1.4238390
  H       -0.4864445    -1.0379492     1.8320985
  H        0.3620160    -2.3701320     0.7449650
  H       -0.7218730     1.1400510     1.5944380
  H       -0.2910430     2.5394790     0.6064930
  H        1.9486170    -1.7578730    -1.1825500
  H        2.6762910    -1.7288140     0.4434650
  H        2.8674440    -0.3269360    -0.6441440
units angstrom
no_reorient  #important for SAPT in psi4, default
symmetry c1  #important for SAPT in psi4, default
}

set PROPERTIES_ORIGIN ["COM"]
properties('MP2/aug-cc-pvtz', properties = ['dipole'])
--------------------------------------------------------------------------

    Molecular point group: c1
  Charge       = 0
  Multiplicity = 1
  Basis Set: AUG-CC-PVTZ
    Blend: AUG-CC-PVTZ
  Basis Set: (AUG-CC-PVTZ AUX)
    Blend: AUG-CC-PVTZ-JKFIT

    Orbital Energies [Eh]
    ---------------------

    Doubly Occupied:

       1A    -20.507135     2A    -15.583825     3A    -11.341055
       4A    -11.294917     5A    -11.252640     6A    -11.236294
       7A    -11.234695     8A    -11.232919     9A    -11.231698
      10A     -1.363191    11A     -1.242458    12A     -1.097519
      13A     -1.036720    14A     -0.973412    15A     -0.912878
      16A     -0.876660    17A     -0.790781    18A     -0.714874
      19A     -0.689360    20A     -0.670453    21A     -0.632854
      22A     -0.608092    23A     -0.601582    24A     -0.593947
      25A     -0.579774    26A     -0.554485    27A     -0.545515
      28A     -0.528061    29A     -0.510214    30A     -0.496502
      31A     -0.478335    32A     -0.468001    33A     -0.463486
      34A     -0.408339    35A     -0.364860

  @DF-RHF Final Energy:  -402.09195952872244

   => Energetics <=

    Nuclear Repulsion Energy =            485.4051821589048359
    One-Electron Energy =               -1508.7592194901335461
    Two-Electron Energy =                 621.2620778025062691
    Total Energy =                       -402.0919595287224411
  Basis Set: (AUG-CC-PVTZ AUX)
    Blend: AUG-CC-PVTZ-RI
    Molecular point group: c1

    Geometry (in Angstrom), charge = 0, multiplicity = 1:

       Center              X                  Y                   Z               Mass
    ------------   -----------------  -----------------  -----------------  -----------------
         O            1.730470171084     1.560785959072    -0.292727141472    15.994914619570
         N            0.947144171084    -0.531533040928     0.204240858528    14.003074004430
         C           -2.272189828916    -0.290550040928    -0.178122141472    12.000000000000
         C           -1.316542828916    -1.474636040928    -0.316892141472    12.000000000000
         C           -1.642434828916     1.084734959072    -0.397207141472    12.000000000000
         C           -0.127640828916    -1.415475040928     0.644035858528    12.000000000000
         C           -0.501987828916     1.420855959072     0.576629858528    12.000000000000
         C            0.827233171084     0.833555959072     0.138858858528    12.000000000000
         C            2.148376171084    -1.158285040928    -0.327575141472    12.000000000000
         H           -2.713422828916    -0.316109040928     0.828149858528     1.007825032230
         H           -3.104369828916    -0.418652040928    -0.881280141472     1.007825032230
         H           -1.875674828916    -2.400170040928    -0.127139141472     1.007825032230
         H           -0.932222828916    -1.540077040928    -1.342580141472     1.007825032230
         H           -2.426977828916     1.843262959072    -0.290955141472     1.007825032230
         H           -1.268115828916     1.169498959072    -1.425444141472     1.007825032230
         H           -0.529954328916    -1.077469240928     1.830493358528     1.007825032230
         H            0.318506171084    -2.409652040928     0.743359858528     1.007825032230
         H           -0.765382828916     1.100530959072     1.592832858528     1.007825032230
         H           -0.334552828916     2.499958959072     0.604887858528     1.007825032230
         H            1.905107171084    -1.797393040928    -1.184155141472     1.007825032230
         H            2.632781171084    -1.768334040928     0.441859858528     1.007825032230
         H            2.823934171084    -0.366456040928    -0.645749141472     1.007825032230

  Basis Set: AUG-CC-PVTZ
    Blend: AUG-CC-PVTZ
  Basis Set: (AUG-CC-PVTZ AUX)
    Blend: AUG-CC-PVTZ-JKFIT
	 Reference Energy          =    -402.0919595287224411 [Eh]
	 Singles Energy            =      -0.0000000000000000 [Eh]
	 Same-Spin Energy          =      -0.4222171601948538 [Eh]
	 Opposite-Spin Energy      =      -1.4071369673513201 [Eh]
	 Correlation Energy        =      -1.8293541275461740 [Eh]
	 Total Energy              =    -403.9213136562686373 [Eh]

	 ================> DF-SCS-MP2 Energies <==================
	-----------------------------------------------------------
	 SCS Same-Spin Scale       =       0.3333333333333333 [-]
	 SCS Opposite-Spin Scale   =       1.2000000000000000 [-]
	 SCS Same-Spin Energy      =      -0.1407390533982846 [Eh]
	 SCS Opposite-Spin Energy  =      -1.6885643608215841 [Eh]
	 SCS Correlation Energy    =      -1.8293034142198688 [Eh]
	 SCS Total Energy          =    -403.9212629429422918 [Eh]
	-----------------------------------------------------------

  Dipole Moment: [D]
     X:    -2.5019      Y:    -3.0752      Z:     0.6254     Total:     4.0135

*** Psi4 exiting successfully. Buy a developer a beer!
