                               Psi4 1.3.2 release

  ==> Input File <==

--------------------------------------------------------------------------
#psi4
#
memory 32 gb

molecule  {
0 1
  O        1.7739800     1.6003060    -0.2911220
  N        0.9906540    -0.4920130     0.2058460
  C       -2.2286800    -0.2510300    -0.1765170
  C       -1.2730330    -1.4351160    -0.3152870
  C       -1.5989250     1.1242550    -0.3956020
  C       -0.0688572    -1.3960004     0.6419407
  C       -0.4584780     1.4603760     0.5782350
  C        0.8707430     0.8730760     0.1404640
  C        2.1918860    -1.1187650    -0.3259700
  H       -2.6699130    -0.2765890     0.8297550
  H       -3.0608600    -0.3791320    -0.8796750
  H       -1.8321650    -2.3606500    -0.1255340
  H       -0.8887130    -1.5005570    -1.3409750
  H       -2.3834680     1.8827830    -0.2893500
  H       -1.2246060     1.2090190    -1.4238390
  H       -0.4244360    -1.0900460     1.6492300
  H        0.3620160    -2.3701320     0.7449650
  H       -0.7218730     1.1400510     1.5944380
  H       -0.2910430     2.5394790     0.6064930
  H        1.9486170    -1.7578730    -1.1825500
  H        2.6762910    -1.7288140     0.4434650
  H        2.8674440    -0.3269360    -0.6441440
units angstrom
no_reorient  #important for SAPT in psi4, default
symmetry c1  #important for SAPT in psi4, default
}

set PROPERTIES_ORIGIN ["COM"]
properties('MP2/aug-cc-pvtz', properties = ['dipole'])
--------------------------------------------------------------------------

    Molecular point group: c1
  Charge       = 0
  Multiplicity = 1
  Basis Set: AUG-CC-PVTZ
    Blend: AUG-CC-PVTZ
  Basis Set: (AUG-CC-PVTZ AUX)
    Blend: AUG-CC-PVTZ-JKFIT

    Orbital Energies [Eh]
    ---------------------

    Doubly Occupied:

       1A    -20.505942     2A    -15.580568     3A    -11.340502
       4A    -11.272072     5A    -11.250264     6A    -11.234621
       7A    -11.233736     8A    -11.233472     9A    -11.231860
      10A     -1.361996    11A     -1.241200    12A     -1.096898
      13A     -1.037722    14A     -0.975105    15A     -0.915181
      16A     -0.878429    17A     -0.792220    18A     -0.724564
      19A     -0.690310    20A     -0.670217    21A     -0.632910
      22A     -0.608518    23A     -0.601837    24A     -0.595534
      25A     -0.585179    26A     -0.557022    27A     -0.544421
      28A     -0.526267    29A     -0.509873    30A     -0.507938
      31A     -0.479126    32A     -0.467437    33A     -0.466719
      34A     -0.407835    35A     -0.364273

  @DF-RHF Final Energy:  -402.11142986036538

   => Energetics <=

    Nuclear Repulsion Energy =            486.0745119368739893
    One-Electron Energy =               -1510.1283453595085575
    Two-Electron Energy =                 621.9424035622691918
    Total Energy =                       -402.1114298603654333
  Basis Set: (AUG-CC-PVTZ AUX)
    Blend: AUG-CC-PVTZ-RI
    Molecular point group: c1

    Geometry (in Angstrom), charge = 0, multiplicity = 1:

       Center              X                  Y                   Z               Mass
    ------------   -----------------  -----------------  -----------------  -----------------
         O            1.728536419145     1.563091623262    -0.290927742838    15.994914619570
         N            0.945210419145    -0.529227376738     0.206040257162    14.003074004430
         C           -2.274123580855    -0.288244376738    -0.176322742838    12.000000000000
         C           -1.318476580855    -1.472330376738    -0.315092742838    12.000000000000
         C           -1.644368580855     1.087040623262    -0.395407742838    12.000000000000
         C           -0.114300780855    -1.433214776738     0.642134957162    12.000000000000
         C           -0.503921580855     1.423161623262     0.578429257162    12.000000000000
         C            0.825299419145     0.835861623262     0.140658257162    12.000000000000
         C            2.146442419145    -1.155979376738    -0.325775742838    12.000000000000
         H           -2.715356580855    -0.313803376738     0.829949257162     1.007825032230
         H           -3.106303580855    -0.416346376738    -0.879480742838     1.007825032230
         H           -1.877608580855    -2.397864376738    -0.125339742838     1.007825032230
         H           -0.934156580855    -1.537771376738    -1.340780742838     1.007825032230
         H           -2.428911580855     1.845568623262    -0.289155742838     1.007825032230
         H           -1.270049580855     1.171804623262    -1.423644742838     1.007825032230
         H           -0.469879580855    -1.127260376738     1.649424257162     1.007825032230
         H            0.316572419145    -2.407346376738     0.745159257162     1.007825032230
         H           -0.767316580855     1.102836623262     1.594632257162     1.007825032230
         H           -0.336486580855     2.502264623262     0.606687257162     1.007825032230
         H            1.903173419145    -1.795087376738    -1.182355742838     1.007825032230
         H            2.630847419145    -1.766028376738     0.443659257162     1.007825032230
         H            2.822000419145    -0.364150376738    -0.643949742838     1.007825032230

  Basis Set: AUG-CC-PVTZ
    Blend: AUG-CC-PVTZ
  Basis Set: (AUG-CC-PVTZ AUX)
    Blend: AUG-CC-PVTZ-JKFIT
	 Reference Energy          =    -402.1114298603653765 [Eh]
	 Singles Energy            =      -0.0000000000000000 [Eh]
	 Same-Spin Energy          =      -0.4217096529745564 [Eh]
	 Opposite-Spin Energy      =      -1.4051462389585672 [Eh]
	 Correlation Energy        =      -1.8268558919331235 [Eh]
	 Total Energy              =    -403.9382857522984978 [Eh]

	 ================> DF-SCS-MP2 Energies <==================
	-----------------------------------------------------------
	 SCS Same-Spin Scale       =       0.3333333333333333 [-]
	 SCS Opposite-Spin Scale   =       1.2000000000000000 [-]
	 SCS Same-Spin Energy      =      -0.1405698843248521 [Eh]
	 SCS Opposite-Spin Energy  =      -1.6861754867502805 [Eh]
	 SCS Correlation Energy    =      -1.8267453710751327 [Eh]
	 SCS Total Energy          =    -403.9381752314404821 [Eh]
	-----------------------------------------------------------

  Dipole Moment: [D]
     X:    -2.5738      Y:    -3.1130      Z:     0.7919     Total:     4.1161

*** Psi4 exiting successfully. Buy a developer a beer!
