                               Psi4 1.3.2 release

  ==> Input File <==

--------------------------------------------------------------------------
#psi4
#
memory 32 gb

molecule  {
0 1
  O        1.7739800     1.6003060    -0.2911220
  N        0.9906540    -0.4920130     0.2058460
  C       -2.2286800    -0.2510300    -0.1765170
  C       -1.2730330    -1.4351160    -0.3152870
  C       -1.5989250     1.1242550    -0.3956020
  C       -0.0841310    -1.3759550     0.6456410
  C       -0.4584780     1.4603760     0.5782350
  C        0.8707430     0.8730760     0.1404640
  C        2.1918860    -1.1187650    -0.3259700
  H       -2.6699130    -0.2765890     0.8297550
  H       -3.0608600    -0.3791320    -0.8796750
  H       -1.8321650    -2.3606500    -0.1255340
  H       -0.8887130    -1.5005570    -1.3409750
  H       -2.3834680     1.8827830    -0.2893500
  H       -1.2246060     1.2090190    -1.4238390
  H       -0.4244360    -1.0900460     1.6492300
  H        0.3620160    -2.3701320     0.7449650
  H       -0.7698692     1.0816810     1.7796117
  H       -0.2910430     2.5394790     0.6064930
  H        1.9486170    -1.7578730    -1.1825500
  H        2.6762910    -1.7288140     0.4434650
  H        2.8674440    -0.3269360    -0.6441440
units angstrom
no_reorient  #important for SAPT in psi4, default
symmetry c1  #important for SAPT in psi4, default
}

set PROPERTIES_ORIGIN ["COM"]
properties('MP2/aug-cc-pvtz', properties = ['dipole'])
--------------------------------------------------------------------------

    Molecular point group: c1
  Charge       = 0
  Multiplicity = 1
  Basis Set: AUG-CC-PVTZ
    Blend: AUG-CC-PVTZ
  Basis Set: (AUG-CC-PVTZ AUX)
    Blend: AUG-CC-PVTZ-JKFIT

    Orbital Energies [Eh]
    ---------------------

    Doubly Occupied:

       1A    -20.507831     2A    -15.581260     3A    -11.342521
       4A    -11.271376     5A    -11.256181     6A    -11.251004
       7A    -11.237163     8A    -11.233412     9A    -11.231806
      10A     -1.363603    11A     -1.241688    12A     -1.096577
      13A     -1.035057    14A     -0.974808    15A     -0.912393
      16A     -0.876355    17A     -0.790523    18A     -0.724214
      19A     -0.683640    20A     -0.668178    21A     -0.633508
      22A     -0.607389    23A     -0.597924    24A     -0.590910
      25A     -0.584373    26A     -0.553385    27A     -0.545796
      28A     -0.528011    29A     -0.510364    30A     -0.496673
      31A     -0.478918    32A     -0.469146    33A     -0.461217
      34A     -0.407695    35A     -0.365641

  @DF-RHF Final Energy:  -402.09173670090888

   => Energetics <=

    Nuclear Repulsion Energy =            485.4247977308810391
    One-Electron Energy =               -1508.8119896911719025
    Two-Electron Energy =                 621.2954552593820381
    Total Energy =                       -402.0917367009088821
  Basis Set: (AUG-CC-PVTZ AUX)
    Blend: AUG-CC-PVTZ-RI
    Molecular point group: c1

    Geometry (in Angstrom), charge = 0, multiplicity = 1:

       Center              X                  Y                   Z               Mass
    ------------   -----------------  -----------------  -----------------  -----------------
         O            1.730359061890     1.561661895003    -0.292745420335    15.994914619570
         N            0.947033061890    -0.530657104997     0.204222579665    14.003074004430
         C           -2.272300938110    -0.289674104997    -0.178140420335    12.000000000000
         C           -1.316653938110    -1.473760104997    -0.316910420335    12.000000000000
         C           -1.642545938110     1.085610895003    -0.397225420335    12.000000000000
         C           -0.127751938110    -1.414599104997     0.644017579665    12.000000000000
         C           -0.502098938110     1.421731895003     0.576611579665    12.000000000000
         C            0.827122061890     0.834431895003     0.138840579665    12.000000000000
         C            2.148265061890    -1.157409104997    -0.327593420335    12.000000000000
         H           -2.713533938110    -0.315233104997     0.828131579665     1.007825032230
         H           -3.104480938110    -0.417776104997    -0.881298420335     1.007825032230
         H           -1.875785938110    -2.399294104997    -0.127157420335     1.007825032230
         H           -0.932333938110    -1.539201104997    -1.342598420335     1.007825032230
         H           -2.427088938110     1.844138895003    -0.290973420335     1.007825032230
         H           -1.268226938110     1.170374895003    -1.425462420335     1.007825032230
         H           -0.468056938110    -1.128690104997     1.647606579665     1.007825032230
         H            0.318395061890    -2.408776104997     0.743341579665     1.007825032230
         H           -0.813490138110     1.043036895003     1.777988279665     1.007825032230
         H           -0.334663938110     2.500834895003     0.604869579665     1.007825032230
         H            1.904996061890    -1.796517104997    -1.184173420335     1.007825032230
         H            2.632670061890    -1.767458104997     0.441841579665     1.007825032230
         H            2.823823061890    -0.365580104997    -0.645767420335     1.007825032230

  Basis Set: AUG-CC-PVTZ
    Blend: AUG-CC-PVTZ
  Basis Set: (AUG-CC-PVTZ AUX)
    Blend: AUG-CC-PVTZ-JKFIT
	 Reference Energy          =    -402.0917367009088821 [Eh]
	 Singles Energy            =      -0.0000000000000000 [Eh]
	 Same-Spin Energy          =      -0.4221627861487034 [Eh]
	 Opposite-Spin Energy      =      -1.4071686264157823 [Eh]
	 Correlation Energy        =      -1.8293314125644857 [Eh]
	 Total Energy              =    -403.9210681134733818 [Eh]

	 ================> DF-SCS-MP2 Energies <==================
	-----------------------------------------------------------
	 SCS Same-Spin Scale       =       0.3333333333333333 [-]
	 SCS Opposite-Spin Scale   =       1.2000000000000000 [-]
	 SCS Same-Spin Energy      =      -0.1407209287162345 [Eh]
	 SCS Opposite-Spin Energy  =      -1.6886023516989388 [Eh]
	 SCS Correlation Energy    =      -1.8293232804151733 [Eh]
	 SCS Total Energy          =    -403.9210599813240492 [Eh]
	-----------------------------------------------------------

  Dipole Moment: [D]
     X:    -2.5431      Y:    -3.0985      Z:     0.6566     Total:     4.0619

*** Psi4 exiting successfully. Buy a developer a beer!
