                               Psi4 1.4a3.dev225

  ==> Input File <==

--------------------------------------------------------------------------
#psi4
#
memory 32 gb

molecule  {
0 1
  O        1.7739800     1.6003060    -0.2911220
  N        0.9906540    -0.4920130     0.2058460
  C       -2.2286800    -0.2510300    -0.1765170
  C       -1.2730330    -1.4351160    -0.3152870
  C       -1.5989250     1.1242550    -0.3956020
  C       -0.0841310    -1.3759550     0.6456410
  C       -0.4584780     1.4603760     0.5782350
  C        0.8707430     0.8730760     0.1404640
  C        2.1918860    -1.1187650    -0.3259700
  H       -2.6699130    -0.2765890     0.8297550
  H       -3.0608600    -0.3791320    -0.8796750
  H       -1.8066999    -2.3184974    -0.1341761
  H       -0.8887130    -1.5005570    -1.3409750
  H       -2.3834680     1.8827830    -0.2893500
  H       -1.2246060     1.2090190    -1.4238390
  H       -0.4244360    -1.0900460     1.6492300
  H        0.3620160    -2.3701320     0.7449650
  H       -0.7218730     1.1400510     1.5944380
  H       -0.2910430     2.5394790     0.6064930
  H        1.9486170    -1.7578730    -1.1825500
  H        2.6762910    -1.7288140     0.4434650
  H        2.8674440    -0.3269360    -0.6441440
units angstrom
no_reorient  #important for SAPT in psi4, default
symmetry c1  #important for SAPT in psi4, default
}

set PROPERTIES_ORIGIN ["COM"]
properties('MP2/aug-cc-pvtz', properties = ['dipole'])
--------------------------------------------------------------------------

    Molecular point group: c1
  Charge       = 0
  Multiplicity = 1
  Basis Set: AUG-CC-PVTZ
    Blend: AUG-CC-PVTZ
  Basis Set: (AUG-CC-PVTZ AUX)
    Blend: AUG-CC-PVTZ-JKFIT

    Orbital Energies [Eh]
    ---------------------

    Doubly Occupied:

       1A    -20.505406     2A    -15.580186     3A    -11.339637
       4A    -11.271834     5A    -11.250376     6A    -11.234297
       7A    -11.233235     8A    -11.231175     9A    -11.227038
      10A     -1.361550    11A     -1.240879    12A     -1.098032
      13A     -1.039534    14A     -0.975337    15A     -0.913651
      16A     -0.880551    17A     -0.793727    18A     -0.725084
      19A     -0.691009    20A     -0.670154    21A     -0.633362
      22A     -0.607949    23A     -0.603006    24A     -0.595594
      25A     -0.583885    26A     -0.559237    27A     -0.544231
      28A     -0.527475    29A     -0.510017    30A     -0.508893
      31A     -0.479666    32A     -0.468385    33A     -0.465410
      34A     -0.407193    35A     -0.364819

  @DF-RHF Final Energy:  -402.11122189242178

   => Energetics <=

    Nuclear Repulsion Energy =            486.5705939829582576
    One-Electron Energy =               -1511.1200085160489834
    Two-Electron Energy =                 622.4381926406690582
    Total Energy =                       -402.1112218924217814
  Basis Set: (AUG-CC-PVTZ AUX)
    Blend: AUG-CC-PVTZ-RI
    Molecular point group: c1

    Geometry (in Angstrom), charge = 0, multiplicity = 1:

       Center              X                  Y                   Z               Mass
    ------------   -----------------  -----------------  -----------------  -----------------
         O            1.729776557535     1.560864810656    -0.291208576477    15.994914619570
         N            0.946450557535    -0.531454189344     0.205759423523    14.003074004430
         C           -2.272883442465    -0.290471189344    -0.176603576477    12.000000000000
         C           -1.317236442465    -1.474557189344    -0.315373576477    12.000000000000
         C           -1.643128442465     1.084813810656    -0.395688576477    12.000000000000
         C           -0.128334442465    -1.415396189344     0.645554423523    12.000000000000
         C           -0.502681442465     1.420934810656     0.578148423523    12.000000000000
         C            0.826539557535     0.833634810656     0.140377423523    12.000000000000
         C            2.147682557535    -1.158206189344    -0.326056576477    12.000000000000
         H           -2.714116442465    -0.316030189344     0.829668423523     1.007825032230
         H           -3.105063442465    -0.418573189344    -0.879761576477     1.007825032230
         H           -1.850903342465    -2.357938589344    -0.134262676477     1.007825032230
         H           -0.932916442465    -1.539998189344    -1.341061576477     1.007825032230
         H           -2.427671442465     1.843341810656    -0.289436576477     1.007825032230
         H           -1.268809442465     1.169577810656    -1.423925576477     1.007825032230
         H           -0.468639442465    -1.129487189344     1.649143423523     1.007825032230
         H            0.317812557535    -2.409573189344     0.744878423523     1.007825032230
         H           -0.766076442465     1.100609810656     1.594351423523     1.007825032230
         H           -0.335246442465     2.500037810656     0.606406423523     1.007825032230
         H            1.904413557535    -1.797314189344    -1.182636576477     1.007825032230
         H            2.632087557535    -1.768255189344     0.443378423523     1.007825032230
         H            2.823240557535    -0.366377189344    -0.644230576477     1.007825032230

  Basis Set: AUG-CC-PVTZ
    Blend: AUG-CC-PVTZ
  Basis Set: (AUG-CC-PVTZ AUX)
    Blend: AUG-CC-PVTZ-JKFIT
	 Reference Energy          =    -402.1112218924217814 [Eh]
	 Singles Energy            =      -0.0000000000000000 [Eh]
	 Same-Spin Energy          =      -0.4217666144617302 [Eh]
	 Opposite-Spin Energy      =      -1.4048874022719842 [Eh]
	 Correlation Energy        =      -1.8266540167337144 [Eh]
	 Total Energy              =    -403.9378759091554798 [Eh]

	 ================> DF-SCS-MP2 Energies <==================
	-----------------------------------------------------------
	 SCS Same-Spin Scale       =       0.3333333333333333 [-]
	 SCS Opposite-Spin Scale   =       1.2000000000000000 [-]
	 SCS Same-Spin Energy      =      -0.1405888714872434 [Eh]
	 SCS Opposite-Spin Energy  =      -1.6858648827263809 [Eh]
	 SCS Correlation Energy    =      -1.8264537542136243 [Eh]
	 SCS Total Energy          =    -403.9376756466353982 [Eh]
	-----------------------------------------------------------

  Dipole Moment: [D]
     X:    -2.5998      Y:    -3.1396      Z:     0.7950     Total:     4.1531

*** Psi4 exiting successfully. Buy a developer a beer!
