                               Psi4 1.3.2 release

  ==> Input File <==

--------------------------------------------------------------------------
#psi4
#
memory 32 gb

molecule  {
0 1
  O        1.7739800     1.6003060    -0.2911220
  N        0.9906540    -0.4920130     0.2058460
  C       -2.2286800    -0.2510300    -0.1765170
  C       -1.2730330    -1.4351160    -0.3152870
  C       -1.5989250     1.1242550    -0.3956020
  C       -0.0699732    -1.3960792     0.6390552
  C       -0.4584780     1.4603760     0.5782350
  C        0.8707430     0.8730760     0.1404640
  C        2.1918860    -1.1187650    -0.3259700
  H       -2.6699130    -0.2765890     0.8297550
  H       -3.0608600    -0.3791320    -0.8796750
  H       -1.8321650    -2.3606500    -0.1255340
  H       -0.8887130    -1.5005570    -1.3409750
  H       -2.3834680     1.8827830    -0.2893500
  H       -1.2246060     1.2090190    -1.4238390
  H       -0.4244360    -1.0900460     1.6492300
  H        0.3620160    -2.3701320     0.7449650
  H       -0.7218730     1.1400510     1.5944380
  H       -0.2910430     2.5394790     0.6064930
  H        1.9486170    -1.7578730    -1.1825500
  H        2.6762910    -1.7288140     0.4434650
  H        2.8674440    -0.3269360    -0.6441440
units angstrom
no_reorient  #important for SAPT in psi4, default
symmetry c1  #important for SAPT in psi4, default
}

set PROPERTIES_ORIGIN ["COM"]
properties('MP2/aug-cc-pvtz', properties = ['dipole'])
--------------------------------------------------------------------------

    Molecular point group: c1
  Charge       = 0
  Multiplicity = 1
  Basis Set: AUG-CC-PVTZ
    Blend: AUG-CC-PVTZ
  Basis Set: (AUG-CC-PVTZ AUX)
    Blend: AUG-CC-PVTZ-JKFIT

    Orbital Energies [Eh]
    ---------------------

    Doubly Occupied:

       1A    -20.505955     2A    -15.580575     3A    -11.340506
       4A    -11.272188     5A    -11.250263     6A    -11.234643
       7A    -11.233684     8A    -11.233468     9A    -11.231892
      10A     -1.362009    11A     -1.241243    12A     -1.097030
      13A     -1.037972    14A     -0.975107    15A     -0.915159
      16A     -0.878426    17A     -0.792297    18A     -0.724393
      19A     -0.690329    20A     -0.670300    21A     -0.632920
      22A     -0.608565    23A     -0.601858    24A     -0.595461
      25A     -0.585098    26A     -0.557085    27A     -0.544522
      28A     -0.526372    29A     -0.509944    30A     -0.507598
      31A     -0.479073    32A     -0.467512    33A     -0.466740
      34A     -0.407836    35A     -0.364384

  @DF-RHF Final Energy:  -402.11138894438153

   => Energetics <=

    Nuclear Repulsion Energy =            486.1023491434655739
    One-Electron Energy =               -1510.1826627622222077
    Two-Electron Energy =                 621.9689246743751028
    Total Energy =                       -402.1113889443815879
  Basis Set: (AUG-CC-PVTZ AUX)
    Blend: AUG-CC-PVTZ-RI
    Molecular point group: c1

    Geometry (in Angstrom), charge = 0, multiplicity = 1:

       Center              X                  Y                   Z               Mass
    ------------   -----------------  -----------------  -----------------  -----------------
         O            1.728641785235     1.563099063089    -0.290655311068    15.994914619570
         N            0.945315785235    -0.529219936911     0.206312688932    14.003074004430
         C           -2.274018214765    -0.288236936911    -0.176050311068    12.000000000000
         C           -1.318371214765    -1.472322936911    -0.314820311068    12.000000000000
         C           -1.644263214765     1.087048063089    -0.395135311068    12.000000000000
         C           -0.115311414765    -1.433286136911     0.639521888932    12.000000000000
         C           -0.503816214765     1.423169063089     0.578701688932    12.000000000000
         C            0.825404785235     0.835869063089     0.140930688932    12.000000000000
         C            2.146547785235    -1.155971936911    -0.325503311068    12.000000000000
         H           -2.715251214765    -0.313795936911     0.830221688932     1.007825032230
         H           -3.106198214765    -0.416338936911    -0.879208311068     1.007825032230
         H           -1.877503214765    -2.397856936911    -0.125067311068     1.007825032230
         H           -0.934051214765    -1.537763936911    -1.340508311068     1.007825032230
         H           -2.428806214765     1.845576063089    -0.288883311068     1.007825032230
         H           -1.269944214765     1.171812063089    -1.423372311068     1.007825032230
         H           -0.469774214765    -1.127252936911     1.649696688932     1.007825032230
         H            0.316677785235    -2.407338936911     0.745431688932     1.007825032230
         H           -0.767211214765     1.102844063089     1.594904688932     1.007825032230
         H           -0.336381214765     2.502272063089     0.606959688932     1.007825032230
         H            1.903278785235    -1.795079936911    -1.182083311068     1.007825032230
         H            2.630952785235    -1.766020936911     0.443931688932     1.007825032230
         H            2.822105785235    -0.364142936911    -0.643677311068     1.007825032230

  Basis Set: AUG-CC-PVTZ
    Blend: AUG-CC-PVTZ
  Basis Set: (AUG-CC-PVTZ AUX)
    Blend: AUG-CC-PVTZ-JKFIT
	 Reference Energy          =    -402.1113889443815310 [Eh]
	 Singles Energy            =      -0.0000000000000000 [Eh]
	 Same-Spin Energy          =      -0.4217295642894530 [Eh]
	 Opposite-Spin Energy      =      -1.4051650290402180 [Eh]
	 Correlation Energy        =      -1.8268945933296710 [Eh]
	 Total Energy              =    -403.9382835377111860 [Eh]

	 ================> DF-SCS-MP2 Energies <==================
	-----------------------------------------------------------
	 SCS Same-Spin Scale       =       0.3333333333333333 [-]
	 SCS Opposite-Spin Scale   =       1.2000000000000000 [-]
	 SCS Same-Spin Energy      =      -0.1405765214298176 [Eh]
	 SCS Opposite-Spin Energy  =      -1.6861980348482615 [Eh]
	 SCS Correlation Energy    =      -1.8267745562780791 [Eh]
	 SCS Total Energy          =    -403.9381635006595843 [Eh]
	-----------------------------------------------------------

  Dipole Moment: [D]
     X:    -2.5753      Y:    -3.1129      Z:     0.7882     Total:     4.1163

*** Psi4 exiting successfully. Buy a developer a beer!
