                               Psi4 1.3.2 release

  ==> Input File <==

--------------------------------------------------------------------------
#psi4
#
memory 32 gb

molecule  {
0 1
  O        1.7739800     1.6003060    -0.2911220
  N        0.9906540    -0.4920130     0.2058460
  C       -2.2286800    -0.2510300    -0.1765170
  C       -1.2730330    -1.4351160    -0.3152870
  C       -1.5989250     1.1242550    -0.3956020
  C        0.0631573    -1.2548198     0.5853716
  C       -0.4584780     1.4603760     0.5782350
  C        0.8707430     0.8730760     0.1404640
  C        2.1918860    -1.1187650    -0.3259700
  H       -2.6699130    -0.2765890     0.8297550
  H       -3.0608600    -0.3791320    -0.8796750
  H       -1.8321650    -2.3606500    -0.1255340
  H       -0.8887130    -1.5005570    -1.3409750
  H       -2.3834680     1.8827830    -0.2893500
  H       -1.2246060     1.2090190    -1.4238390
  H       -0.4244360    -1.0900460     1.6492300
  H        0.3620160    -2.3701320     0.7449650
  H       -0.7218730     1.1400510     1.5944380
  H       -0.2910430     2.5394790     0.6064930
  H        1.9486170    -1.7578730    -1.1825500
  H        2.6762910    -1.7288140     0.4434650
  H        2.8674440    -0.3269360    -0.6441440
units angstrom
no_reorient  #important for SAPT in psi4, default
symmetry c1  #important for SAPT in psi4, default
}

set PROPERTIES_ORIGIN ["COM"]
properties('MP2/aug-cc-pvtz', properties = ['dipole'])
--------------------------------------------------------------------------

    Molecular point group: c1
  Charge       = 0
  Multiplicity = 1
  Basis Set: AUG-CC-PVTZ
    Blend: AUG-CC-PVTZ
  Basis Set: (AUG-CC-PVTZ AUX)
    Blend: AUG-CC-PVTZ-JKFIT

    Orbital Energies [Eh]
    ---------------------

    Doubly Occupied:

       1A    -20.516945     2A    -15.584954     3A    -11.349550
       4A    -11.273926     5A    -11.258133     6A    -11.236742
       7A    -11.234698     8A    -11.229532     9A    -11.227281
      10A     -1.379447    11A     -1.296043    12A     -1.094680
      13A     -1.027803    14A     -0.985284    15A     -0.916524
      16A     -0.893223    17A     -0.792996    18A     -0.735722
      19A     -0.700342    20A     -0.678284    21A     -0.650813
      22A     -0.612204    23A     -0.601040    24A     -0.597560
      25A     -0.579756    26A     -0.554290    27A     -0.544059
      28A     -0.540515    29A     -0.506492    30A     -0.501038
      31A     -0.474548    32A     -0.467777    33A     -0.451195
      34A     -0.413204    35A     -0.352560

  @DF-RHF Final Energy:  -402.06308515480652

   => Energetics <=

    Nuclear Repulsion Energy =            489.3676989734340168
    One-Electron Energy =               -1516.3432474704534343
    Two-Electron Energy =                 624.9124633422129591
    Total Energy =                       -402.0630851548064584
  Basis Set: (AUG-CC-PVTZ AUX)
    Blend: AUG-CC-PVTZ-RI
    Molecular point group: c1

    Geometry (in Angstrom), charge = 0, multiplicity = 1:

       Center              X                  Y                   Z               Mass
    ------------   -----------------  -----------------  -----------------  -----------------
         O            1.716072394249     1.549762189653    -0.285586824449    15.994914619570
         N            0.932746394249    -0.542556810347     0.211381175551    14.003074004430
         C           -2.286587605751    -0.301573810347    -0.170981824449    12.000000000000
         C           -1.330940605751    -1.485659810347    -0.309751824449    12.000000000000
         C           -1.656832605751     1.073711189653    -0.390066824449    12.000000000000
         C            0.005249694249    -1.305363610347     0.590906775551    12.000000000000
         C           -0.516385605751     1.409832189653     0.583770175551    12.000000000000
         C            0.812835394249     0.822532189653     0.145999175551    12.000000000000
         C            2.133978394249    -1.169308810347    -0.320434824449    12.000000000000
         H           -2.727820605751    -0.327132810347     0.835290175551     1.007825032230
         H           -3.118767605751    -0.429675810347    -0.874139824449     1.007825032230
         H           -1.890072605751    -2.411193810347    -0.119998824449     1.007825032230
         H           -0.946620605751    -1.551100810347    -1.335439824449     1.007825032230
         H           -2.441375605751     1.832239189653    -0.283814824449     1.007825032230
         H           -1.282513605751     1.158475189653    -1.418303824449     1.007825032230
         H           -0.482343605751    -1.140589810347     1.654765175551     1.007825032230
         H            0.304108394249    -2.420675810347     0.750500175551     1.007825032230
         H           -0.779780605751     1.089507189653     1.599973175551     1.007825032230
         H           -0.348950605751     2.488935189653     0.612028175551     1.007825032230
         H            1.890709394249    -1.808416810347    -1.177014824449     1.007825032230
         H            2.618383394249    -1.779357810347     0.449000175551     1.007825032230
         H            2.809536394249    -0.377479810347    -0.638608824449     1.007825032230

  Basis Set: AUG-CC-PVTZ
    Blend: AUG-CC-PVTZ
  Basis Set: (AUG-CC-PVTZ AUX)
    Blend: AUG-CC-PVTZ-JKFIT
	 Reference Energy          =    -402.0630851548065152 [Eh]
	 Singles Energy            =      -0.0000000000000000 [Eh]
	 Same-Spin Energy          =      -0.4246035055989402 [Eh]
	 Opposite-Spin Energy      =      -1.4083415496359624 [Eh]
	 Correlation Energy        =      -1.8329450552349025 [Eh]
	 Total Energy              =    -403.8960302100414310 [Eh]

	 ================> DF-SCS-MP2 Energies <==================
	-----------------------------------------------------------
	 SCS Same-Spin Scale       =       0.3333333333333333 [-]
	 SCS Opposite-Spin Scale   =       1.2000000000000000 [-]
	 SCS Same-Spin Energy      =      -0.1415345018663134 [Eh]
	 SCS Opposite-Spin Energy  =      -1.6900098595631547 [Eh]
	 SCS Correlation Energy    =      -1.8315443614294682 [Eh]
	 SCS Total Energy          =    -403.8946295162359661 [Eh]
	-----------------------------------------------------------

  Dipole Moment: [D]
     X:    -2.0254      Y:    -2.6358      Z:     0.5850     Total:     3.3752

*** Psi4 exiting successfully. Buy a developer a beer!
