                               Psi4 1.4a3.dev225

  ==> Input File <==

--------------------------------------------------------------------------
#psi4
#
memory 32 gb

molecule  {
0 1
  O        1.7739800     1.6003060    -0.2911220
  N        0.9906540    -0.4920130     0.2058460
  C       -2.2286800    -0.2510300    -0.1765170
  C       -1.2730330    -1.4351160    -0.3152870
  C       -1.5989250     1.1242550    -0.3956020
  C       -0.0841310    -1.3759550     0.6456410
  C       -0.4584780     1.4603760     0.5782350
  C        0.8707430     0.8730760     0.1404640
  C        2.1918860    -1.1187650    -0.3259700
  H       -2.6699130    -0.2765890     0.8297550
  H       -3.0608600    -0.3791320    -0.8796750
  H       -1.8321650    -2.3606500    -0.1255340
  H       -0.8887130    -1.5005570    -1.3409750
  H       -2.3977788     1.8966193    -0.2874119
  H       -1.2246060     1.2090190    -1.4238390
  H       -0.4244360    -1.0900460     1.6492300
  H        0.3620160    -2.3701320     0.7449650
  H       -0.7218730     1.1400510     1.5944380
  H       -0.2910430     2.5394790     0.6064930
  H        1.9486170    -1.7578730    -1.1825500
  H        2.6762910    -1.7288140     0.4434650
  H        2.8674440    -0.3269360    -0.6441440
units angstrom
no_reorient  #important for SAPT in psi4, default
symmetry c1  #important for SAPT in psi4, default
}

set PROPERTIES_ORIGIN ["COM"]
properties('MP2/aug-cc-pvtz', properties = ['dipole'])
--------------------------------------------------------------------------

    Molecular point group: c1
  Charge       = 0
  Multiplicity = 1
  Basis Set: AUG-CC-PVTZ
    Blend: AUG-CC-PVTZ
  Basis Set: (AUG-CC-PVTZ AUX)
    Blend: AUG-CC-PVTZ-JKFIT

    Orbital Energies [Eh]
    ---------------------

    Doubly Occupied:

       1A    -20.505843     2A    -15.580708     3A    -11.340074
       4A    -11.272330     5A    -11.250682     6A    -11.237044
       7A    -11.233735     8A    -11.233545     9A    -11.231681
      10A     -1.361976    11A     -1.241323    12A     -1.097270
      13A     -1.038057    14A     -0.975533    15A     -0.913973
      16A     -0.877384    17A     -0.791937    18A     -0.725386
      19A     -0.690569    20A     -0.668609    21A     -0.633390
      22A     -0.607954    23A     -0.601990    24A     -0.593225
      25A     -0.582834    26A     -0.558428    27A     -0.544380
      28A     -0.527186    29A     -0.509676    30A     -0.509191
      31A     -0.479457    32A     -0.467510    33A     -0.464364
      34A     -0.407469    35A     -0.365215

  @DF-RHF Final Energy:  -402.11150573370622

   => Energetics <=

    Nuclear Repulsion Energy =            486.1978174358256410
    One-Electron Energy =               -1510.3787926964837425
    Two-Electron Energy =                 622.0694695269520480
    Total Energy =                       -402.1115057337061671
  Basis Set: (AUG-CC-PVTZ AUX)
    Blend: AUG-CC-PVTZ-RI
    Molecular point group: c1

    Geometry (in Angstrom), charge = 0, multiplicity = 1:

       Center              X                  Y                   Z               Mass
    ------------   -----------------  -----------------  -----------------  -----------------
         O            1.730091956731     1.561089342049    -0.291292471162    15.994914619570
         N            0.946765956731    -0.531229657951     0.205675528838    14.003074004430
         C           -2.272568043269    -0.290246657951    -0.176687471162    12.000000000000
         C           -1.316921043269    -1.474332657951    -0.315457471162    12.000000000000
         C           -1.642813043269     1.085038342049    -0.395772471162    12.000000000000
         C           -0.128019043269    -1.415171657951     0.645470528838    12.000000000000
         C           -0.502366043269     1.421159342049     0.578064528838    12.000000000000
         C            0.826854956731     0.833859342049     0.140293528838    12.000000000000
         C            2.147997956731    -1.157981657951    -0.326140471162    12.000000000000
         H           -2.713801043269    -0.315805657951     0.829584528838     1.007825032230
         H           -3.104748043269    -0.418348657951    -0.879845471162     1.007825032230
         H           -1.876053043269    -2.399866657951    -0.125704471162     1.007825032230
         H           -0.932601043269    -1.539773657951    -1.341145471162     1.007825032230
         H           -2.441666843269     1.857402642049    -0.287582371162     1.007825032230
         H           -1.268494043269     1.169802342049    -1.424009471162     1.007825032230
         H           -0.468324043269    -1.129262657951     1.649059528838     1.007825032230
         H            0.318127956731    -2.409348657951     0.744794528838     1.007825032230
         H           -0.765761043269     1.100834342049     1.594267528838     1.007825032230
         H           -0.334931043269     2.500262342049     0.606322528838     1.007825032230
         H            1.904728956731    -1.797089657951    -1.182720471162     1.007825032230
         H            2.632402956731    -1.768030657951     0.443294528838     1.007825032230
         H            2.823555956731    -0.366152657951    -0.644314471162     1.007825032230

  Basis Set: AUG-CC-PVTZ
    Blend: AUG-CC-PVTZ
  Basis Set: (AUG-CC-PVTZ AUX)
    Blend: AUG-CC-PVTZ-JKFIT
	 Reference Energy          =    -402.1115057337062240 [Eh]
	 Singles Energy            =      -0.0000000000000000 [Eh]
	 Same-Spin Energy          =      -0.4217908708067373 [Eh]
	 Opposite-Spin Energy      =      -1.4053599105566477 [Eh]
	 Correlation Energy        =      -1.8271507813633849 [Eh]
	 Total Energy              =    -403.9386565150696242 [Eh]

	 ================> DF-SCS-MP2 Energies <==================
	-----------------------------------------------------------
	 SCS Same-Spin Scale       =       0.3333333333333333 [-]
	 SCS Opposite-Spin Scale   =       1.2000000000000000 [-]
	 SCS Same-Spin Energy      =      -0.1405969569355791 [Eh]
	 SCS Opposite-Spin Energy  =      -1.6864318926679771 [Eh]
	 SCS Correlation Energy    =      -1.8270288496035563 [Eh]
	 SCS Total Energy          =    -403.9385345833097745 [Eh]
	-----------------------------------------------------------

  Dipole Moment: [D]
     X:    -2.5677      Y:    -3.1156      Z:     0.7945     Total:     4.1147

*** Psi4 exiting successfully. Buy a developer a beer!
