                               Psi4 1.3.2 release

  ==> Input File <==

--------------------------------------------------------------------------
#psi4
#
memory 32 gb

molecule  {
0 1
  O        1.7739800     1.6003060    -0.2911220
  N        0.9906540    -0.4920130     0.2058460
  C       -2.2286800    -0.2510300    -0.1765170
  C       -1.2730330    -1.4351160    -0.3152870
  C       -1.5989250     1.1242550    -0.3956020
  C       -0.0841310    -1.3759550     0.6456410
  C       -0.4584780     1.4603760     0.5782350
  C        0.8707430     0.8730760     0.1404640
  C        2.1918860    -1.1187650    -0.3259700
  H       -2.6699130    -0.2765890     0.8297550
  H       -3.0608600    -0.3791320    -0.8796750
  H       -1.8321650    -2.3606500    -0.1255340
  H       -0.8887130    -1.5005570    -1.3409750
  H       -2.3834680     1.8827830    -0.2893500
  H       -1.2246060     1.2090190    -1.4238390
  H       -0.4244360    -1.0900460     1.6492300
  H        0.3620160    -2.3701320     0.7449650
  H       -0.7277355     1.0685742     1.5675000
  H       -0.2910430     2.5394790     0.6064930
  H        1.9486170    -1.7578730    -1.1825500
  H        2.6762910    -1.7288140     0.4434650
  H        2.8674440    -0.3269360    -0.6441440
units angstrom
no_reorient  #important for SAPT in psi4, default
symmetry c1  #important for SAPT in psi4, default
}

set PROPERTIES_ORIGIN ["COM"]
properties('MP2/aug-cc-pvtz', properties = ['dipole'])
--------------------------------------------------------------------------

    Molecular point group: c1
  Charge       = 0
  Multiplicity = 1
  Basis Set: AUG-CC-PVTZ
    Blend: AUG-CC-PVTZ
  Basis Set: (AUG-CC-PVTZ AUX)
    Blend: AUG-CC-PVTZ-JKFIT

    Orbital Energies [Eh]
    ---------------------

    Doubly Occupied:

       1A    -20.505453     2A    -15.580606     3A    -11.339434
       4A    -11.272551     5A    -11.250663     6A    -11.234427
       7A    -11.233723     8A    -11.233620     9A    -11.231779
      10A     -1.361722    11A     -1.241329    12A     -1.098090
      13A     -1.038491    14A     -0.975861    15A     -0.913784
      16A     -0.878052    17A     -0.792718    18A     -0.724770
      19A     -0.690221    20A     -0.669835    21A     -0.633470
      22A     -0.607912    23A     -0.603056    24A     -0.594134
      25A     -0.583592    26A     -0.559752    27A     -0.544522
      28A     -0.527236    29A     -0.509756    30A     -0.509243
      31A     -0.479827    32A     -0.467407    33A     -0.464838
      34A     -0.406995    35A     -0.365239

  @DF-RHF Final Energy:  -402.11150966761556

   => Energetics <=

    Nuclear Repulsion Energy =            486.4662208909658716
    One-Electron Energy =               -1510.9072544512046079
    Two-Electron Energy =                 622.3295238926232287
    Total Energy =                       -402.1115096676155645
  Basis Set: (AUG-CC-PVTZ AUX)
    Blend: AUG-CC-PVTZ-RI
    Molecular point group: c1

    Geometry (in Angstrom), charge = 0, multiplicity = 1:

       Center              X                  Y                   Z               Mass
    ------------   -----------------  -----------------  -----------------  -----------------
         O            1.730024966744     1.561765824120    -0.291063500887    15.994914619570
         N            0.946698966744    -0.530553175880     0.205904499113    14.003074004430
         C           -2.272635033256    -0.289570175880    -0.176458500887    12.000000000000
         C           -1.316988033256    -1.473656175880    -0.315228500887    12.000000000000
         C           -1.642880033256     1.085714824120    -0.395543500887    12.000000000000
         C           -0.128086033256    -1.414495175880     0.645699499113    12.000000000000
         C           -0.502433033256     1.421835824120     0.578293499113    12.000000000000
         C            0.826787966744     0.834535824120     0.140522499113    12.000000000000
         C            2.147930966744    -1.157305175880    -0.325911500887    12.000000000000
         H           -2.713868033256    -0.315129175880     0.829813499113     1.007825032230
         H           -3.104815033256    -0.417672175880    -0.879616500887     1.007825032230
         H           -1.876120033256    -2.399190175880    -0.125475500887     1.007825032230
         H           -0.932668033256    -1.539097175880    -1.340916500887     1.007825032230
         H           -2.427423033256     1.844242824120    -0.289291500887     1.007825032230
         H           -1.268561033256     1.170478824120    -1.423780500887     1.007825032230
         H           -0.468391033256    -1.128586175880     1.649288499113     1.007825032230
         H            0.318060966744    -2.408672175880     0.745023499113     1.007825032230
         H           -0.771690533256     1.030034024120     1.567558499113     1.007825032230
         H           -0.334998033256     2.500938824120     0.606551499113     1.007825032230
         H            1.904661966744    -1.796413175880    -1.182491500887     1.007825032230
         H            2.632335966744    -1.767354175880     0.443523499113     1.007825032230
         H            2.823488966744    -0.365476175880    -0.644085500887     1.007825032230

  Basis Set: AUG-CC-PVTZ
    Blend: AUG-CC-PVTZ
  Basis Set: (AUG-CC-PVTZ AUX)
    Blend: AUG-CC-PVTZ-JKFIT
	 Reference Energy          =    -402.1115096676155645 [Eh]
	 Singles Energy            =      -0.0000000000000000 [Eh]
	 Same-Spin Energy          =      -0.4218850071491246 [Eh]
	 Opposite-Spin Energy      =      -1.4053543962766146 [Eh]
	 Correlation Energy        =      -1.8272394034257391 [Eh]
	 Total Energy              =    -403.9387490710412862 [Eh]

	 ================> DF-SCS-MP2 Energies <==================
	-----------------------------------------------------------
	 SCS Same-Spin Scale       =       0.3333333333333333 [-]
	 SCS Opposite-Spin Scale   =       1.2000000000000000 [-]
	 SCS Same-Spin Energy      =      -0.1406283357163748 [Eh]
	 SCS Opposite-Spin Energy  =      -1.6864252755319376 [Eh]
	 SCS Correlation Energy    =      -1.8270536112483124 [Eh]
	 SCS Total Energy          =    -403.9385632788638532 [Eh]
	-----------------------------------------------------------

  Dipole Moment: [D]
     X:    -2.5862      Y:    -3.1273      Z:     0.7731     Total:     4.1312

*** Psi4 exiting successfully. Buy a developer a beer!
