                               Psi4 1.4a3.dev225

  ==> Input File <==

--------------------------------------------------------------------------
#psi4
#
memory 32 gb

molecule  {
0 1
  O        1.7739800     1.6003060    -0.2911220
  N        0.9906540    -0.4920130     0.2058460
  C       -2.2286800    -0.2510300    -0.1765170
  C       -1.2730330    -1.4351160    -0.3152870
  C       -1.5989250     1.1242550    -0.3956020
  C       -0.0841310    -1.3759550     0.6456410
  C       -0.4584780     1.4603760     0.5782350
  C        0.8561431     0.8613211     0.1474401
  C        2.1918860    -1.1187650    -0.3259700
  H       -2.6699130    -0.2765890     0.8297550
  H       -3.0608600    -0.3791320    -0.8796750
  H       -1.8321650    -2.3606500    -0.1255340
  H       -0.8887130    -1.5005570    -1.3409750
  H       -2.3834680     1.8827830    -0.2893500
  H       -1.2246060     1.2090190    -1.4238390
  H       -0.4244360    -1.0900460     1.6492300
  H        0.3620160    -2.3701320     0.7449650
  H       -0.7218730     1.1400510     1.5944380
  H       -0.2910430     2.5394790     0.6064930
  H        1.9486170    -1.7578730    -1.1825500
  H        2.6762910    -1.7288140     0.4434650
  H        2.8674440    -0.3269360    -0.6441440
units angstrom
no_reorient  #important for SAPT in psi4, default
symmetry c1  #important for SAPT in psi4, default
}

set PROPERTIES_ORIGIN ["COM"]
properties('MP2/aug-cc-pvtz', properties = ['dipole'])
--------------------------------------------------------------------------

    Molecular point group: c1
  Charge       = 0
  Multiplicity = 1
  Basis Set: AUG-CC-PVTZ
    Blend: AUG-CC-PVTZ
  Basis Set: (AUG-CC-PVTZ AUX)
    Blend: AUG-CC-PVTZ-JKFIT

    Orbital Energies [Eh]
    ---------------------

    Doubly Occupied:

       1A    -20.501426     2A    -15.583642     3A    -11.340068
       4A    -11.273258     5A    -11.251966     6A    -11.235279
       7A    -11.234424     8A    -11.234102     9A    -11.232234
      10A     -1.350996    11A     -1.241489    12A     -1.098901
      13A     -1.039826    14A     -0.977643    15A     -0.917101
      16A     -0.879499    17A     -0.793692    18A     -0.726633
      19A     -0.690979    20A     -0.668955    21A     -0.633844
      22A     -0.609587    23A     -0.600330    24A     -0.594720
      25A     -0.582532    26A     -0.558694    27A     -0.543119
      28A     -0.527548    29A     -0.508959    30A     -0.507262
      31A     -0.480123    32A     -0.467517    33A     -0.464327
      34A     -0.405865    35A     -0.365204

  @DF-RHF Final Energy:  -402.11006278963345

   => Energetics <=

    Nuclear Repulsion Energy =            486.3751220982834980
    One-Electron Energy =               -1510.7268799182043040
    Two-Electron Energy =                 622.2416950302872465
    Total Energy =                       -402.1100627896335027
  Basis Set: (AUG-CC-PVTZ AUX)
    Blend: AUG-CC-PVTZ-RI
    Molecular point group: c1

    Geometry (in Angstrom), charge = 0, multiplicity = 1:

       Center              X                  Y                   Z               Mass
    ------------   -----------------  -----------------  -----------------  -----------------
         O            1.731356916442     1.562308883499    -0.291935745106    15.994914619570
         N            0.948030916442    -0.530010116501     0.205032254894    14.003074004430
         C           -2.271303083558    -0.289027116501    -0.177330745106    12.000000000000
         C           -1.315656083558    -1.473113116501    -0.316100745106    12.000000000000
         C           -1.641548083558     1.086257883499    -0.396415745106    12.000000000000
         C           -0.126754083558    -1.413952116501     0.644827254894    12.000000000000
         C           -0.501101083558     1.422378883499     0.577421254894    12.000000000000
         C            0.813520016442     0.823323983499     0.146626354894    12.000000000000
         C            2.149262916442    -1.156762116501    -0.326783745106    12.000000000000
         H           -2.712536083558    -0.314586116501     0.828941254894     1.007825032230
         H           -3.103483083558    -0.417129116501    -0.880488745106     1.007825032230
         H           -1.874788083558    -2.398647116501    -0.126347745106     1.007825032230
         H           -0.931336083558    -1.538554116501    -1.341788745106     1.007825032230
         H           -2.426091083558     1.844785883499    -0.290163745106     1.007825032230
         H           -1.267229083558     1.171021883499    -1.424652745106     1.007825032230
         H           -0.467059083558    -1.128043116501     1.648416254894     1.007825032230
         H            0.319392916442    -2.408129116501     0.744151254894     1.007825032230
         H           -0.764496083558     1.102053883499     1.593624254894     1.007825032230
         H           -0.333666083558     2.501481883499     0.605679254894     1.007825032230
         H            1.905993916442    -1.795870116501    -1.183363745106     1.007825032230
         H            2.633667916442    -1.766811116501     0.442651254894     1.007825032230
         H            2.824820916442    -0.364933116501    -0.644957745106     1.007825032230

  Basis Set: AUG-CC-PVTZ
    Blend: AUG-CC-PVTZ
  Basis Set: (AUG-CC-PVTZ AUX)
    Blend: AUG-CC-PVTZ-JKFIT
	 Reference Energy          =    -402.1100627896334458 [Eh]
	 Singles Energy            =      -0.0000000000000000 [Eh]
	 Same-Spin Energy          =      -0.4222053882948344 [Eh]
	 Opposite-Spin Energy      =      -1.4060210420391441 [Eh]
	 Correlation Energy        =      -1.8282264303339786 [Eh]
	 Total Energy              =    -403.9382892199674302 [Eh]

	 ================> DF-SCS-MP2 Energies <==================
	-----------------------------------------------------------
	 SCS Same-Spin Scale       =       0.3333333333333333 [-]
	 SCS Opposite-Spin Scale   =       1.2000000000000000 [-]
	 SCS Same-Spin Energy      =      -0.1407351294316115 [Eh]
	 SCS Opposite-Spin Energy  =      -1.6872252504469729 [Eh]
	 SCS Correlation Energy    =      -1.8279603798785844 [Eh]
	 SCS Total Energy          =    -403.9380231695120074 [Eh]
	-----------------------------------------------------------

  Dipole Moment: [D]
     X:    -2.6616      Y:    -3.2340      Z:     0.8250     Total:     4.2689

*** Psi4 exiting successfully. Buy a developer a beer!
