                               Psi4 1.3.2 release

  ==> Input File <==

--------------------------------------------------------------------------
#psi4
#
memory 32 gb

molecule  {
0 1
  O        1.7739800     1.6003060    -0.2911220
  N        0.9906540    -0.4920130     0.2058460
  C       -2.2286800    -0.2510300    -0.1765170
  C       -1.2730330    -1.4351160    -0.3152870
  C       -1.5989250     1.1242550    -0.3956020
  C       -0.0841310    -1.3759550     0.6456410
  C       -0.4584780     1.4603760     0.5782350
  C        0.8654354     0.8980507     0.0940483
  C        2.1918860    -1.1187650    -0.3259700
  H       -2.6699130    -0.2765890     0.8297550
  H       -3.0608600    -0.3791320    -0.8796750
  H       -1.8321650    -2.3606500    -0.1255340
  H       -0.8887130    -1.5005570    -1.3409750
  H       -2.3834680     1.8827830    -0.2893500
  H       -1.2246060     1.2090190    -1.4238390
  H       -0.4244360    -1.0900460     1.6492300
  H        0.3620160    -2.3701320     0.7449650
  H       -0.7218730     1.1400510     1.5944380
  H       -0.2910430     2.5394790     0.6064930
  H        1.9486170    -1.7578730    -1.1825500
  H        2.6762910    -1.7288140     0.4434650
  H        2.8674440    -0.3269360    -0.6441440
units angstrom
no_reorient  #important for SAPT in psi4, default
symmetry c1  #important for SAPT in psi4, default
}

set PROPERTIES_ORIGIN ["COM"]
properties('MP2/aug-cc-pvtz', properties = ['dipole'])
--------------------------------------------------------------------------

    Molecular point group: c1
  Charge       = 0
  Multiplicity = 1
  Basis Set: AUG-CC-PVTZ
    Blend: AUG-CC-PVTZ
  Basis Set: (AUG-CC-PVTZ AUX)
    Blend: AUG-CC-PVTZ-JKFIT

    Orbital Energies [Eh]
    ---------------------

    Doubly Occupied:

       1A    -20.513142     2A    -15.574603     3A    -11.340917
       4A    -11.269408     5A    -11.247762     6A    -11.234359
       7A    -11.233406     8A    -11.231679     9A    -11.230756
      10A     -1.378911    11A     -1.235781    12A     -1.096590
      13A     -1.037155    14A     -0.972588    15A     -0.906666
      16A     -0.876870    17A     -0.790980    18A     -0.722667
      19A     -0.692802    20A     -0.668432    21A     -0.631758
      22A     -0.606933    23A     -0.605513    24A     -0.593048
      25A     -0.584301    26A     -0.557800    27A     -0.547531
      28A     -0.526020    29A     -0.511740    30A     -0.509417
      31A     -0.478744    32A     -0.469350    33A     -0.464322
      34A     -0.410611    35A     -0.362689

  @DF-RHF Final Energy:  -402.11121283430316

   => Energetics <=

    Nuclear Repulsion Energy =            486.2889297203030878
    One-Electron Energy =               -1510.5697773180575041
    Two-Electron Energy =                 622.1696347634513131
    Total Energy =                       -402.1112128343031600
  Basis Set: (AUG-CC-PVTZ AUX)
    Blend: AUG-CC-PVTZ-RI
    Molecular point group: c1

    Geometry (in Angstrom), charge = 0, multiplicity = 1:

       Center              X                  Y                   Z               Mass
    ------------   -----------------  -----------------  -----------------  -----------------
         O            1.730479592675     1.558841092849    -0.286894808509    15.994914619570
         N            0.947153592675    -0.533477907151     0.210073191491    14.003074004430
         C           -2.272180407325    -0.292494907151    -0.172289808509    12.000000000000
         C           -1.316533407325    -1.476580907151    -0.311059808509    12.000000000000
         C           -1.642425407325     1.082790092849    -0.391374808509    12.000000000000
         C           -0.127631407325    -1.417419907151     0.649868191491    12.000000000000
         C           -0.501978407325     1.418911092849     0.582462191491    12.000000000000
         C            0.821934992675     0.856585792849     0.098275491491    12.000000000000
         C            2.148385592675    -1.160229907151    -0.321742808509    12.000000000000
         H           -2.713413407325    -0.318053907151     0.833982191491     1.007825032230
         H           -3.104360407325    -0.420596907151    -0.875447808509     1.007825032230
         H           -1.875665407325    -2.402114907151    -0.121306808509     1.007825032230
         H           -0.932213407325    -1.542021907151    -1.336747808509     1.007825032230
         H           -2.426968407325     1.841318092849    -0.285122808509     1.007825032230
         H           -1.268106407325     1.167554092849    -1.419611808509     1.007825032230
         H           -0.467936407325    -1.131510907151     1.653457191491     1.007825032230
         H            0.318515592675    -2.411596907151     0.749192191491     1.007825032230
         H           -0.765373407325     1.098586092849     1.598665191491     1.007825032230
         H           -0.334543407325     2.498014092849     0.610720191491     1.007825032230
         H            1.905116592675    -1.799337907151    -1.178322808509     1.007825032230
         H            2.632790592675    -1.770278907151     0.447692191491     1.007825032230
         H            2.823943592675    -0.368400907151    -0.639916808509     1.007825032230

  Basis Set: AUG-CC-PVTZ
    Blend: AUG-CC-PVTZ
  Basis Set: (AUG-CC-PVTZ AUX)
    Blend: AUG-CC-PVTZ-JKFIT
	 Reference Energy          =    -402.1112128343031600 [Eh]
	 Singles Energy            =      -0.0000000000000000 [Eh]
	 Same-Spin Energy          =      -0.4214237850345202 [Eh]
	 Opposite-Spin Energy      =      -1.4045193279740520 [Eh]
	 Correlation Energy        =      -1.8259431130085721 [Eh]
	 Total Energy              =    -403.9371559473117372 [Eh]

	 ================> DF-SCS-MP2 Energies <==================
	-----------------------------------------------------------
	 SCS Same-Spin Scale       =       0.3333333333333333 [-]
	 SCS Opposite-Spin Scale   =       1.2000000000000000 [-]
	 SCS Same-Spin Energy      =      -0.1404745950115067 [Eh]
	 SCS Opposite-Spin Energy  =      -1.6854231935688624 [Eh]
	 SCS Correlation Energy    =      -1.8258977885803691 [Eh]
	 SCS Total Energy          =    -403.9371106228835515 [Eh]
	-----------------------------------------------------------

  Dipole Moment: [D]
     X:    -2.5092      Y:    -2.8252      Z:     0.7337     Total:     3.8491

*** Psi4 exiting successfully. Buy a developer a beer!
