                               Psi4 1.3.2 release

  ==> Input File <==

--------------------------------------------------------------------------
#psi4
#
memory 32 gb

molecule  {
0 1
  O        1.7739800     1.6003060    -0.2911220
  N        0.9906540    -0.4920130     0.2058460
  C       -2.2286800    -0.2510300    -0.1765170
  C       -1.2730330    -1.4351160    -0.3152870
  C       -1.5989250     1.1242550    -0.3956020
  C       -0.0841310    -1.3759550     0.6456410
  C       -0.4584780     1.4603760     0.5782350
  C        0.8707430     0.8730760     0.1404640
  C        2.1918860    -1.1187650    -0.3259700
  H       -2.6699130    -0.2765890     0.8297550
  H       -3.0608600    -0.3791320    -0.8796750
  H       -1.8321650    -2.3606500    -0.1255340
  H       -0.8887130    -1.5005570    -1.3409750
  H       -2.3834680     1.8827830    -0.2893500
  H       -1.2246060     1.2090190    -1.4238390
  H       -0.4244360    -1.0900460     1.6492300
  H        0.3620160    -2.3701320     0.7449650
  H       -0.7458711     1.1108660     1.6870249
  H       -0.2910430     2.5394790     0.6064930
  H        1.9486170    -1.7578730    -1.1825500
  H        2.6762910    -1.7288140     0.4434650
  H        2.8674440    -0.3269360    -0.6441440
units angstrom
no_reorient  #important for SAPT in psi4, default
symmetry c1  #important for SAPT in psi4, default
}

set PROPERTIES_ORIGIN ["COM"]
properties('MP2/aug-cc-pvtz', properties = ['dipole'])
--------------------------------------------------------------------------

    Molecular point group: c1
  Charge       = 0
  Multiplicity = 1
  Basis Set: AUG-CC-PVTZ
    Blend: AUG-CC-PVTZ
  Basis Set: (AUG-CC-PVTZ AUX)
    Blend: AUG-CC-PVTZ-JKFIT

    Orbital Energies [Eh]
    ---------------------

    Doubly Occupied:

       1A    -20.506662     2A    -15.580854     3A    -11.341108
       4A    -11.271811     5A    -11.250758     6A    -11.245303
       7A    -11.235743     8A    -11.233379     9A    -11.231617
      10A     -1.362626    11A     -1.241383    12A     -1.096817
      13A     -1.036129    14A     -0.975053    15A     -0.912868
      16A     -0.876978    17A     -0.791249    18A     -0.724486
      19A     -0.686334    20A     -0.668492    21A     -0.633336
      22A     -0.607323    23A     -0.599031    24A     -0.593145
      25A     -0.583744    26A     -0.555775    27A     -0.545077
      28A     -0.527481    29A     -0.509908    30A     -0.503165
      31A     -0.479253    32A     -0.468197    33A     -0.463900
      34A     -0.407644    35A     -0.365331

  @DF-RHF Final Energy:  -402.10531800220076

   => Energetics <=

    Nuclear Repulsion Energy =            485.8435452617442252
    One-Electron Energy =               -1509.6738078906330429
    Two-Electron Energy =                 621.7249446266880568
    Total Energy =                       -402.1053180022007609
  Basis Set: (AUG-CC-PVTZ AUX)
    Blend: AUG-CC-PVTZ-RI
    Molecular point group: c1

    Geometry (in Angstrom), charge = 0, multiplicity = 1:

       Center              X                  Y                   Z               Mass
    ------------   -----------------  -----------------  -----------------  -----------------
         O            1.730168771251     1.561430475335    -0.292011262156    15.994914619570
         N            0.946842771251    -0.530888524665     0.204956737844    14.003074004430
         C           -2.272491228749    -0.289905524665    -0.177406262156    12.000000000000
         C           -1.316844228749    -1.473991524665    -0.316176262156    12.000000000000
         C           -1.642736228749     1.085379475335    -0.396491262156    12.000000000000
         C           -0.127942228749    -1.414830524665     0.644751737844    12.000000000000
         C           -0.502289228749     1.421500475335     0.577345737844    12.000000000000
         C            0.826931771251     0.834200475335     0.139574737844    12.000000000000
         C            2.148074771251    -1.157640524665    -0.326859262156    12.000000000000
         H           -2.713724228749    -0.315464524665     0.828865737844     1.007825032230
         H           -3.104671228749    -0.418007524665    -0.880564262156     1.007825032230
         H           -1.875976228749    -2.399525524665    -0.126423262156     1.007825032230
         H           -0.932524228749    -1.539432524665    -1.341864262156     1.007825032230
         H           -2.427279228749     1.843907475335    -0.290239262156     1.007825032230
         H           -1.268417228749     1.170143475335    -1.424728262156     1.007825032230
         H           -0.468247228749    -1.128921524665     1.648340737844     1.007825032230
         H            0.318204771251    -2.409007524665     0.744075737844     1.007825032230
         H           -0.789682328749     1.071990475335     1.686135637844     1.007825032230
         H           -0.334854228749     2.500603475335     0.605603737844     1.007825032230
         H            1.904805771251    -1.796748524665    -1.183439262156     1.007825032230
         H            2.632479771251    -1.767689524665     0.442575737844     1.007825032230
         H            2.823632771251    -0.365811524665    -0.645033262156     1.007825032230

  Basis Set: AUG-CC-PVTZ
    Blend: AUG-CC-PVTZ
  Basis Set: (AUG-CC-PVTZ AUX)
    Blend: AUG-CC-PVTZ-JKFIT
	 Reference Energy          =    -402.1053180022007609 [Eh]
	 Singles Energy            =      -0.0000000000000000 [Eh]
	 Same-Spin Energy          =      -0.4219614016545805 [Eh]
	 Opposite-Spin Energy      =      -1.4060942849447142 [Eh]
	 Correlation Energy        =      -1.8280556865992947 [Eh]
	 Total Energy              =    -403.9333736888000317 [Eh]

	 ================> DF-SCS-MP2 Energies <==================
	-----------------------------------------------------------
	 SCS Same-Spin Scale       =       0.3333333333333333 [-]
	 SCS Opposite-Spin Scale   =       1.2000000000000000 [-]
	 SCS Same-Spin Energy      =      -0.1406538005515268 [Eh]
	 SCS Opposite-Spin Energy  =      -1.6873131419336571 [Eh]
	 SCS Correlation Energy    =      -1.8279669424851839 [Eh]
	 SCS Total Energy          =    -403.9332849446859655 [Eh]
	-----------------------------------------------------------

  Dipole Moment: [D]
     X:    -2.5637      Y:    -3.1008      Z:     0.7327     Total:     4.0895

*** Psi4 exiting successfully. Buy a developer a beer!
