                               Psi4 1.3.2 release

  ==> Input File <==

--------------------------------------------------------------------------
#psi4
#
memory 32 gb

molecule  {
0 1
  O        1.7739800     1.6003060    -0.2911220
  N        0.9906540    -0.4920130     0.2058460
  C       -2.2286800    -0.2510300    -0.1765170
  C       -1.2730330    -1.4351160    -0.3152870
  C       -1.5989250     1.1242550    -0.3956020
  C       -0.0841310    -1.3759550     0.6456410
  C       -0.4584780     1.4603760     0.5782350
  C        0.8707430     0.8730760     0.1404640
  C        2.1918860    -1.1187650    -0.3259700
  H       -2.5632925    -0.2616980     0.8703086
  H       -3.0608600    -0.3791320    -0.8796750
  H       -1.8321650    -2.3606500    -0.1255340
  H       -0.8887130    -1.5005570    -1.3409750
  H       -2.3834680     1.8827830    -0.2893500
  H       -1.2246060     1.2090190    -1.4238390
  H       -0.4244360    -1.0900460     1.6492300
  H        0.3620160    -2.3701320     0.7449650
  H       -0.7218730     1.1400510     1.5944380
  H       -0.2910430     2.5394790     0.6064930
  H        1.9486170    -1.7578730    -1.1825500
  H        2.6762910    -1.7288140     0.4434650
  H        2.8674440    -0.3269360    -0.6441440
units angstrom
no_reorient  #important for SAPT in psi4, default
symmetry c1  #important for SAPT in psi4, default
}

set PROPERTIES_ORIGIN ["COM"]
properties('MP2/aug-cc-pvtz', properties = ['dipole'])
--------------------------------------------------------------------------

    Molecular point group: c1
  Charge       = 0
  Multiplicity = 1
  Basis Set: AUG-CC-PVTZ
    Blend: AUG-CC-PVTZ
  Basis Set: (AUG-CC-PVTZ AUX)
    Blend: AUG-CC-PVTZ-JKFIT

    Orbital Energies [Eh]
    ---------------------

    Doubly Occupied:

       1A    -20.505794     2A    -15.580688     3A    -11.340060
       4A    -11.272488     5A    -11.250638     6A    -11.234275
       7A    -11.233663     8A    -11.232903     9A    -11.231899
      10A     -1.361937    11A     -1.241327    12A     -1.098500
      13A     -1.038314    14A     -0.975586    15A     -0.913717
      16A     -0.878214    17A     -0.791394    18A     -0.725559
      19A     -0.691665    20A     -0.668727    21A     -0.634546
      22A     -0.609685    23A     -0.601379    24A     -0.594742
      25A     -0.583406    26A     -0.557971    27A     -0.544519
      28A     -0.527097    29A     -0.511073    30A     -0.509671
      31A     -0.476788    32A     -0.467546    33A     -0.465307
      34A     -0.407545    35A     -0.365221

  @DF-RHF Final Energy:  -402.11059730758677

   => Energetics <=

    Nuclear Repulsion Energy =            486.5232136477058589
    One-Electron Energy =               -1511.0199363968681610
    Two-Electron Energy =                 622.3861254415754729
    Total Energy =                       -402.1105973075867723
  Basis Set: (AUG-CC-PVTZ AUX)
    Blend: AUG-CC-PVTZ-RI
    Molecular point group: c1

    Geometry (in Angstrom), charge = 0, multiplicity = 1:

       Center              X                  Y                   Z               Mass
    ------------   -----------------  -----------------  -----------------  -----------------
         O            1.729133043549     1.561080978907    -0.291598669078    15.994914619570
         N            0.945807043549    -0.531238021093     0.205369330922    14.003074004430
         C           -2.273526956451    -0.290255021093    -0.176993669078    12.000000000000
         C           -1.317879956451    -1.474341021093    -0.315763669078    12.000000000000
         C           -1.643771956451     1.085029978907    -0.396078669078    12.000000000000
         C           -0.128977956451    -1.415180021093     0.645164330922    12.000000000000
         C           -0.503324956451     1.421150978907     0.577758330922    12.000000000000
         C            0.825896043549     0.833850978907     0.139987330922    12.000000000000
         C            2.147039043549    -1.157990021093    -0.326446669078    12.000000000000
         H           -2.608139456451    -0.300923021093     0.869831930922     1.007825032230
         H           -3.105706956451    -0.418357021093    -0.880151669078     1.007825032230
         H           -1.877011956451    -2.399875021093    -0.126010669078     1.007825032230
         H           -0.933559956451    -1.539782021093    -1.341451669078     1.007825032230
         H           -2.428314956451     1.843557978907    -0.289826669078     1.007825032230
         H           -1.269452956451     1.169793978907    -1.424315669078     1.007825032230
         H           -0.469282956451    -1.129271021093     1.648753330922     1.007825032230
         H            0.317169043549    -2.409357021093     0.744488330922     1.007825032230
         H           -0.766719956451     1.100825978907     1.593961330922     1.007825032230
         H           -0.335889956451     2.500253978907     0.606016330922     1.007825032230
         H            1.903770043549    -1.797098021093    -1.183026669078     1.007825032230
         H            2.631444043549    -1.768039021093     0.442988330922     1.007825032230
         H            2.822597043549    -0.366161021093    -0.644620669078     1.007825032230

  Basis Set: AUG-CC-PVTZ
    Blend: AUG-CC-PVTZ
  Basis Set: (AUG-CC-PVTZ AUX)
    Blend: AUG-CC-PVTZ-JKFIT
	 Reference Energy          =    -402.1105973075867723 [Eh]
	 Singles Energy            =      -0.0000000000000000 [Eh]
	 Same-Spin Energy          =      -0.4219562374692303 [Eh]
	 Opposite-Spin Energy      =      -1.4055080168940983 [Eh]
	 Correlation Energy        =      -1.8274642543633286 [Eh]
	 Total Energy              =    -403.9380615619501214 [Eh]

	 ================> DF-SCS-MP2 Energies <==================
	-----------------------------------------------------------
	 SCS Same-Spin Scale       =       0.3333333333333333 [-]
	 SCS Opposite-Spin Scale   =       1.2000000000000000 [-]
	 SCS Same-Spin Energy      =      -0.1406520791564101 [Eh]
	 SCS Opposite-Spin Energy  =      -1.6866096202729179 [Eh]
	 SCS Correlation Energy    =      -1.8272616994293280 [Eh]
	 SCS Total Energy          =    -403.9378590070160726 [Eh]
	-----------------------------------------------------------

  Dipole Moment: [D]
     X:    -2.5477      Y:    -3.0990      Z:     0.7840     Total:     4.0877

*** Psi4 exiting successfully. Buy a developer a beer!
