                               Psi4 1.3.2 release

  ==> Input File <==

--------------------------------------------------------------------------
#psi4
#
memory 32 gb

molecule  {
0 1
  O        1.7739800     1.6003060    -0.2911220
  N        0.9906540    -0.4920130     0.2058460
  C       -2.2438770    -0.2613285    -0.1958594
  C       -1.2730330    -1.4351160    -0.3152870
  C       -1.5989250     1.1242550    -0.3956020
  C       -0.0841310    -1.3759550     0.6456410
  C       -0.4584780     1.4603760     0.5782350
  C        0.8707430     0.8730760     0.1404640
  C        2.1918860    -1.1187650    -0.3259700
  H       -2.6699130    -0.2765890     0.8297550
  H       -3.0608600    -0.3791320    -0.8796750
  H       -1.8321650    -2.3606500    -0.1255340
  H       -0.8887130    -1.5005570    -1.3409750
  H       -2.3834680     1.8827830    -0.2893500
  H       -1.2246060     1.2090190    -1.4238390
  H       -0.4244360    -1.0900460     1.6492300
  H        0.3620160    -2.3701320     0.7449650
  H       -0.7218730     1.1400510     1.5944380
  H       -0.2910430     2.5394790     0.6064930
  H        1.9486170    -1.7578730    -1.1825500
  H        2.6762910    -1.7288140     0.4434650
  H        2.8674440    -0.3269360    -0.6441440
units angstrom
no_reorient  #important for SAPT in psi4, default
symmetry c1  #important for SAPT in psi4, default
}

set PROPERTIES_ORIGIN ["COM"]
properties('MP2/aug-cc-pvtz', properties = ['dipole'])
--------------------------------------------------------------------------

    Molecular point group: c1
  Charge       = 0
  Multiplicity = 1
  Basis Set: AUG-CC-PVTZ
    Blend: AUG-CC-PVTZ
  Basis Set: (AUG-CC-PVTZ AUX)
    Blend: AUG-CC-PVTZ-JKFIT

    Orbital Energies [Eh]
    ---------------------

    Doubly Occupied:

       1A    -20.505760     2A    -15.580610     3A    -11.339972
       4A    -11.272739     5A    -11.250620     6A    -11.234976
       7A    -11.233897     8A    -11.233278     9A    -11.231141
      10A     -1.361884    11A     -1.241203    12A     -1.096017
      13A     -1.038029    14A     -0.975643    15A     -0.914552
      16A     -0.877646    17A     -0.792735    18A     -0.725503
      19A     -0.690733    20A     -0.668960    21A     -0.632917
      22A     -0.609769    23A     -0.601156    24A     -0.594023
      25A     -0.582825    26A     -0.558259    27A     -0.544890
      28A     -0.526819    29A     -0.511134    30A     -0.509437
      31A     -0.475684    32A     -0.470940    33A     -0.463416
      34A     -0.407554    35A     -0.365283

  @DF-RHF Final Energy:  -402.11148652674683

   => Energetics <=

    Nuclear Repulsion Energy =            485.9927440805040533
    One-Electron Energy =               -1509.9684533661836667
    Two-Electron Energy =                 621.8642227589327831
    Total Energy =                       -402.1114865267468304
  Basis Set: (AUG-CC-PVTZ AUX)
    Blend: AUG-CC-PVTZ-RI
    Molecular point group: c1

    Geometry (in Angstrom), charge = 0, multiplicity = 1:

       Center              X                  Y                   Z               Mass
    ------------   -----------------  -----------------  -----------------  -----------------
         O            1.731413291077     1.562171378862    -0.289450908673    15.994914619570
         N            0.948087291077    -0.530147621138     0.207517091327    14.003074004430
         C           -2.286443708923    -0.299463121138    -0.194188308673    12.000000000000
         C           -1.315599708923    -1.473250621138    -0.313615908673    12.000000000000
         C           -1.641491708923     1.086120378862    -0.393930908673    12.000000000000
         C           -0.126697708923    -1.414089621138     0.647312091327    12.000000000000
         C           -0.501044708923     1.422241378862     0.579906091327    12.000000000000
         C            0.828176291077     0.834941378862     0.142135091327    12.000000000000
         C            2.149319291077    -1.156899621138    -0.324298908673    12.000000000000
         H           -2.712479708923    -0.314723621138     0.831426091327     1.007825032230
         H           -3.103426708923    -0.417266621138    -0.878003908673     1.007825032230
         H           -1.874731708923    -2.398784621138    -0.123862908673     1.007825032230
         H           -0.931279708923    -1.538691621138    -1.339303908673     1.007825032230
         H           -2.426034708923     1.844648378862    -0.287678908673     1.007825032230
         H           -1.267172708923     1.170884378862    -1.422167908673     1.007825032230
         H           -0.467002708923    -1.128180621138     1.650901091327     1.007825032230
         H            0.319449291077    -2.408266621138     0.746636091327     1.007825032230
         H           -0.764439708923     1.101916378862     1.596109091327     1.007825032230
         H           -0.333609708923     2.501344378862     0.608164091327     1.007825032230
         H            1.906050291077    -1.796007621138    -1.180878908673     1.007825032230
         H            2.633724291077    -1.766948621138     0.445136091327     1.007825032230
         H            2.824877291077    -0.365070621138    -0.642472908673     1.007825032230

  Basis Set: AUG-CC-PVTZ
    Blend: AUG-CC-PVTZ
  Basis Set: (AUG-CC-PVTZ AUX)
    Blend: AUG-CC-PVTZ-JKFIT
	 Reference Energy          =    -402.1114865267468304 [Eh]
	 Singles Energy            =      -0.0000000000000000 [Eh]
	 Same-Spin Energy          =      -0.4216869558715227 [Eh]
	 Opposite-Spin Energy      =      -1.4051307695396149 [Eh]
	 Correlation Energy        =      -1.8268177254111375 [Eh]
	 Total Energy              =    -403.9383042521579910 [Eh]

	 ================> DF-SCS-MP2 Energies <==================
	-----------------------------------------------------------
	 SCS Same-Spin Scale       =       0.3333333333333333 [-]
	 SCS Opposite-Spin Scale   =       1.2000000000000000 [-]
	 SCS Same-Spin Energy      =      -0.1405623186238409 [Eh]
	 SCS Opposite-Spin Energy  =      -1.6861569234475378 [Eh]
	 SCS Correlation Energy    =      -1.8267192420713787 [Eh]
	 SCS Total Energy          =    -403.9382057688181931 [Eh]
	-----------------------------------------------------------

  Dipole Moment: [D]
     X:    -2.5800      Y:    -3.1056      Z:     0.7851     Total:     4.1131

*** Psi4 exiting successfully. Buy a developer a beer!
