                               Psi4 1.4a3.dev225

  ==> Input File <==

--------------------------------------------------------------------------
#psi4
#
memory 32 gb

molecule  {
0 1
  O        1.7739800     1.6003060    -0.2911220
  N        0.9906540    -0.4920130     0.2058460
  C       -2.2286800    -0.2510300    -0.1765170
  C       -1.2730330    -1.4351160    -0.3152870
  C       -1.5989250     1.1242550    -0.3956020
  C       -0.0841310    -1.3759550     0.6456410
  C       -0.4584780     1.4603760     0.5782350
  C        0.8707430     0.8730760     0.1404640
  C        2.1753804    -1.1101531    -0.3186625
  H       -2.6699130    -0.2765890     0.8297550
  H       -3.0608600    -0.3791320    -0.8796750
  H       -1.8321650    -2.3606500    -0.1255340
  H       -0.8887130    -1.5005570    -1.3409750
  H       -2.3834680     1.8827830    -0.2893500
  H       -1.2246060     1.2090190    -1.4238390
  H       -0.4244360    -1.0900460     1.6492300
  H        0.3620160    -2.3701320     0.7449650
  H       -0.7218730     1.1400510     1.5944380
  H       -0.2910430     2.5394790     0.6064930
  H        1.9486170    -1.7578730    -1.1825500
  H        2.6762910    -1.7288140     0.4434650
  H        2.8674440    -0.3269360    -0.6441440
units angstrom
no_reorient  #important for SAPT in psi4, default
symmetry c1  #important for SAPT in psi4, default
}

set PROPERTIES_ORIGIN ["COM"]
properties('MP2/aug-cc-pvtz', properties = ['dipole'])
--------------------------------------------------------------------------

    Molecular point group: c1
  Charge       = 0
  Multiplicity = 1
  Basis Set: AUG-CC-PVTZ
    Blend: AUG-CC-PVTZ
  Basis Set: (AUG-CC-PVTZ AUX)
    Blend: AUG-CC-PVTZ-JKFIT

    Orbital Energies [Eh]
    ---------------------

    Doubly Occupied:

       1A    -20.506441     2A    -15.581039     3A    -11.340600
       4A    -11.272705     5A    -11.250384     6A    -11.235008
       7A    -11.233937     8A    -11.233765     9A    -11.231804
      10A     -1.363049    11A     -1.244964    12A     -1.098486
      13A     -1.038678    14A     -0.976317    15A     -0.913694
      16A     -0.878234    17A     -0.792996    18A     -0.727185
      19A     -0.691472    20A     -0.669969    21A     -0.634198
      22A     -0.610069    23A     -0.602180    24A     -0.594503
      25A     -0.583538    26A     -0.556391    27A     -0.545635
      28A     -0.524717    29A     -0.510026    30A     -0.508276
      31A     -0.479724    32A     -0.467982    33A     -0.465609
      34A     -0.408222    35A     -0.364933

  @DF-RHF Final Energy:  -402.11165032068254

   => Energetics <=

    Nuclear Repulsion Energy =            486.7235999525370289
    One-Electron Energy =               -1511.3970497824004724
    Two-Electron Energy =                 622.5617995091807870
    Total Energy =                       -402.1116503206825428
  Basis Set: (AUG-CC-PVTZ AUX)
    Blend: AUG-CC-PVTZ-RI
    Molecular point group: c1

    Geometry (in Angstrom), charge = 0, multiplicity = 1:

       Center              X                  Y                   Z               Mass
    ------------   -----------------  -----------------  -----------------  -----------------
         O            1.731536841316     1.560385971226    -0.291967033925    15.994914619570
         N            0.948210841316    -0.531933028774     0.205000966075    14.003074004430
         C           -2.271123158684    -0.290950028774    -0.177362033925    12.000000000000
         C           -1.315476158684    -1.475036028774    -0.316132033925    12.000000000000
         C           -1.641368158684     1.084334971226    -0.396447033925    12.000000000000
         C           -0.126574158684    -1.415875028774     0.644795966075    12.000000000000
         C           -0.500921158684     1.420455971226     0.577389966075    12.000000000000
         C            0.828299841316     0.833155971226     0.139618966075    12.000000000000
         C            2.132937241316    -1.150073128774    -0.319507533925    12.000000000000
         H           -2.712356158684    -0.316509028774     0.828909966075     1.007825032230
         H           -3.103303158684    -0.419052028774    -0.880520033925     1.007825032230
         H           -1.874608158684    -2.400570028774    -0.126379033925     1.007825032230
         H           -0.931156158684    -1.540477028774    -1.341820033925     1.007825032230
         H           -2.425911158684     1.842862971226    -0.290195033925     1.007825032230
         H           -1.267049158684     1.169098971226    -1.424684033925     1.007825032230
         H           -0.466879158684    -1.129966028774     1.648384966075     1.007825032230
         H            0.319572841316    -2.410052028774     0.744119966075     1.007825032230
         H           -0.764316158684     1.100130971226     1.593592966075     1.007825032230
         H           -0.333486158684     2.499558971226     0.605647966075     1.007825032230
         H            1.906173841316    -1.797793028774    -1.183395033925     1.007825032230
         H            2.633847841316    -1.768734028774     0.442619966075     1.007825032230
         H            2.825000841316    -0.366856028774    -0.644989033925     1.007825032230

  Basis Set: AUG-CC-PVTZ
    Blend: AUG-CC-PVTZ
  Basis Set: (AUG-CC-PVTZ AUX)
    Blend: AUG-CC-PVTZ-JKFIT
	 Reference Energy          =    -402.1116503206825428 [Eh]
	 Singles Energy            =      -0.0000000000000000 [Eh]
	 Same-Spin Energy          =      -0.4219180489162669 [Eh]
	 Opposite-Spin Energy      =      -1.4052403434689058 [Eh]
	 Correlation Energy        =      -1.8271583923851726 [Eh]
	 Total Energy              =    -403.9388087130677150 [Eh]

	 ================> DF-SCS-MP2 Energies <==================
	-----------------------------------------------------------
	 SCS Same-Spin Scale       =       0.3333333333333333 [-]
	 SCS Opposite-Spin Scale   =       1.2000000000000000 [-]
	 SCS Same-Spin Energy      =      -0.1406393496387556 [Eh]
	 SCS Opposite-Spin Energy  =      -1.6862884121626869 [Eh]
	 SCS Correlation Energy    =      -1.8269277618014426 [Eh]
	 SCS Total Energy          =    -403.9385780824839571 [Eh]
	-----------------------------------------------------------

  Dipole Moment: [D]
     X:    -2.6217      Y:    -3.0656      Z:     0.8070     Total:     4.1137

*** Psi4 exiting successfully. Buy a developer a beer!
