                               Psi4 1.3.2 release

  ==> Input File <==

--------------------------------------------------------------------------
#psi4
#
memory 32 gb

molecule  {
0 1
  O        1.7739800     1.6003060    -0.2911220
  N        0.9820499    -0.4431549     0.2948162
  C       -2.2286800    -0.2510300    -0.1765170
  C       -1.2730330    -1.4351160    -0.3152870
  C       -1.5989250     1.1242550    -0.3956020
  C       -0.0841310    -1.3759550     0.6456410
  C       -0.4584780     1.4603760     0.5782350
  C        0.8707430     0.8730760     0.1404640
  C        2.1918860    -1.1187650    -0.3259700
  H       -2.6699130    -0.2765890     0.8297550
  H       -3.0608600    -0.3791320    -0.8796750
  H       -1.8321650    -2.3606500    -0.1255340
  H       -0.8887130    -1.5005570    -1.3409750
  H       -2.3834680     1.8827830    -0.2893500
  H       -1.2246060     1.2090190    -1.4238390
  H       -0.4244360    -1.0900460     1.6492300
  H        0.3620160    -2.3701320     0.7449650
  H       -0.7218730     1.1400510     1.5944380
  H       -0.2910430     2.5394790     0.6064930
  H        1.9486170    -1.7578730    -1.1825500
  H        2.6762910    -1.7288140     0.4434650
  H        2.8674440    -0.3269360    -0.6441440
units angstrom
no_reorient  #important for SAPT in psi4, default
symmetry c1  #important for SAPT in psi4, default
}

set PROPERTIES_ORIGIN ["COM"]
properties('MP2/aug-cc-pvtz', properties = ['dipole'])
--------------------------------------------------------------------------

    Molecular point group: c1
  Charge       = 0
  Multiplicity = 1
  Basis Set: AUG-CC-PVTZ
    Blend: AUG-CC-PVTZ
  Basis Set: (AUG-CC-PVTZ AUX)
    Blend: AUG-CC-PVTZ-JKFIT

    Orbital Energies [Eh]
    ---------------------

    Doubly Occupied:

       1A    -20.500225     2A    -15.584799     3A    -11.333580
       4A    -11.274156     5A    -11.257026     6A    -11.235728
       7A    -11.233380     8A    -11.231613     9A    -11.229450
      10A     -1.361189    11A     -1.241516    12A     -1.095852
      13A     -1.040192    14A     -0.971005    15A     -0.922544
      16A     -0.879656    17A     -0.793511    18A     -0.721056
      19A     -0.688987    20A     -0.668886    21A     -0.633179
      22A     -0.608197    23A     -0.601613    24A     -0.592465
      25A     -0.583553    26A     -0.558093    27A     -0.536429
      28A     -0.535073    29A     -0.512871    30A     -0.502288
      31A     -0.479023    32A     -0.465798    33A     -0.465104
      34A     -0.403509    35A     -0.371595

  @DF-RHF Final Energy:  -402.10687882150910

   => Energetics <=

    Nuclear Repulsion Energy =            486.3414512048748861
    One-Electron Energy =               -1510.6703732092150858
    Two-Electron Energy =                 622.2220431828311575
    Total Energy =                       -402.1068788215090990
  Basis Set: (AUG-CC-PVTZ AUX)
    Blend: AUG-CC-PVTZ-RI
    Molecular point group: c1

    Geometry (in Angstrom), charge = 0, multiplicity = 1:

       Center              X                  Y                   Z               Mass
    ------------   -----------------  -----------------  -----------------  -----------------
         O            1.730926428055     1.555816167160    -0.301079299075    15.994914619570
         N            0.938996328055    -0.487644732840     0.284858900925    14.003074004430
         C           -2.271733571945    -0.295519832840    -0.186474299075    12.000000000000
         C           -1.316086571945    -1.479605832840    -0.325244299075    12.000000000000
         C           -1.641978571945     1.079765167160    -0.405559299075    12.000000000000
         C           -0.127184571945    -1.420444832840     0.635683700925    12.000000000000
         C           -0.501531571945     1.415886167160     0.568277700925    12.000000000000
         C            0.827689428055     0.828586167160     0.130506700925    12.000000000000
         C            2.148832428055    -1.163254832840    -0.335927299075    12.000000000000
         H           -2.712966571945    -0.321078832840     0.819797700925     1.007825032230
         H           -3.103913571945    -0.423621832840    -0.889632299075     1.007825032230
         H           -1.875218571945    -2.405139832840    -0.135491299075     1.007825032230
         H           -0.931766571945    -1.545046832840    -1.350932299075     1.007825032230
         H           -2.426521571945     1.838293167160    -0.299307299075     1.007825032230
         H           -1.267659571945     1.164529167160    -1.433796299075     1.007825032230
         H           -0.467489571945    -1.134535832840     1.639272700925     1.007825032230
         H            0.318962428055    -2.414621832840     0.735007700925     1.007825032230
         H           -0.764926571945     1.095561167160     1.584480700925     1.007825032230
         H           -0.334096571945     2.494989167160     0.596535700925     1.007825032230
         H            1.905563428055    -1.802362832840    -1.192507299075     1.007825032230
         H            2.633237428055    -1.773303832840     0.433507700925     1.007825032230
         H            2.824390428055    -0.371425832840    -0.654101299075     1.007825032230

  Basis Set: AUG-CC-PVTZ
    Blend: AUG-CC-PVTZ
  Basis Set: (AUG-CC-PVTZ AUX)
    Blend: AUG-CC-PVTZ-JKFIT
	 Reference Energy          =    -402.1068788215090990 [Eh]
	 Singles Energy            =      -0.0000000000000000 [Eh]
	 Same-Spin Energy          =      -0.4215791004284089 [Eh]
	 Opposite-Spin Energy      =      -1.4053159275385809 [Eh]
	 Correlation Energy        =      -1.8268950279669898 [Eh]
	 Total Energy              =    -403.9337738494760970 [Eh]

	 ================> DF-SCS-MP2 Energies <==================
	-----------------------------------------------------------
	 SCS Same-Spin Scale       =       0.3333333333333333 [-]
	 SCS Opposite-Spin Scale   =       1.2000000000000000 [-]
	 SCS Same-Spin Energy      =      -0.1405263668094696 [Eh]
	 SCS Opposite-Spin Energy  =      -1.6863791130462971 [Eh]
	 SCS Correlation Energy    =      -1.8269054798557667 [Eh]
	 SCS Total Energy          =    -403.9337843013648808 [Eh]
	-----------------------------------------------------------

  Dipole Moment: [D]
     X:    -2.5591      Y:    -3.3660      Z:     0.6790     Total:     4.2826

*** Psi4 exiting successfully. Buy a developer a beer!
