                               Psi4 1.3.2 release

  ==> Input File <==

--------------------------------------------------------------------------
#psi4
#
memory 32 gb

molecule  {
0 1
  O        1.7739800     1.6003060    -0.2911220
  N        0.9906540    -0.4920130     0.2058460
  C       -2.2286800    -0.2510300    -0.1765170
  C       -1.2730330    -1.4351160    -0.3152870
  C       -1.5989250     1.1242550    -0.3956020
  C       -0.0841310    -1.3759550     0.6456410
  C       -0.4584780     1.4603760     0.5782350
  C        0.8707430     0.8730760     0.1404640
  C        2.1918860    -1.1187650    -0.3259700
  H       -2.7383777    -0.2863707     0.7965619
  H       -3.0608600    -0.3791320    -0.8796750
  H       -1.8321650    -2.3606500    -0.1255340
  H       -0.8887130    -1.5005570    -1.3409750
  H       -2.3834680     1.8827830    -0.2893500
  H       -1.2246060     1.2090190    -1.4238390
  H       -0.4244360    -1.0900460     1.6492300
  H        0.3620160    -2.3701320     0.7449650
  H       -0.7218730     1.1400510     1.5944380
  H       -0.2910430     2.5394790     0.6064930
  H        1.9486170    -1.7578730    -1.1825500
  H        2.6762910    -1.7288140     0.4434650
  H        2.8674440    -0.3269360    -0.6441440
units angstrom
no_reorient  #important for SAPT in psi4, default
symmetry c1  #important for SAPT in psi4, default
}

set PROPERTIES_ORIGIN ["COM"]
properties('MP2/aug-cc-pvtz', properties = ['dipole'])
--------------------------------------------------------------------------

    Molecular point group: c1
  Charge       = 0
  Multiplicity = 1
  Basis Set: AUG-CC-PVTZ
    Blend: AUG-CC-PVTZ
  Basis Set: (AUG-CC-PVTZ AUX)
    Blend: AUG-CC-PVTZ-JKFIT

    Orbital Energies [Eh]
    ---------------------

    Doubly Occupied:

       1A    -20.505665     2A    -15.580522     3A    -11.339867
       4A    -11.272059     5A    -11.250565     6A    -11.235029
       7A    -11.233777     8A    -11.233369     9A    -11.231214
      10A     -1.361803    11A     -1.241133    12A     -1.097065
      13A     -1.038068    14A     -0.975692    15A     -0.914096
      16A     -0.878158    17A     -0.793456    18A     -0.725159
      19A     -0.690052    20A     -0.669104    21A     -0.632554
      22A     -0.607908    23A     -0.602546    24A     -0.593215
      25A     -0.583013    26A     -0.558510    27A     -0.544424
      28A     -0.527121    29A     -0.509847    30A     -0.507885
      31A     -0.481591    32A     -0.466460    33A     -0.464630
      34A     -0.407408    35A     -0.365041

  @DF-RHF Final Energy:  -402.11153683872044

   => Energetics <=

    Nuclear Repulsion Energy =            486.1676125905786421
    One-Electron Energy =               -1510.3222870023746509
    Two-Electron Energy =                 622.0431375730754553
    Total Energy =                       -402.1115368387204398
  Basis Set: (AUG-CC-PVTZ AUX)
    Blend: AUG-CC-PVTZ-RI
    Molecular point group: c1

    Geometry (in Angstrom), charge = 0, multiplicity = 1:

       Center              X                  Y                   Z               Mass
    ------------   -----------------  -----------------  -----------------  -----------------
         O            1.730521364905     1.561276618723    -0.291013901670    15.994914619570
         N            0.947195364905    -0.531042381277     0.205954098330    14.003074004430
         C           -2.272138635095    -0.290059381277    -0.176408901670    12.000000000000
         C           -1.316491635095    -1.474145381277    -0.315178901670    12.000000000000
         C           -1.642383635095     1.085225618723    -0.395493901670    12.000000000000
         C           -0.127589635095    -1.414984381277     0.645749098330    12.000000000000
         C           -0.501936635095     1.421346618723     0.578343098330    12.000000000000
         C            0.827284364905     0.834046618723     0.140572098330    12.000000000000
         C            2.148427364905    -1.157794381277    -0.325861901670    12.000000000000
         H           -2.781836335095    -0.325400081277     0.796669998330     1.007825032230
         H           -3.104318635095    -0.418161381277    -0.879566901670     1.007825032230
         H           -1.875623635095    -2.399679381277    -0.125425901670     1.007825032230
         H           -0.932171635095    -1.539586381277    -1.340866901670     1.007825032230
         H           -2.426926635095     1.843753618723    -0.289241901670     1.007825032230
         H           -1.268064635095     1.169989618723    -1.423730901670     1.007825032230
         H           -0.467894635095    -1.129075381277     1.649338098330     1.007825032230
         H            0.318557364905    -2.409161381277     0.745073098330     1.007825032230
         H           -0.765331635095     1.101021618723     1.594546098330     1.007825032230
         H           -0.334501635095     2.500449618723     0.606601098330     1.007825032230
         H            1.905158364905    -1.796902381277    -1.182441901670     1.007825032230
         H            2.632832364905    -1.767843381277     0.443573098330     1.007825032230
         H            2.823985364905    -0.365965381277    -0.644035901670     1.007825032230

  Basis Set: AUG-CC-PVTZ
    Blend: AUG-CC-PVTZ
  Basis Set: (AUG-CC-PVTZ AUX)
    Blend: AUG-CC-PVTZ-JKFIT
	 Reference Energy          =    -402.1115368387204398 [Eh]
	 Singles Energy            =      -0.0000000000000000 [Eh]
	 Same-Spin Energy          =      -0.4217454863796314 [Eh]
	 Opposite-Spin Energy      =      -1.4051318991009267 [Eh]
	 Correlation Energy        =      -1.8268773854805582 [Eh]
	 Total Energy              =    -403.9384142242009830 [Eh]

	 ================> DF-SCS-MP2 Energies <==================
	-----------------------------------------------------------
	 SCS Same-Spin Scale       =       0.3333333333333333 [-]
	 SCS Opposite-Spin Scale   =       1.2000000000000000 [-]
	 SCS Same-Spin Energy      =      -0.1405818287932105 [Eh]
	 SCS Opposite-Spin Energy  =      -1.6861582789211120 [Eh]
	 SCS Correlation Energy    =      -1.8267401077143224 [Eh]
	 SCS Total Energy          =    -403.9382769464347689 [Eh]
	-----------------------------------------------------------

  Dipole Moment: [D]
     X:    -2.6024      Y:    -3.1072      Z:     0.7953     Total:     4.1303

*** Psi4 exiting successfully. Buy a developer a beer!
