                               Psi4 1.3.2 release

  ==> Input File <==

--------------------------------------------------------------------------
#psi4
#
memory 32 gb

molecule  {
0 1
  O        1.7739800     1.6003060    -0.2911220
  N        0.9906540    -0.4920130     0.2058460
  C       -2.2286800    -0.2510300    -0.1765170
  C       -1.2892538    -1.4280794    -0.2952802
  C       -1.5989250     1.1242550    -0.3956020
  C       -0.0841310    -1.3759550     0.6456410
  C       -0.4584780     1.4603760     0.5782350
  C        0.8707430     0.8730760     0.1404640
  C        2.1918860    -1.1187650    -0.3259700
  H       -2.6699130    -0.2765890     0.8297550
  H       -3.0608600    -0.3791320    -0.8796750
  H       -1.8321650    -2.3606500    -0.1255340
  H       -0.8887130    -1.5005570    -1.3409750
  H       -2.3834680     1.8827830    -0.2893500
  H       -1.2246060     1.2090190    -1.4238390
  H       -0.4244360    -1.0900460     1.6492300
  H        0.3620160    -2.3701320     0.7449650
  H       -0.7218730     1.1400510     1.5944380
  H       -0.2910430     2.5394790     0.6064930
  H        1.9486170    -1.7578730    -1.1825500
  H        2.6762910    -1.7288140     0.4434650
  H        2.8674440    -0.3269360    -0.6441440
units angstrom
no_reorient  #important for SAPT in psi4, default
symmetry c1  #important for SAPT in psi4, default
}

set PROPERTIES_ORIGIN ["COM"]
properties('MP2/aug-cc-pvtz', properties = ['dipole'])
--------------------------------------------------------------------------

    Molecular point group: c1
  Charge       = 0
  Multiplicity = 1
  Basis Set: AUG-CC-PVTZ
    Blend: AUG-CC-PVTZ
  Basis Set: (AUG-CC-PVTZ AUX)
    Blend: AUG-CC-PVTZ-JKFIT

    Orbital Energies [Eh]
    ---------------------

    Doubly Occupied:

       1A    -20.505850     2A    -15.580831     3A    -11.340077
       4A    -11.272400     5A    -11.250626     6A    -11.235025
       7A    -11.234359     8A    -11.233705     9A    -11.230970
      10A     -1.361964    11A     -1.241243    12A     -1.099332
      13A     -1.038686    14A     -0.976109    15A     -0.914577
      16A     -0.878351    17A     -0.791378    18A     -0.725152
      19A     -0.690971    20A     -0.669721    21A     -0.633046
      22A     -0.609255    23A     -0.601559    24A     -0.595054
      25A     -0.583694    26A     -0.558198    27A     -0.545024
      28A     -0.527051    29A     -0.510259    30A     -0.506808
      31A     -0.475436    32A     -0.469413    33A     -0.467384
      34A     -0.407595    35A     -0.365155

  @DF-RHF Final Energy:  -402.11111830923119

   => Energetics <=

    Nuclear Repulsion Energy =            486.3934876381802042
    One-Electron Energy =               -1510.7566953687542082
    Two-Electron Energy =                 622.2520894213428164
    Total Energy =                       -402.1111183092311876
  Basis Set: (AUG-CC-PVTZ AUX)
    Blend: AUG-CC-PVTZ-RI
    Molecular point group: c1

    Geometry (in Angstrom), charge = 0, multiplicity = 1:

       Center              X                  Y                   Z               Mass
    ------------   -----------------  -----------------  -----------------  -----------------
         O            1.731509952192     1.560534701695    -0.293166026395    15.994914619570
         N            0.948183952192    -0.531784298305     0.203801973605    14.003074004430
         C           -2.271150047808    -0.290801298305    -0.178561026395    12.000000000000
         C           -1.331723847808    -1.467850698305    -0.297324226395    12.000000000000
         C           -1.641395047808     1.084483701695    -0.397646026395    12.000000000000
         C           -0.126601047808    -1.415726298305     0.643596973605    12.000000000000
         C           -0.500948047808     1.420604701695     0.576190973605    12.000000000000
         C            0.828272952192     0.833304701695     0.138419973605    12.000000000000
         C            2.149415952192    -1.158536298305    -0.328014026395    12.000000000000
         H           -2.712383047808    -0.316360298305     0.827710973605     1.007825032230
         H           -3.103330047808    -0.418903298305    -0.881719026395     1.007825032230
         H           -1.874635047808    -2.400421298305    -0.127578026395     1.007825032230
         H           -0.931183047808    -1.540328298305    -1.343019026395     1.007825032230
         H           -2.425938047808     1.843011701695    -0.291394026395     1.007825032230
         H           -1.267076047808     1.169247701695    -1.425883026395     1.007825032230
         H           -0.466906047808    -1.129817298305     1.647185973605     1.007825032230
         H            0.319545952192    -2.409903298305     0.742920973605     1.007825032230
         H           -0.764343047808     1.100279701695     1.592393973605     1.007825032230
         H           -0.333513047808     2.499707701695     0.604448973605     1.007825032230
         H            1.906146952192    -1.797644298305    -1.184594026395     1.007825032230
         H            2.633820952192    -1.768585298305     0.441420973605     1.007825032230
         H            2.824973952192    -0.366707298305    -0.646188026395     1.007825032230

  Basis Set: AUG-CC-PVTZ
    Blend: AUG-CC-PVTZ
  Basis Set: (AUG-CC-PVTZ AUX)
    Blend: AUG-CC-PVTZ-JKFIT
	 Reference Energy          =    -402.1111183092311876 [Eh]
	 Singles Energy            =      -0.0000000000000000 [Eh]
	 Same-Spin Energy          =      -0.4219155682904973 [Eh]
	 Opposite-Spin Energy      =      -1.4053517330895229 [Eh]
	 Correlation Energy        =      -1.8272673013800200 [Eh]
	 Total Energy              =    -403.9383856106111921 [Eh]

	 ================> DF-SCS-MP2 Energies <==================
	-----------------------------------------------------------
	 SCS Same-Spin Scale       =       0.3333333333333333 [-]
	 SCS Opposite-Spin Scale   =       1.2000000000000000 [-]
	 SCS Same-Spin Energy      =      -0.1406385227634991 [Eh]
	 SCS Opposite-Spin Energy  =      -1.6864220797074274 [Eh]
	 SCS Correlation Energy    =      -1.8270606024709264 [Eh]
	 SCS Total Energy          =    -403.9381789117020958 [Eh]
	-----------------------------------------------------------

  Dipole Moment: [D]
     X:    -2.5863      Y:    -3.0980      Z:     0.8001     Total:     4.1143

*** Psi4 exiting successfully. Buy a developer a beer!
