                               Psi4 1.3.2 release

  ==> Input File <==

--------------------------------------------------------------------------
#psi4
#
memory 32 gb

molecule  {
0 1
  O        1.7739800     1.6003060    -0.2911220
  N        0.9906540    -0.4920130     0.2058460
  C       -2.2286800    -0.2510300    -0.1765170
  C       -1.2730330    -1.4351160    -0.3152870
  C       -1.5989250     1.1242550    -0.3956020
  C       -0.0841310    -1.3759550     0.6456410
  C       -0.3834926     1.3295059     0.5223040
  C        0.8707430     0.8730760     0.1404640
  C        2.1918860    -1.1187650    -0.3259700
  H       -2.6699130    -0.2765890     0.8297550
  H       -3.0608600    -0.3791320    -0.8796750
  H       -1.8321650    -2.3606500    -0.1255340
  H       -0.8887130    -1.5005570    -1.3409750
  H       -2.3834680     1.8827830    -0.2893500
  H       -1.2246060     1.2090190    -1.4238390
  H       -0.4244360    -1.0900460     1.6492300
  H        0.3620160    -2.3701320     0.7449650
  H       -0.7218730     1.1400510     1.5944380
  H       -0.2910430     2.5394790     0.6064930
  H        1.9486170    -1.7578730    -1.1825500
  H        2.6762910    -1.7288140     0.4434650
  H        2.8674440    -0.3269360    -0.6441440
units angstrom
no_reorient  #important for SAPT in psi4, default
symmetry c1  #important for SAPT in psi4, default
}

set PROPERTIES_ORIGIN ["COM"]
properties('MP2/aug-cc-pvtz', properties = ['dipole'])
--------------------------------------------------------------------------

    Molecular point group: c1
  Charge       = 0
  Multiplicity = 1
  Basis Set: AUG-CC-PVTZ
    Blend: AUG-CC-PVTZ
  Basis Set: (AUG-CC-PVTZ AUX)
    Blend: AUG-CC-PVTZ-JKFIT

    Orbital Energies [Eh]
    ---------------------

    Doubly Occupied:

       1A    -20.506495     2A    -15.578925     3A    -11.335455
       4A    -11.271992     5A    -11.249560     6A    -11.239746
       7A    -11.239155     8A    -11.233792     9A    -11.230765
      10A     -1.366034    11A     -1.243619    12A     -1.101444
      13A     -1.047813    14A     -0.982964    15A     -0.909744
      16A     -0.886154    17A     -0.794778    18A     -0.722013
      19A     -0.702654    20A     -0.670982    21A     -0.635348
      22A     -0.611549    23A     -0.602421    24A     -0.594457
      25A     -0.579887    26A     -0.557880    27A     -0.548512
      28A     -0.519955    29A     -0.511960    30A     -0.498794
      31A     -0.478638    32A     -0.465426    33A     -0.447828
      34A     -0.415872    35A     -0.364533

  @DF-RHF Final Energy:  -402.08106752831839

   => Energetics <=

    Nuclear Repulsion Energy =            489.1456261772469247
    One-Electron Energy =               -1516.1591021874126000
    Two-Electron Energy =                 624.9324084818473466
    Total Energy =                       -402.0810675283183855
  Basis Set: (AUG-CC-PVTZ AUX)
    Blend: AUG-CC-PVTZ-RI
    Molecular point group: c1

    Geometry (in Angstrom), charge = 0, multiplicity = 1:

       Center              X                  Y                   Z               Mass
    ------------   -----------------  -----------------  -----------------  -----------------
         O            1.722898804572     1.573555033113    -0.285996430406    15.994914619570
         N            0.939572804572    -0.518763966887     0.210971569594    14.003074004430
         C           -2.279761195428    -0.277780966887    -0.171391430406    12.000000000000
         C           -1.324114195428    -1.461866966887    -0.310161430406    12.000000000000
         C           -1.650006195428     1.097504033113    -0.390476430406    12.000000000000
         C           -0.135212195428    -1.402705966887     0.650766569594    12.000000000000
         C           -0.434573795428     1.302754933113     0.527429569594    12.000000000000
         C            0.819661804572     0.846325033113     0.145589569594    12.000000000000
         C            2.140804804572    -1.145515966887    -0.320844430406    12.000000000000
         H           -2.720994195428    -0.303339966887     0.834880569594     1.007825032230
         H           -3.111941195428    -0.405882966887    -0.874549430406     1.007825032230
         H           -1.883246195428    -2.387400966887    -0.120408430406     1.007825032230
         H           -0.939794195428    -1.527307966887    -1.335849430406     1.007825032230
         H           -2.434549195428     1.856032033113    -0.284224430406     1.007825032230
         H           -1.275687195428     1.182268033113    -1.418713430406     1.007825032230
         H           -0.475517195428    -1.116796966887     1.654355569594     1.007825032230
         H            0.310934804572    -2.396882966887     0.750090569594     1.007825032230
         H           -0.772954195428     1.113300033113     1.599563569594     1.007825032230
         H           -0.342124195428     2.512728033113     0.611618569594     1.007825032230
         H            1.897535804572    -1.784623966887    -1.177424430406     1.007825032230
         H            2.625209804572    -1.755564966887     0.448590569594     1.007825032230
         H            2.816362804572    -0.353686966887    -0.639018430406     1.007825032230

  Basis Set: AUG-CC-PVTZ
    Blend: AUG-CC-PVTZ
  Basis Set: (AUG-CC-PVTZ AUX)
    Blend: AUG-CC-PVTZ-JKFIT
	 Reference Energy          =    -402.0810675283183855 [Eh]
	 Singles Energy            =      -0.0000000000000000 [Eh]
	 Same-Spin Energy          =      -0.4243132142275221 [Eh]
	 Opposite-Spin Energy      =      -1.4090887798185168 [Eh]
	 Correlation Energy        =      -1.8334019940460389 [Eh]
	 Total Energy              =    -403.9144695223644135 [Eh]

	 ================> DF-SCS-MP2 Energies <==================
	-----------------------------------------------------------
	 SCS Same-Spin Scale       =       0.3333333333333333 [-]
	 SCS Opposite-Spin Scale   =       1.2000000000000000 [-]
	 SCS Same-Spin Energy      =      -0.1414377380758407 [Eh]
	 SCS Opposite-Spin Energy  =      -1.6909065357822202 [Eh]
	 SCS Correlation Energy    =      -1.8323442738580609 [Eh]
	 SCS Total Energy          =    -403.9134118021764266 [Eh]
	-----------------------------------------------------------

  Dipole Moment: [D]
     X:    -2.7016      Y:    -3.0904      Z:     0.7932     Total:     4.1807

*** Psi4 exiting successfully. Buy a developer a beer!
