                               Psi4 1.3.2 release

  ==> Input File <==

--------------------------------------------------------------------------
#psi4
#
memory 32 gb

molecule  {
0 1
  O        1.7739800     1.6003060    -0.2911220
  N        0.9906540    -0.4920130     0.2058460
  C       -2.2286800    -0.2510300    -0.1765170
  C       -1.2730330    -1.4351160    -0.3152870
  C       -1.5989250     1.1242550    -0.3956020
  C       -0.0841310    -1.3759550     0.6456410
  C       -0.4584780     1.4603760     0.5782350
  C        0.8707430     0.8730760     0.1404640
  C        2.1918860    -1.1187650    -0.3259700
  H       -2.5896199    -0.2719379     0.6466392
  H       -3.0608600    -0.3791320    -0.8796750
  H       -1.8321650    -2.3606500    -0.1255340
  H       -0.8887130    -1.5005570    -1.3409750
  H       -2.3834680     1.8827830    -0.2893500
  H       -1.2246060     1.2090190    -1.4238390
  H       -0.4244360    -1.0900460     1.6492300
  H        0.3620160    -2.3701320     0.7449650
  H       -0.7218730     1.1400510     1.5944380
  H       -0.2910430     2.5394790     0.6064930
  H        1.9486170    -1.7578730    -1.1825500
  H        2.6762910    -1.7288140     0.4434650
  H        2.8674440    -0.3269360    -0.6441440
units angstrom
no_reorient  #important for SAPT in psi4, default
symmetry c1  #important for SAPT in psi4, default
}

set PROPERTIES_ORIGIN ["COM"]
properties('MP2/aug-cc-pvtz', properties = ['dipole'])
--------------------------------------------------------------------------

    Molecular point group: c1
  Charge       = 0
  Multiplicity = 1
  Basis Set: AUG-CC-PVTZ
    Blend: AUG-CC-PVTZ
  Basis Set: (AUG-CC-PVTZ AUX)
    Blend: AUG-CC-PVTZ-JKFIT

    Orbital Energies [Eh]
    ---------------------

    Doubly Occupied:

       1A    -20.505461     2A    -15.580334     3A    -11.339726
       4A    -11.272160     5A    -11.250343     6A    -11.233621
       7A    -11.232634     8A    -11.231551     9A    -11.205655
      10A     -1.361593    11A     -1.240989    12A     -1.104613
      13A     -1.038273    14A     -0.980770    15A     -0.918353
      16A     -0.877246    17A     -0.812342    18A     -0.724977
      19A     -0.691150    20A     -0.668493    21A     -0.640996
      22A     -0.608112    23A     -0.603599    24A     -0.598552
      25A     -0.583488    26A     -0.560862    27A     -0.543783
      28A     -0.526705    29A     -0.512738    30A     -0.509013
      31A     -0.490741    32A     -0.466309    33A     -0.463866
      34A     -0.407173    35A     -0.364781

  @DF-RHF Final Energy:  -402.07948837590067

   => Energetics <=

    Nuclear Repulsion Energy =            487.3839939911726447
    One-Electron Energy =               -1512.6249616541640535
    Two-Electron Energy =                 623.1614792870906285
    Total Energy =                       -402.0794883759007234
  Basis Set: (AUG-CC-PVTZ AUX)
    Blend: AUG-CC-PVTZ-RI
    Molecular point group: c1

    Geometry (in Angstrom), charge = 0, multiplicity = 1:

       Center              X                  Y                   Z               Mass
    ------------   -----------------  -----------------  -----------------  -----------------
         O            1.729341804150     1.561162175215    -0.289825103952    15.994914619570
         N            0.946015804150    -0.531156824785     0.207142896048    14.003074004430
         C           -2.273318195850    -0.290173824785    -0.175220103952    12.000000000000
         C           -1.317671195850    -1.474259824785    -0.313990103952    12.000000000000
         C           -1.643563195850     1.085111175215    -0.394305103952    12.000000000000
         C           -0.128769195850    -1.415098824785     0.646937896048    12.000000000000
         C           -0.503116195850     1.421232175215     0.579531896048    12.000000000000
         C            0.826104804150     0.833932175215     0.141760896048    12.000000000000
         C            2.147247804150    -1.157908824785    -0.324673103952    12.000000000000
         H           -2.634258095850    -0.311081724785     0.647936096048     1.007825032230
         H           -3.105498195850    -0.418275824785    -0.878378103952     1.007825032230
         H           -1.876803195850    -2.399793824785    -0.124237103952     1.007825032230
         H           -0.933351195850    -1.539700824785    -1.339678103952     1.007825032230
         H           -2.428106195850     1.843639175215    -0.288053103952     1.007825032230
         H           -1.269244195850     1.169875175215    -1.422542103952     1.007825032230
         H           -0.469074195850    -1.129189824785     1.650526896048     1.007825032230
         H            0.317377804150    -2.409275824785     0.746261896048     1.007825032230
         H           -0.766511195850     1.100907175215     1.595734896048     1.007825032230
         H           -0.335681195850     2.500335175215     0.607789896048     1.007825032230
         H            1.903978804150    -1.797016824785    -1.181253103952     1.007825032230
         H            2.631652804150    -1.767957824785     0.444761896048     1.007825032230
         H            2.822805804150    -0.366079824785    -0.642847103952     1.007825032230

  Basis Set: AUG-CC-PVTZ
    Blend: AUG-CC-PVTZ
  Basis Set: (AUG-CC-PVTZ AUX)
    Blend: AUG-CC-PVTZ-JKFIT
	 Reference Energy          =    -402.0794883759006666 [Eh]
	 Singles Energy            =      -0.0000000000000000 [Eh]
	 Same-Spin Energy          =      -0.4218009275076588 [Eh]
	 Opposite-Spin Energy      =      -1.4045632827756793 [Eh]
	 Correlation Energy        =      -1.8263642102833382 [Eh]
	 Total Energy              =    -403.9058525861839826 [Eh]

	 ================> DF-SCS-MP2 Energies <==================
	-----------------------------------------------------------
	 SCS Same-Spin Scale       =       0.3333333333333333 [-]
	 SCS Opposite-Spin Scale   =       1.2000000000000000 [-]
	 SCS Same-Spin Energy      =      -0.1406003091692196 [Eh]
	 SCS Opposite-Spin Energy  =      -1.6854759393308152 [Eh]
	 SCS Correlation Energy    =      -1.8260762485000348 [Eh]
	 SCS Total Energy          =    -403.9055646244007107 [Eh]
	-----------------------------------------------------------

  Dipole Moment: [D]
     X:    -2.6417      Y:    -3.1107      Z:     0.8851     Total:     4.1760

*** Psi4 exiting successfully. Buy a developer a beer!
