                               Psi4 1.3.2 release

  ==> Input File <==

--------------------------------------------------------------------------
#psi4
#
memory 32 gb

molecule  {
0 1
  O        1.7739800     1.6003060    -0.2911220
  N        0.9906540    -0.4920130     0.2058460
  C       -2.2286800    -0.2510300    -0.1765170
  C       -1.2730330    -1.4351160    -0.3152870
  C       -1.5078233     1.1889476    -0.5113320
  C       -0.0841310    -1.3759550     0.6456410
  C       -0.4584780     1.4603760     0.5782350
  C        0.8707430     0.8730760     0.1404640
  C        2.1918860    -1.1187650    -0.3259700
  H       -2.6699130    -0.2765890     0.8297550
  H       -3.0608600    -0.3791320    -0.8796750
  H       -1.8321650    -2.3606500    -0.1255340
  H       -0.8887130    -1.5005570    -1.3409750
  H       -2.3834680     1.8827830    -0.2893500
  H       -1.2246060     1.2090190    -1.4238390
  H       -0.4244360    -1.0900460     1.6492300
  H        0.3620160    -2.3701320     0.7449650
  H       -0.7218730     1.1400510     1.5944380
  H       -0.2910430     2.5394790     0.6064930
  H        1.9486170    -1.7578730    -1.1825500
  H        2.6762910    -1.7288140     0.4434650
  H        2.8674440    -0.3269360    -0.6441440
units angstrom
no_reorient  #important for SAPT in psi4, default
symmetry c1  #important for SAPT in psi4, default
}

set PROPERTIES_ORIGIN ["COM"]
properties('MP2/aug-cc-pvtz', properties = ['dipole'])
--------------------------------------------------------------------------

    Molecular point group: c1
  Charge       = 0
  Multiplicity = 1
  Basis Set: AUG-CC-PVTZ
    Blend: AUG-CC-PVTZ
  Basis Set: (AUG-CC-PVTZ AUX)
    Blend: AUG-CC-PVTZ-JKFIT

    Orbital Energies [Eh]
    ---------------------

    Doubly Occupied:

       1A    -20.504625     2A    -15.580352     3A    -11.338789
       4A    -11.271490     5A    -11.250439     6A    -11.235757
       7A    -11.234624     8A    -11.232941     9A    -11.231670
      10A     -1.361301    11A     -1.240723    12A     -1.088985
      13A     -1.039603    14A     -0.970262    15A     -0.912659
      16A     -0.878937    17A     -0.803099    18A     -0.725993
      19A     -0.691307    20A     -0.665274    21A     -0.636057
      22A     -0.608239    23A     -0.598884    24A     -0.590352
      25A     -0.578220    26A     -0.563507    27A     -0.546684
      28A     -0.532950    29A     -0.519375    30A     -0.507762
      31A     -0.489948    32A     -0.466882    33A     -0.434759
      34A     -0.404204    35A     -0.364805

  @DF-RHF Final Energy:  -402.08287912083500

   => Energetics <=

    Nuclear Repulsion Energy =            485.7068967044872352
    One-Electron Energy =               -1509.3766337353561084
    Two-Electron Energy =                 621.5868579100338138
    Total Energy =                       -402.0828791208350594
  Basis Set: (AUG-CC-PVTZ AUX)
    Blend: AUG-CC-PVTZ-RI
    Molecular point group: c1

    Geometry (in Angstrom), charge = 0, multiplicity = 1:

       Center              X                  Y                   Z               Mass
    ------------   -----------------  -----------------  -----------------  -----------------
         O            1.721377199261     1.555091164664    -0.280350564045    15.994914619570
         N            0.938051199261    -0.537227835336     0.216617435955    14.003074004430
         C           -2.281282800739    -0.296244835336    -0.165745564045    12.000000000000
         C           -1.325635800739    -1.480330835336    -0.304515564045    12.000000000000
         C           -1.560426100739     1.143732764664    -0.500560564045    12.000000000000
         C           -0.136733800739    -1.421169835336     0.656412435955    12.000000000000
         C           -0.511080800739     1.415161164664     0.589006435955    12.000000000000
         C            0.818140199261     0.827861164664     0.151235435955    12.000000000000
         C            2.139283199261    -1.163979835336    -0.315198564045    12.000000000000
         H           -2.722515800739    -0.321803835336     0.840526435955     1.007825032230
         H           -3.113462800739    -0.424346835336    -0.868903564045     1.007825032230
         H           -1.884767800739    -2.405864835336    -0.114762564045     1.007825032230
         H           -0.941315800739    -1.545771835336    -1.330203564045     1.007825032230
         H           -2.436070800739     1.837568164664    -0.278578564045     1.007825032230
         H           -1.277208800739     1.163804164664    -1.413067564045     1.007825032230
         H           -0.477038800739    -1.135260835336     1.660001435955     1.007825032230
         H            0.309413199261    -2.415346835336     0.755736435955     1.007825032230
         H           -0.774475800739     1.094836164664     1.605209435955     1.007825032230
         H           -0.343645800739     2.494264164664     0.617264435955     1.007825032230
         H            1.896014199261    -1.803087835336    -1.171778564045     1.007825032230
         H            2.623688199261    -1.774028835336     0.454236435955     1.007825032230
         H            2.814841199261    -0.372150835336    -0.633372564045     1.007825032230

  Basis Set: AUG-CC-PVTZ
    Blend: AUG-CC-PVTZ
  Basis Set: (AUG-CC-PVTZ AUX)
    Blend: AUG-CC-PVTZ-JKFIT
	 Reference Energy          =    -402.0828791208350026 [Eh]
	 Singles Energy            =      -0.0000000000000000 [Eh]
	 Same-Spin Energy          =      -0.4217420944974705 [Eh]
	 Opposite-Spin Energy      =      -1.4062472994573392 [Eh]
	 Correlation Energy        =      -1.8279893939548097 [Eh]
	 Total Energy              =    -403.9108685147897972 [Eh]

	 ================> DF-SCS-MP2 Energies <==================
	-----------------------------------------------------------
	 SCS Same-Spin Scale       =       0.3333333333333333 [-]
	 SCS Opposite-Spin Scale   =       1.2000000000000000 [-]
	 SCS Same-Spin Energy      =      -0.1405806981658235 [Eh]
	 SCS Opposite-Spin Energy  =      -1.6874967593488071 [Eh]
	 SCS Correlation Energy    =      -1.8280774575146306 [Eh]
	 SCS Total Energy          =    -403.9109565783496123 [Eh]
	-----------------------------------------------------------

  Dipole Moment: [D]
     X:    -2.5514      Y:    -3.0920      Z:     0.7897     Total:     4.0858

*** Psi4 exiting successfully. Buy a developer a beer!
