                               Psi4 1.3.2 release

  ==> Input File <==

--------------------------------------------------------------------------
#psi4
#
memory 32 gb

molecule  {
0 1
  O        1.7739800     1.6003060    -0.2911220
  N        0.9906540    -0.4920130     0.2058460
  C       -2.2286800    -0.2510300    -0.1765170
  C       -1.1479428    -1.5901079    -0.3334514
  C       -1.5989250     1.1242550    -0.3956020
  C       -0.0841310    -1.3759550     0.6456410
  C       -0.4584780     1.4603760     0.5782350
  C        0.8707430     0.8730760     0.1404640
  C        2.1918860    -1.1187650    -0.3259700
  H       -2.6699130    -0.2765890     0.8297550
  H       -3.0608600    -0.3791320    -0.8796750
  H       -1.8321650    -2.3606500    -0.1255340
  H       -0.8887130    -1.5005570    -1.3409750
  H       -2.3834680     1.8827830    -0.2893500
  H       -1.2246060     1.2090190    -1.4238390
  H       -0.4244360    -1.0900460     1.6492300
  H        0.3620160    -2.3701320     0.7449650
  H       -0.7218730     1.1400510     1.5944380
  H       -0.2910430     2.5394790     0.6064930
  H        1.9486170    -1.7578730    -1.1825500
  H        2.6762910    -1.7288140     0.4434650
  H        2.8674440    -0.3269360    -0.6441440
units angstrom
no_reorient  #important for SAPT in psi4, default
symmetry c1  #important for SAPT in psi4, default
}

set PROPERTIES_ORIGIN ["COM"]
properties('MP2/aug-cc-pvtz', properties = ['dipole'])
--------------------------------------------------------------------------

    Molecular point group: c1
  Charge       = 0
  Multiplicity = 1
  Basis Set: AUG-CC-PVTZ
    Blend: AUG-CC-PVTZ
  Basis Set: (AUG-CC-PVTZ AUX)
    Blend: AUG-CC-PVTZ-JKFIT

    Orbital Energies [Eh]
    ---------------------

    Doubly Occupied:

       1A    -20.506017     2A    -15.581981     3A    -11.340285
       4A    -11.270517     5A    -11.250938     6A    -11.236064
       7A    -11.233908     8A    -11.232713     9A    -11.232433
      10A     -1.362258    11A     -1.243162    12A     -1.085863
      13A     -1.044689    14A     -0.972893    15A     -0.911609
      16A     -0.877161    17A     -0.795468    18A     -0.728789
      19A     -0.691086    20A     -0.668094    21A     -0.639686
      22A     -0.607176    23A     -0.597937    24A     -0.590781
      25A     -0.585089    26A     -0.568999    27A     -0.548160
      28A     -0.533470    29A     -0.518802    30A     -0.506520
      31A     -0.484235    32A     -0.471816    33A     -0.412575
      34A     -0.407645    35A     -0.369812

  @DF-RHF Final Energy:  -402.08284753292412

   => Energetics <=

    Nuclear Repulsion Energy =            485.0685634800465209
    One-Electron Energy =               -1508.0855568581616808
    Two-Electron Energy =                 620.9341458451909830
    Total Energy =                       -402.0828475329241201
  Basis Set: (AUG-CC-PVTZ AUX)
    Blend: AUG-CC-PVTZ-RI
    Molecular point group: c1

    Geometry (in Angstrom), charge = 0, multiplicity = 1:

       Center              X                  Y                   Z               Mass
    ------------   -----------------  -----------------  -----------------  -----------------
         O            1.718168206990     1.575832470180    -0.289562128436    15.994914619570
         N            0.934842206990    -0.516486529820     0.207405871564    14.003074004430
         C           -2.284491793010    -0.275503529820    -0.174957128436    12.000000000000
         C           -1.203754593010    -1.614581429820    -0.331891528436    12.000000000000
         C           -1.654736793010     1.099781470180    -0.394042128436    12.000000000000
         C           -0.139942793010    -1.400428529820     0.647200871564    12.000000000000
         C           -0.514289793010     1.435902470180     0.579794871564    12.000000000000
         C            0.814931206990     0.848602470180     0.142023871564    12.000000000000
         C            2.136074206990    -1.143238529820    -0.324410128436    12.000000000000
         H           -2.725724793010    -0.301062529820     0.831314871564     1.007825032230
         H           -3.116671793010    -0.403605529820    -0.878115128436     1.007825032230
         H           -1.887976793010    -2.385123529820    -0.123974128436     1.007825032230
         H           -0.944524793010    -1.525030529820    -1.339415128436     1.007825032230
         H           -2.439279793010     1.858309470180    -0.287790128436     1.007825032230
         H           -1.280417793010     1.184545470180    -1.422279128436     1.007825032230
         H           -0.480247793010    -1.114519529820     1.650789871564     1.007825032230
         H            0.306204206990    -2.394605529820     0.746524871564     1.007825032230
         H           -0.777684793010     1.115577470180     1.595997871564     1.007825032230
         H           -0.346854793010     2.515005470180     0.608052871564     1.007825032230
         H            1.892805206990    -1.782346529820    -1.180990128436     1.007825032230
         H            2.620479206990    -1.753287529820     0.445024871564     1.007825032230
         H            2.811632206990    -0.351409529820    -0.642584128436     1.007825032230

  Basis Set: AUG-CC-PVTZ
    Blend: AUG-CC-PVTZ
  Basis Set: (AUG-CC-PVTZ AUX)
    Blend: AUG-CC-PVTZ-JKFIT
	 Reference Energy          =    -402.0828475329241201 [Eh]
	 Singles Energy            =      -0.0000000000000000 [Eh]
	 Same-Spin Energy          =      -0.4223487927522006 [Eh]
	 Opposite-Spin Energy      =      -1.4070563050319205 [Eh]
	 Correlation Energy        =      -1.8294050977841212 [Eh]
	 Total Energy              =    -403.9122526307082239 [Eh]

	 ================> DF-SCS-MP2 Energies <==================
	-----------------------------------------------------------
	 SCS Same-Spin Scale       =       0.3333333333333333 [-]
	 SCS Opposite-Spin Scale   =       1.2000000000000000 [-]
	 SCS Same-Spin Energy      =      -0.1407829309174002 [Eh]
	 SCS Opposite-Spin Energy  =      -1.6884675660383046 [Eh]
	 SCS Correlation Energy    =      -1.8292504969557049 [Eh]
	 SCS Total Energy          =    -403.9120980298798145 [Eh]
	-----------------------------------------------------------

  Dipole Moment: [D]
     X:    -2.5574      Y:    -3.1074      Z:     0.7829     Total:     4.0998

*** Psi4 exiting successfully. Buy a developer a beer!
