                               Psi4 1.3.2 release

  ==> Input File <==

--------------------------------------------------------------------------
#psi4
#
memory 32 gb

molecule  {
0 1
  O        1.7739800     1.6003060    -0.2911220
  N        0.9633631    -0.4809835     0.1642701
  C       -2.2286800    -0.2510300    -0.1765170
  C       -1.2730330    -1.4351160    -0.3152870
  C       -1.5989250     1.1242550    -0.3956020
  C       -0.0841310    -1.3759550     0.6456410
  C       -0.4584780     1.4603760     0.5782350
  C        0.8707430     0.8730760     0.1404640
  C        2.1918860    -1.1187650    -0.3259700
  H       -2.6699130    -0.2765890     0.8297550
  H       -3.0608600    -0.3791320    -0.8796750
  H       -1.8321650    -2.3606500    -0.1255340
  H       -0.8887130    -1.5005570    -1.3409750
  H       -2.3834680     1.8827830    -0.2893500
  H       -1.2246060     1.2090190    -1.4238390
  H       -0.4244360    -1.0900460     1.6492300
  H        0.3620160    -2.3701320     0.7449650
  H       -0.7218730     1.1400510     1.5944380
  H       -0.2910430     2.5394790     0.6064930
  H        1.9486170    -1.7578730    -1.1825500
  H        2.6762910    -1.7288140     0.4434650
  H        2.8674440    -0.3269360    -0.6441440
units angstrom
no_reorient  #important for SAPT in psi4, default
symmetry c1  #important for SAPT in psi4, default
}

set PROPERTIES_ORIGIN ["COM"]
properties('MP2/aug-cc-pvtz', properties = ['dipole'])
--------------------------------------------------------------------------

    Molecular point group: c1
  Charge       = 0
  Multiplicity = 1
  Basis Set: AUG-CC-PVTZ
    Blend: AUG-CC-PVTZ
  Basis Set: (AUG-CC-PVTZ AUX)
    Blend: AUG-CC-PVTZ-JKFIT

    Orbital Energies [Eh]
    ---------------------

    Doubly Occupied:

       1A    -20.503150     2A    -15.581618     3A    -11.337687
       4A    -11.273167     5A    -11.252444     6A    -11.233920
       7A    -11.232675     8A    -11.232254     9A    -11.231077
      10A     -1.361440    11A     -1.242015    12A     -1.096580
      13A     -1.038661    14A     -0.974840    15A     -0.917001
      16A     -0.877087    17A     -0.792316    18A     -0.726881
      19A     -0.689947    20A     -0.669110    21A     -0.633335
      22A     -0.605884    23A     -0.601140    24A     -0.594899
      25A     -0.583124    26A     -0.559147    27A     -0.544109
      28A     -0.526808    29A     -0.510531    30A     -0.508008
      31A     -0.478882    32A     -0.466377    33A     -0.464958
      34A     -0.406080    35A     -0.366117

  @DF-RHF Final Energy:  -402.11153987301543

   => Energetics <=

    Nuclear Repulsion Energy =            486.7358817891146145
    One-Electron Energy =               -1511.4683097249971979
    Two-Electron Energy =                 622.6208880628672659
    Total Energy =                       -402.1115398730154311
  Basis Set: (AUG-CC-PVTZ AUX)
    Blend: AUG-CC-PVTZ-RI
    Molecular point group: c1

    Geometry (in Angstrom), charge = 0, multiplicity = 1:

       Center              X                  Y                   Z               Mass
    ------------   -----------------  -----------------  -----------------  -----------------
         O            1.732985226104     1.559983892393    -0.286696523212    15.994914619570
         N            0.922368326104    -0.521305607607     0.168695576788    14.003074004430
         C           -2.269674773896    -0.291352107607    -0.172091523212    12.000000000000
         C           -1.314027773896    -1.475438107607    -0.310861523212    12.000000000000
         C           -1.639919773896     1.083932892393    -0.391176523212    12.000000000000
         C           -0.125125773896    -1.416277107607     0.650066476788    12.000000000000
         C           -0.499472773896     1.420053892393     0.582660476788    12.000000000000
         C            0.829748226104     0.832753892393     0.144889476788    12.000000000000
         C            2.150891226104    -1.159087107607    -0.321544523212    12.000000000000
         H           -2.710907773896    -0.316911107607     0.834180476788     1.007825032230
         H           -3.101854773896    -0.419454107607    -0.875249523212     1.007825032230
         H           -1.873159773896    -2.400972107607    -0.121108523212     1.007825032230
         H           -0.929707773896    -1.540879107607    -1.336549523212     1.007825032230
         H           -2.424462773896     1.842460892393    -0.284924523212     1.007825032230
         H           -1.265600773896     1.168696892393    -1.419413523212     1.007825032230
         H           -0.465430773896    -1.130368107607     1.653655476788     1.007825032230
         H            0.321021226104    -2.410454107607     0.749390476788     1.007825032230
         H           -0.762867773896     1.099728892393     1.598863476788     1.007825032230
         H           -0.332037773896     2.499156892393     0.610918476788     1.007825032230
         H            1.907622226104    -1.798195107607    -1.178124523212     1.007825032230
         H            2.635296226104    -1.769136107607     0.447890476788     1.007825032230
         H            2.826449226104    -0.367258107607    -0.639718523212     1.007825032230

  Basis Set: AUG-CC-PVTZ
    Blend: AUG-CC-PVTZ
  Basis Set: (AUG-CC-PVTZ AUX)
    Blend: AUG-CC-PVTZ-JKFIT
	 Reference Energy          =    -402.1115398730154311 [Eh]
	 Singles Energy            =      -0.0000000000000000 [Eh]
	 Same-Spin Energy          =      -0.4217680677793657 [Eh]
	 Opposite-Spin Energy      =      -1.4052303609469872 [Eh]
	 Correlation Energy        =      -1.8269984287263528 [Eh]
	 Total Energy              =    -403.9385383017418008 [Eh]

	 ================> DF-SCS-MP2 Energies <==================
	-----------------------------------------------------------
	 SCS Same-Spin Scale       =       0.3333333333333333 [-]
	 SCS Opposite-Spin Scale   =       1.2000000000000000 [-]
	 SCS Same-Spin Energy      =      -0.1405893559264552 [Eh]
	 SCS Opposite-Spin Energy  =      -1.6862764331363846 [Eh]
	 SCS Correlation Energy    =      -1.8268657890628399 [Eh]
	 SCS Total Energy          =    -403.9384056620782530 [Eh]
	-----------------------------------------------------------

  Dipole Moment: [D]
     X:    -2.5288      Y:    -3.2010      Z:     0.8575     Total:     4.1685

*** Psi4 exiting successfully. Buy a developer a beer!
