                               Psi4 1.3.2 release

  ==> Input File <==

--------------------------------------------------------------------------
#psi4
#
memory 32 gb

molecule  {
0 1
  O        1.7488533     1.6346389    -0.2836955
  N        0.9906540    -0.4920130     0.2058460
  C       -2.2286800    -0.2510300    -0.1765170
  C       -1.2730330    -1.4351160    -0.3152870
  C       -1.5989250     1.1242550    -0.3956020
  C       -0.0841310    -1.3759550     0.6456410
  C       -0.4584780     1.4603760     0.5782350
  C        0.8707430     0.8730760     0.1404640
  C        2.1918860    -1.1187650    -0.3259700
  H       -2.6699130    -0.2765890     0.8297550
  H       -3.0608600    -0.3791320    -0.8796750
  H       -1.8321650    -2.3606500    -0.1255340
  H       -0.8887130    -1.5005570    -1.3409750
  H       -2.3834680     1.8827830    -0.2893500
  H       -1.2246060     1.2090190    -1.4238390
  H       -0.4244360    -1.0900460     1.6492300
  H        0.3620160    -2.3701320     0.7449650
  H       -0.7218730     1.1400510     1.5944380
  H       -0.2910430     2.5394790     0.6064930
  H        1.9486170    -1.7578730    -1.1825500
  H        2.6762910    -1.7288140     0.4434650
  H        2.8674440    -0.3269360    -0.6441440
units angstrom
no_reorient  #important for SAPT in psi4, default
symmetry c1  #important for SAPT in psi4, default
}

set PROPERTIES_ORIGIN ["COM"]
properties('MP2/aug-cc-pvtz', properties = ['dipole'])
--------------------------------------------------------------------------

    Molecular point group: c1
  Charge       = 0
  Multiplicity = 1
  Basis Set: AUG-CC-PVTZ
    Blend: AUG-CC-PVTZ
  Basis Set: (AUG-CC-PVTZ AUX)
    Blend: AUG-CC-PVTZ-JKFIT

    Orbital Energies [Eh]
    ---------------------

    Doubly Occupied:

       1A    -20.506262     2A    -15.582573     3A    -11.339898
       4A    -11.273209     5A    -11.252340     6A    -11.233663
       7A    -11.233557     8A    -11.231289     9A    -11.231131
      10A     -1.361298    11A     -1.243510    12A     -1.097086
      13A     -1.037546    14A     -0.975994    15A     -0.914669
      16A     -0.878004    17A     -0.792254    18A     -0.726228
      19A     -0.690017    20A     -0.668839    21A     -0.633845
      22A     -0.608537    23A     -0.601742    24A     -0.594163
      25A     -0.582957    26A     -0.558758    27A     -0.544544
      28A     -0.528368    29A     -0.510273    30A     -0.509147
      31A     -0.479135    32A     -0.466697    33A     -0.464877
      34A     -0.406255    35A     -0.366698

  @DF-RHF Final Energy:  -402.11174950345469

   => Energetics <=

    Nuclear Repulsion Energy =            486.1610210085402173
    One-Electron Energy =               -1510.2948198146389132
    Two-Electron Energy =                 622.0220493026439499
    Total Energy =                       -402.1117495034546891
  Basis Set: (AUG-CC-PVTZ AUX)
    Blend: AUG-CC-PVTZ-RI
    Molecular point group: c1

    Geometry (in Angstrom), charge = 0, multiplicity = 1:

       Center              X                  Y                   Z               Mass
    ------------   -----------------  -----------------  -----------------  -----------------
         O            1.708013860276     1.591211318062    -0.284785194062    15.994914619570
         N            0.949814560276    -0.535440581938     0.204756305938    14.003074004430
         C           -2.269519439724    -0.294457581938    -0.177606694062    12.000000000000
         C           -1.313872439724    -1.478543581938    -0.316376694062    12.000000000000
         C           -1.639764439724     1.080827418062    -0.396691694062    12.000000000000
         C           -0.124970439724    -1.419382581938     0.644551305938    12.000000000000
         C           -0.499317439724     1.416948418062     0.577145305938    12.000000000000
         C            0.829903560276     0.829648418062     0.139374305938    12.000000000000
         C            2.151046560276    -1.162192581938    -0.327059694062    12.000000000000
         H           -2.710752439724    -0.320016581938     0.828665305938     1.007825032230
         H           -3.101699439724    -0.422559581938    -0.880764694062     1.007825032230
         H           -1.873004439724    -2.404077581938    -0.126623694062     1.007825032230
         H           -0.929552439724    -1.543984581938    -1.342064694062     1.007825032230
         H           -2.424307439724     1.839355418062    -0.290439694062     1.007825032230
         H           -1.265445439724     1.165591418062    -1.424928694062     1.007825032230
         H           -0.465275439724    -1.133473581938     1.648140305938     1.007825032230
         H            0.321176560276    -2.413559581938     0.743875305938     1.007825032230
         H           -0.762712439724     1.096623418062     1.593348305938     1.007825032230
         H           -0.331882439724     2.496051418062     0.605403305938     1.007825032230
         H            1.907777560276    -1.801300581938    -1.183639694062     1.007825032230
         H            2.635451560276    -1.772241581938     0.442375305938     1.007825032230
         H            2.826604560276    -0.370363581938    -0.645233694062     1.007825032230

  Basis Set: AUG-CC-PVTZ
    Blend: AUG-CC-PVTZ
  Basis Set: (AUG-CC-PVTZ AUX)
    Blend: AUG-CC-PVTZ-JKFIT
	 Reference Energy          =    -402.1117495034546891 [Eh]
	 Singles Energy            =      -0.0000000000000000 [Eh]
	 Same-Spin Energy          =      -0.4217087008337819 [Eh]
	 Opposite-Spin Energy      =      -1.4052088185059883 [Eh]
	 Correlation Energy        =      -1.8269175193397702 [Eh]
	 Total Energy              =    -403.9386670227944478 [Eh]

	 ================> DF-SCS-MP2 Energies <==================
	-----------------------------------------------------------
	 SCS Same-Spin Scale       =       0.3333333333333333 [-]
	 SCS Opposite-Spin Scale   =       1.2000000000000000 [-]
	 SCS Same-Spin Energy      =      -0.1405695669445939 [Eh]
	 SCS Opposite-Spin Energy  =      -1.6862505822071860 [Eh]
	 SCS Correlation Energy    =      -1.8268201491517799 [Eh]
	 SCS Total Energy          =    -403.9385696526064748 [Eh]
	-----------------------------------------------------------

  Dipole Moment: [D]
     X:    -2.5024      Y:    -3.2046      Z:     0.7753     Total:     4.1391

*** Psi4 exiting successfully. Buy a developer a beer!
