                               Psi4 1.3.2 release

  ==> Input File <==

--------------------------------------------------------------------------
#psi4
#
memory 32 gb

molecule  {
0 1
  O        1.7739800     1.6003060    -0.2911220
  N        0.9906540    -0.4920130     0.2058460
  C       -2.2286800    -0.2510300    -0.1765170
  C       -1.2730330    -1.4351160    -0.3152870
  C       -1.5989250     1.1242550    -0.3956020
  C       -0.1687426    -1.2502474     0.6649932
  C       -0.4584780     1.4603760     0.5782350
  C        0.8707430     0.8730760     0.1404640
  C        2.1918860    -1.1187650    -0.3259700
  H       -2.6699130    -0.2765890     0.8297550
  H       -3.0608600    -0.3791320    -0.8796750
  H       -1.8321650    -2.3606500    -0.1255340
  H       -0.8887130    -1.5005570    -1.3409750
  H       -2.3834680     1.8827830    -0.2893500
  H       -1.2246060     1.2090190    -1.4238390
  H       -0.4244360    -1.0900460     1.6492300
  H        0.3620160    -2.3701320     0.7449650
  H       -0.7218730     1.1400510     1.5944380
  H       -0.2910430     2.5394790     0.6064930
  H        1.9486170    -1.7578730    -1.1825500
  H        2.6762910    -1.7288140     0.4434650
  H        2.8674440    -0.3269360    -0.6441440
units angstrom
no_reorient  #important for SAPT in psi4, default
symmetry c1  #important for SAPT in psi4, default
}

set PROPERTIES_ORIGIN ["COM"]
properties('MP2/aug-cc-pvtz', properties = ['dipole'])
--------------------------------------------------------------------------

    Molecular point group: c1
  Charge       = 0
  Multiplicity = 1
  Basis Set: AUG-CC-PVTZ
    Blend: AUG-CC-PVTZ
  Basis Set: (AUG-CC-PVTZ AUX)
    Blend: AUG-CC-PVTZ-JKFIT

    Orbital Energies [Eh]
    ---------------------

    Doubly Occupied:

       1A    -20.504947     2A    -15.582359     3A    -11.337455
       4A    -11.276904     5A    -11.253078     6A    -11.235491
       7A    -11.234349     8A    -11.233318     9A    -11.229964
      10A     -1.361737    11A     -1.242587    12A     -1.102738
      13A     -1.040886    14A     -0.979455    15A     -0.909508
      16A     -0.876779    17A     -0.795927    18A     -0.731794
      19A     -0.693044    20A     -0.667216    21A     -0.637344
      22A     -0.610212    23A     -0.603388    24A     -0.595025
      25A     -0.571576    26A     -0.560702    27A     -0.544521
      28A     -0.530720    29A     -0.517660    30A     -0.502935
      31A     -0.480903    32A     -0.470509    33A     -0.444738
      34A     -0.404801    35A     -0.369046

  @DF-RHF Final Energy:  -402.08670317166974

   => Energetics <=

    Nuclear Repulsion Energy =            487.7059873626070612
    One-Electron Energy =               -1513.3181519546276377
    Two-Electron Energy =                 623.5254614203508936
    Total Energy =                       -402.0867031716697966
  Basis Set: (AUG-CC-PVTZ AUX)
    Blend: AUG-CC-PVTZ-RI
    Molecular point group: c1

    Geometry (in Angstrom), charge = 0, multiplicity = 1:

       Center              X                  Y                   Z               Mass
    ------------   -----------------  -----------------  -----------------  -----------------
         O            1.737967005272     1.549330490806    -0.293104222951    15.994914619570
         N            0.954641005272    -0.542988509194     0.203863777049    14.003074004430
         C           -2.264692994728    -0.302005509194    -0.178499222951    12.000000000000
         C           -1.309045994728    -1.486091509194    -0.317269222951    12.000000000000
         C           -1.634937994728     1.073279490806    -0.397584222951    12.000000000000
         C           -0.204755594728    -1.301222909194     0.663010977049    12.000000000000
         C           -0.494490994728     1.409400490806     0.576252777049    12.000000000000
         C            0.834730005272     0.822100490806     0.138481777049    12.000000000000
         C            2.155873005272    -1.169740509194    -0.327952222951    12.000000000000
         H           -2.705925994728    -0.327564509194     0.827772777049     1.007825032230
         H           -3.096872994728    -0.430107509194    -0.881657222951     1.007825032230
         H           -1.868177994728    -2.411625509194    -0.127516222951     1.007825032230
         H           -0.924725994728    -1.551532509194    -1.342957222951     1.007825032230
         H           -2.419480994728     1.831807490806    -0.291332222951     1.007825032230
         H           -1.260618994728     1.158043490806    -1.425821222951     1.007825032230
         H           -0.460448994728    -1.141021509194     1.647247777049     1.007825032230
         H            0.326003005272    -2.421107509194     0.742982777049     1.007825032230
         H           -0.757885994728     1.089075490806     1.592455777049     1.007825032230
         H           -0.327055994728     2.488503490806     0.604510777049     1.007825032230
         H            1.912604005272    -1.808848509194    -1.184532222951     1.007825032230
         H            2.640278005272    -1.779789509194     0.441482777049     1.007825032230
         H            2.831431005272    -0.377911509194    -0.646126222951     1.007825032230

  Basis Set: AUG-CC-PVTZ
    Blend: AUG-CC-PVTZ
  Basis Set: (AUG-CC-PVTZ AUX)
    Blend: AUG-CC-PVTZ-JKFIT
	 Reference Energy          =    -402.0867031716697397 [Eh]
	 Singles Energy            =      -0.0000000000000000 [Eh]
	 Same-Spin Energy          =      -0.4230042044831187 [Eh]
	 Opposite-Spin Energy      =      -1.4075694819555424 [Eh]
	 Correlation Energy        =      -1.8305736864386613 [Eh]
	 Total Energy              =    -403.9172768581083801 [Eh]

	 ================> DF-SCS-MP2 Energies <==================
	-----------------------------------------------------------
	 SCS Same-Spin Scale       =       0.3333333333333333 [-]
	 SCS Opposite-Spin Scale   =       1.2000000000000000 [-]
	 SCS Same-Spin Energy      =      -0.1410014014943729 [Eh]
	 SCS Opposite-Spin Energy  =      -1.6890833783466508 [Eh]
	 SCS Correlation Energy    =      -1.8300847798410236 [Eh]
	 SCS Total Energy          =    -403.9167879515107416 [Eh]
	-----------------------------------------------------------

  Dipole Moment: [D]
     X:    -2.6138      Y:    -2.9920      Z:     0.7649     Total:     4.0459

*** Psi4 exiting successfully. Buy a developer a beer!
