                               Psi4 1.3.2 release

  ==> Input File <==

--------------------------------------------------------------------------
#psi4
#
memory 32 gb

molecule  {
0 1
  O        1.7739800     1.6003060    -0.2911220
  N        0.9906540    -0.4920130     0.2058460
  C       -2.0830787    -0.3123916    -0.2015909
  C       -1.2730330    -1.4351160    -0.3152870
  C       -1.5989250     1.1242550    -0.3956020
  C       -0.0841310    -1.3759550     0.6456410
  C       -0.4584780     1.4603760     0.5782350
  C        0.8707430     0.8730760     0.1404640
  C        2.1918860    -1.1187650    -0.3259700
  H       -2.6699130    -0.2765890     0.8297550
  H       -3.0608600    -0.3791320    -0.8796750
  H       -1.8321650    -2.3606500    -0.1255340
  H       -0.8887130    -1.5005570    -1.3409750
  H       -2.3834680     1.8827830    -0.2893500
  H       -1.2246060     1.2090190    -1.4238390
  H       -0.4244360    -1.0900460     1.6492300
  H        0.3620160    -2.3701320     0.7449650
  H       -0.7218730     1.1400510     1.5944380
  H       -0.2910430     2.5394790     0.6064930
  H        1.9486170    -1.7578730    -1.1825500
  H        2.6762910    -1.7288140     0.4434650
  H        2.8674440    -0.3269360    -0.6441440
units angstrom
no_reorient  #important for SAPT in psi4, default
symmetry c1  #important for SAPT in psi4, default
}

set PROPERTIES_ORIGIN ["COM"]
properties('MP2/aug-cc-pvtz', properties = ['dipole'])
--------------------------------------------------------------------------

    Molecular point group: c1
  Charge       = 0
  Multiplicity = 1
  Basis Set: AUG-CC-PVTZ
    Blend: AUG-CC-PVTZ
  Basis Set: (AUG-CC-PVTZ AUX)
    Blend: AUG-CC-PVTZ-JKFIT

    Orbital Energies [Eh]
    ---------------------

    Doubly Occupied:

       1A    -20.506252     2A    -15.581954     3A    -11.340651
       4A    -11.272838     5A    -11.251403     6A    -11.241662
       7A    -11.238110     8A    -11.232481     9A    -11.229543
      10A     -1.362532    11A     -1.243386    12A     -1.114457
      13A     -1.047979    14A     -0.974149    15A     -0.916015
      16A     -0.885129    17A     -0.780754    18A     -0.728103
      19A     -0.692864    20A     -0.673972    21A     -0.634103
      22A     -0.618096    23A     -0.607458    24A     -0.591871
      25A     -0.586548    26A     -0.558365    27A     -0.546097
      28A     -0.531670    29A     -0.511364    30A     -0.507892
      31A     -0.493826    32A     -0.456085    33A     -0.440432
      34A     -0.406905    35A     -0.365285

  @DF-RHF Final Energy:  -402.08178210370511

   => Energetics <=

    Nuclear Repulsion Energy =            488.7768682250210190
    One-Electron Energy =               -1515.3768407284512705
    Two-Electron Energy =                 624.5181903997251993
    Total Energy =                       -402.0817821037051090
  Basis Set: (AUG-CC-PVTZ AUX)
    Blend: AUG-CC-PVTZ-RI
    Molecular point group: c1

    Geometry (in Angstrom), charge = 0, multiplicity = 1:

       Center              X                  Y                   Z               Mass
    ------------   -----------------  -----------------  -----------------  -----------------
         O            1.716231670768     1.566992453438    -0.288909774490    15.994914619570
         N            0.932905670768    -0.525326546562     0.208058225510    14.003074004430
         C           -2.140827029232    -0.345705146562    -0.199378674490    12.000000000000
         C           -1.330781329232    -1.468429546562    -0.313074774490    12.000000000000
         C           -1.656673329232     1.090941453438    -0.393389774490    12.000000000000
         C           -0.141879329232    -1.409268546562     0.647853225510    12.000000000000
         C           -0.516226329232     1.427062453438     0.580447225510    12.000000000000
         C            0.812994670768     0.839762453438     0.142676225510    12.000000000000
         C            2.134137670768    -1.152078546562    -0.323757774490    12.000000000000
         H           -2.727661329232    -0.309902546562     0.831967225510     1.007825032230
         H           -3.118608329232    -0.412445546562    -0.877462774490     1.007825032230
         H           -1.889913329232    -2.393963546562    -0.123321774490     1.007825032230
         H           -0.946461329232    -1.533870546562    -1.338762774490     1.007825032230
         H           -2.441216329232     1.849469453438    -0.287137774490     1.007825032230
         H           -1.282354329232     1.175705453438    -1.421626774490     1.007825032230
         H           -0.482184329232    -1.123359546562     1.651442225510     1.007825032230
         H            0.304267670768    -2.403445546562     0.747177225510     1.007825032230
         H           -0.779621329232     1.106737453438     1.596650225510     1.007825032230
         H           -0.348791329232     2.506165453438     0.608705225510     1.007825032230
         H            1.890868670768    -1.791186546562    -1.180337774490     1.007825032230
         H            2.618542670768    -1.762127546562     0.445677225510     1.007825032230
         H            2.809695670768    -0.360249546562    -0.641931774490     1.007825032230

  Basis Set: AUG-CC-PVTZ
    Blend: AUG-CC-PVTZ
  Basis Set: (AUG-CC-PVTZ AUX)
    Blend: AUG-CC-PVTZ-JKFIT
	 Reference Energy          =    -402.0817821037051090 [Eh]
	 Singles Energy            =      -0.0000000000000000 [Eh]
	 Same-Spin Energy          =      -0.4237713370191518 [Eh]
	 Opposite-Spin Energy      =      -1.4080907529003552 [Eh]
	 Correlation Energy        =      -1.8318620899195071 [Eh]
	 Total Energy              =    -403.9136441936246342 [Eh]

	 ================> DF-SCS-MP2 Energies <==================
	-----------------------------------------------------------
	 SCS Same-Spin Scale       =       0.3333333333333333 [-]
	 SCS Opposite-Spin Scale   =       1.2000000000000000 [-]
	 SCS Same-Spin Energy      =      -0.1412571123397172 [Eh]
	 SCS Opposite-Spin Energy  =      -1.6897089034804262 [Eh]
	 SCS Correlation Energy    =      -1.8309660158201435 [Eh]
	 SCS Total Energy          =    -403.9127481195252471 [Eh]
	-----------------------------------------------------------

  Dipole Moment: [D]
     X:    -2.4708      Y:    -3.1220      Z:     0.7559     Total:     4.0526

*** Psi4 exiting successfully. Buy a developer a beer!
