                               Psi4 1.3.2 release

  ==> Input File <==

--------------------------------------------------------------------------
#psi4
#
memory 32 gb

molecule  {
0 1
  O        1.7739800     1.6003060    -0.2911220
  N        0.9906540    -0.4920130     0.2058460
  C       -2.2286800    -0.2510300    -0.1765170
  C       -1.2730330    -1.4351160    -0.3152870
  C       -1.5989250     1.1242550    -0.3956020
  C       -0.0841310    -1.3759550     0.6456410
  C       -0.4584780     1.4603760     0.5782350
  C        0.8921754     0.8742404     0.1298523
  C        2.1918860    -1.1187650    -0.3259700
  H       -2.6699130    -0.2765890     0.8297550
  H       -3.0608600    -0.3791320    -0.8796750
  H       -1.8321650    -2.3606500    -0.1255340
  H       -0.8887130    -1.5005570    -1.3409750
  H       -2.3834680     1.8827830    -0.2893500
  H       -1.2246060     1.2090190    -1.4238390
  H       -0.4244360    -1.0900460     1.6492300
  H        0.3620160    -2.3701320     0.7449650
  H       -0.7218730     1.1400510     1.5944380
  H       -0.2910430     2.5394790     0.6064930
  H        1.9486170    -1.7578730    -1.1825500
  H        2.6762910    -1.7288140     0.4434650
  H        2.8674440    -0.3269360    -0.6441440
units angstrom
no_reorient  #important for SAPT in psi4, default
symmetry c1  #important for SAPT in psi4, default
}

set PROPERTIES_ORIGIN ["COM"]
properties('MP2/aug-cc-pvtz', properties = ['dipole'])
--------------------------------------------------------------------------

    Molecular point group: c1
  Charge       = 0
  Multiplicity = 1
  Basis Set: AUG-CC-PVTZ
    Blend: AUG-CC-PVTZ
  Basis Set: (AUG-CC-PVTZ AUX)
    Blend: AUG-CC-PVTZ-JKFIT

    Orbital Energies [Eh]
    ---------------------

    Doubly Occupied:

       1A    -20.508685     2A    -15.579048     3A    -11.338705
       4A    -11.272250     5A    -11.250011     6A    -11.233258
       7A    -11.232838     8A    -11.232204     9A    -11.230640
      10A     -1.373830    11A     -1.243036    12A     -1.095941
      13A     -1.035654    14A     -0.973732    15A     -0.913088
      16A     -0.876013    17A     -0.791301    18A     -0.724918
      19A     -0.689863    20A     -0.668940    21A     -0.634014
      22A     -0.607835    23A     -0.603700    24A     -0.594162
      25A     -0.582651    26A     -0.558160    27A     -0.545215
      28A     -0.527594    29A     -0.512558    30A     -0.509897
      31A     -0.478587    32A     -0.468458    33A     -0.464435
      34A     -0.406292    35A     -0.366223

  @DF-RHF Final Energy:  -402.11298879842440

   => Energetics <=

    Nuclear Repulsion Energy =            486.3167486325593813
    One-Electron Energy =               -1510.6120064382505461
    Two-Electron Energy =                 622.1822690072666546
    Total Energy =                       -402.1129887984244533
  Basis Set: (AUG-CC-PVTZ AUX)
    Blend: AUG-CC-PVTZ-RI
    Molecular point group: c1

    Geometry (in Angstrom), charge = 0, multiplicity = 1:

       Center              X                  Y                   Z               Mass
    ------------   -----------------  -----------------  -----------------  -----------------
         O            1.727954960716     1.561089119936    -0.290275209505    15.994914619570
         N            0.944628960716    -0.531229880064     0.206692790495    14.003074004430
         C           -2.274705039284    -0.290246880064    -0.175670209505    12.000000000000
         C           -1.319058039284    -1.474332880064    -0.314440209505    12.000000000000
         C           -1.644950039284     1.085038119936    -0.394755209505    12.000000000000
         C           -0.130156039284    -1.415171880064     0.646487790495    12.000000000000
         C           -0.504503039284     1.421159119936     0.579081790495    12.000000000000
         C            0.846150360716     0.835023519936     0.130699090495    12.000000000000
         C            2.145860960716    -1.157981880064    -0.325123209505    12.000000000000
         H           -2.715938039284    -0.315805880064     0.830601790495     1.007825032230
         H           -3.106885039284    -0.418348880064    -0.878828209505     1.007825032230
         H           -1.878190039284    -2.399866880064    -0.124687209505     1.007825032230
         H           -0.934738039284    -1.539773880064    -1.340128209505     1.007825032230
         H           -2.429493039284     1.843566119936    -0.288503209505     1.007825032230
         H           -1.270631039284     1.169802119936    -1.422992209505     1.007825032230
         H           -0.470461039284    -1.129262880064     1.650076790495     1.007825032230
         H            0.315990960716    -2.409348880064     0.745811790495     1.007825032230
         H           -0.767898039284     1.100834119936     1.595284790495     1.007825032230
         H           -0.337068039284     2.500262119936     0.607339790495     1.007825032230
         H            1.902591960716    -1.797089880064    -1.181703209505     1.007825032230
         H            2.630265960716    -1.768030880064     0.444311790495     1.007825032230
         H            2.821418960716    -0.366152880064    -0.643297209505     1.007825032230

  Basis Set: AUG-CC-PVTZ
    Blend: AUG-CC-PVTZ
  Basis Set: (AUG-CC-PVTZ AUX)
    Blend: AUG-CC-PVTZ-JKFIT
	 Reference Energy          =    -402.1129887984243965 [Eh]
	 Singles Energy            =      -0.0000000000000000 [Eh]
	 Same-Spin Energy          =      -0.4212730382913833 [Eh]
	 Opposite-Spin Energy      =      -1.4042723553071983 [Eh]
	 Correlation Energy        =      -1.8255453935985817 [Eh]
	 Total Energy              =    -403.9385341920229848 [Eh]

	 ================> DF-SCS-MP2 Energies <==================
	-----------------------------------------------------------
	 SCS Same-Spin Scale       =       0.3333333333333333 [-]
	 SCS Opposite-Spin Scale   =       1.2000000000000000 [-]
	 SCS Same-Spin Energy      =      -0.1404243460971278 [Eh]
	 SCS Opposite-Spin Energy  =      -1.6851268263686379 [Eh]
	 SCS Correlation Energy    =      -1.8255511724657656 [Eh]
	 SCS Total Energy          =    -403.9385399708901900 [Eh]
	-----------------------------------------------------------

  Dipole Moment: [D]
     X:    -2.4694      Y:    -3.0535      Z:     0.7589     Total:     3.9997

*** Psi4 exiting successfully. Buy a developer a beer!
