                               Psi4 1.3.2 release

  ==> Input File <==

--------------------------------------------------------------------------
#psi4
#
memory 32 gb

molecule  {
0 1
  O        1.7739800     1.6003060    -0.2911220
  N        0.9919879    -0.5049102     0.1839215
  C       -2.2286800    -0.2510300    -0.1765170
  C       -1.2730330    -1.4351160    -0.3152870
  C       -1.5989250     1.1242550    -0.3956020
  C       -0.0841310    -1.3759550     0.6456410
  C       -0.4584780     1.4603760     0.5782350
  C        0.8707430     0.8730760     0.1404640
  C        2.1918860    -1.1187650    -0.3259700
  H       -2.6699130    -0.2765890     0.8297550
  H       -3.0608600    -0.3791320    -0.8796750
  H       -1.8321650    -2.3606500    -0.1255340
  H       -0.8887130    -1.5005570    -1.3409750
  H       -2.3834680     1.8827830    -0.2893500
  H       -1.2246060     1.2090190    -1.4238390
  H       -0.4244360    -1.0900460     1.6492300
  H        0.3620160    -2.3701320     0.7449650
  H       -0.7218730     1.1400510     1.5944380
  H       -0.2910430     2.5394790     0.6064930
  H        1.9486170    -1.7578730    -1.1825500
  H        2.6762910    -1.7288140     0.4434650
  H        2.8674440    -0.3269360    -0.6441440
units angstrom
no_reorient  #important for SAPT in psi4, default
symmetry c1  #important for SAPT in psi4, default
}

set PROPERTIES_ORIGIN ["COM"]
properties('MP2/aug-cc-pvtz', properties = ['dipole'])
--------------------------------------------------------------------------

    Molecular point group: c1
  Charge       = 0
  Multiplicity = 1
  Basis Set: AUG-CC-PVTZ
    Blend: AUG-CC-PVTZ
  Basis Set: (AUG-CC-PVTZ AUX)
    Blend: AUG-CC-PVTZ-JKFIT

    Orbital Energies [Eh]
    ---------------------

    Doubly Occupied:

       1A    -20.507544     2A    -15.579413     3A    -11.341716
       4A    -11.271714     5A    -11.248903     6A    -11.235109
       7A    -11.234476     8A    -11.232786     9A    -11.231448
      10A     -1.362238    11A     -1.241316    12A     -1.098036
      13A     -1.037714    14A     -0.976614    15A     -0.911304
      16A     -0.877857    17A     -0.792247    18A     -0.726222
      19A     -0.691038    20A     -0.668839    21A     -0.633375
      22A     -0.608473    23A     -0.602119    24A     -0.594668
      25A     -0.583180    26A     -0.558614    27A     -0.546354
      28A     -0.524930    29A     -0.511040    30A     -0.508023
      31A     -0.479435    32A     -0.467907    33A     -0.465252
      34A     -0.408534    35A     -0.363472

  @DF-RHF Final Energy:  -402.11133351032902

   => Energetics <=

    Nuclear Repulsion Energy =            486.2667069632967127
    One-Electron Energy =               -1510.5122562431652113
    Two-Electron Energy =                 622.1342157695395372
    Total Energy =                       -402.1113335103290183
  Basis Set: (AUG-CC-PVTZ AUX)
    Blend: AUG-CC-PVTZ-RI
    Molecular point group: c1

    Geometry (in Angstrom), charge = 0, multiplicity = 1:

       Center              X                  Y                   Z               Mass
    ------------   -----------------  -----------------  -----------------  -----------------
         O            1.729831519616     1.562619990777    -0.288861595026    15.994914619570
         N            0.947839419616    -0.542596209223     0.186181904974    14.003074004430
         C           -2.272828480384    -0.288716009223    -0.174256595026    12.000000000000
         C           -1.317181480384    -1.472802009223    -0.313026595026    12.000000000000
         C           -1.643073480384     1.086568990777    -0.393341595026    12.000000000000
         C           -0.128279480384    -1.413641009223     0.647901404974    12.000000000000
         C           -0.502626480384     1.422689990777     0.580495404974    12.000000000000
         C            0.826594519616     0.835389990777     0.142724404974    12.000000000000
         C            2.147737519616    -1.156451009223    -0.323709595026    12.000000000000
         H           -2.714061480384    -0.314275009223     0.832015404974     1.007825032230
         H           -3.105008480384    -0.416818009223    -0.877414595026     1.007825032230
         H           -1.876313480384    -2.398336009223    -0.123273595026     1.007825032230
         H           -0.932861480384    -1.538243009223    -1.338714595026     1.007825032230
         H           -2.427616480384     1.845096990777    -0.287089595026     1.007825032230
         H           -1.268754480384     1.171332990777    -1.421578595026     1.007825032230
         H           -0.468584480384    -1.127732009223     1.651490404974     1.007825032230
         H            0.317867519616    -2.407818009223     0.747225404974     1.007825032230
         H           -0.766021480384     1.102364990777     1.596698404974     1.007825032230
         H           -0.335191480384     2.501792990777     0.608753404974     1.007825032230
         H            1.904468519616    -1.795559009223    -1.180289595026     1.007825032230
         H            2.632142519616    -1.766500009223     0.445725404974     1.007825032230
         H            2.823295519616    -0.364622009223    -0.641883595026     1.007825032230

  Basis Set: AUG-CC-PVTZ
    Blend: AUG-CC-PVTZ
  Basis Set: (AUG-CC-PVTZ AUX)
    Blend: AUG-CC-PVTZ-JKFIT
	 Reference Energy          =    -402.1113335103290183 [Eh]
	 Singles Energy            =      -0.0000000000000000 [Eh]
	 Same-Spin Energy          =      -0.4219072447318764 [Eh]
	 Opposite-Spin Energy      =      -1.4053605632030752 [Eh]
	 Correlation Energy        =      -1.8272678079349516 [Eh]
	 Total Energy              =    -403.9386013182639772 [Eh]

	 ================> DF-SCS-MP2 Energies <==================
	-----------------------------------------------------------
	 SCS Same-Spin Scale       =       0.3333333333333333 [-]
	 SCS Opposite-Spin Scale   =       1.2000000000000000 [-]
	 SCS Same-Spin Energy      =      -0.1406357482439588 [Eh]
	 SCS Opposite-Spin Energy  =      -1.6864326758436903 [Eh]
	 SCS Correlation Energy    =      -1.8270684240876491 [Eh]
	 SCS Total Energy          =    -403.9384019344166745 [Eh]
	-----------------------------------------------------------

  Dipole Moment: [D]
     X:    -2.5850      Y:    -3.0239      Z:     0.8215     Total:     4.0621

*** Psi4 exiting successfully. Buy a developer a beer!
