                               Psi4 1.3.2 release

  ==> Input File <==

--------------------------------------------------------------------------
#psi4
#
memory 32 gb

molecule  {
0 1
  O        1.7739800     1.6003060    -0.2911220
  N        0.9906540    -0.4920130     0.2058460
  C       -2.2286800    -0.2510300    -0.1765170
  C       -1.2730330    -1.4351160    -0.3152870
  C       -1.5989250     1.1242550    -0.3956020
  C       -0.0841310    -1.3759550     0.6456410
  C       -0.4584780     1.4603760     0.5782350
  C        0.8707430     0.8730760     0.1404640
  C        2.1918860    -1.1187650    -0.3259700
  H       -2.6297664    -0.2742635     0.7381971
  H       -3.0608600    -0.3791320    -0.8796750
  H       -1.8321650    -2.3606500    -0.1255340
  H       -0.8887130    -1.5005570    -1.3409750
  H       -2.3834680     1.8827830    -0.2893500
  H       -1.2246060     1.2090190    -1.4238390
  H       -0.4244360    -1.0900460     1.6492300
  H        0.3620160    -2.3701320     0.7449650
  H       -0.7218730     1.1400510     1.5944380
  H       -0.2910430     2.5394790     0.6064930
  H        1.9486170    -1.7578730    -1.1825500
  H        2.6762910    -1.7288140     0.4434650
  H        2.8674440    -0.3269360    -0.6441440
units angstrom
no_reorient  #important for SAPT in psi4, default
symmetry c1  #important for SAPT in psi4, default
}

set PROPERTIES_ORIGIN ["COM"]
properties('MP2/aug-cc-pvtz', properties = ['dipole'])
--------------------------------------------------------------------------

    Molecular point group: c1
  Charge       = 0
  Multiplicity = 1
  Basis Set: AUG-CC-PVTZ
    Blend: AUG-CC-PVTZ
  Basis Set: (AUG-CC-PVTZ AUX)
    Blend: AUG-CC-PVTZ-JKFIT

    Orbital Energies [Eh]
    ---------------------

    Doubly Occupied:

       1A    -20.505552     2A    -15.580425     3A    -11.339799
       4A    -11.272159     5A    -11.250437     6A    -11.233807
       7A    -11.233220     8A    -11.232307     9A    -11.218590
      10A     -1.361688    11A     -1.241053    12A     -1.100218
      13A     -1.038080    14A     -0.977607    15A     -0.915709
      16A     -0.877621    17A     -0.801439    18A     -0.725102
      19A     -0.690851    20A     -0.668560    21A     -0.636605
      22A     -0.607973    23A     -0.602283    24A     -0.597017
      25A     -0.583378    26A     -0.559651    27A     -0.544047
      28A     -0.526854    29A     -0.510724    30A     -0.509223
      31A     -0.486174    32A     -0.466771    33A     -0.464470
      34A     -0.407277    35A     -0.364906

  @DF-RHF Final Energy:  -402.10633476751934

   => Energetics <=

    Nuclear Repulsion Energy =            486.8094437862424115
    One-Electron Energy =               -1511.5684036348138761
    Two-Electron Energy =                 622.6526250810521788
    Total Energy =                       -402.1063347675193427
  Basis Set: (AUG-CC-PVTZ AUX)
    Blend: AUG-CC-PVTZ-RI
    Molecular point group: c1

    Geometry (in Angstrom), charge = 0, multiplicity = 1:

       Center              X                  Y                   Z               Mass
    ------------   -----------------  -----------------  -----------------  -----------------
         O            1.729660141984     1.561180615838    -0.290551103568    15.994914619570
         N            0.946334141984    -0.531138384162     0.206416896432    14.003074004430
         C           -2.272999858016    -0.290155384162    -0.175946103568    12.000000000000
         C           -1.317352858016    -1.474241384162    -0.314716103568    12.000000000000
         C           -1.643244858016     1.085129615838    -0.395031103568    12.000000000000
         C           -0.128450858016    -1.415080384162     0.646211896432    12.000000000000
         C           -0.502797858016     1.421250615838     0.578805896432    12.000000000000
         C            0.826423141984     0.833950615838     0.141034896432    12.000000000000
         C            2.147566141984    -1.157890384162    -0.325399103568    12.000000000000
         H           -2.674086258016    -0.313388884162     0.738767996432     1.007825032230
         H           -3.105179858016    -0.418257384162    -0.879104103568     1.007825032230
         H           -1.876484858016    -2.399775384162    -0.124963103568     1.007825032230
         H           -0.933032858016    -1.539682384162    -1.340404103568     1.007825032230
         H           -2.427787858016     1.843657615838    -0.288779103568     1.007825032230
         H           -1.268925858016     1.169893615838    -1.423268103568     1.007825032230
         H           -0.468755858016    -1.129171384162     1.649800896432     1.007825032230
         H            0.317696141984    -2.409257384162     0.745535896432     1.007825032230
         H           -0.766192858016     1.100925615838     1.595008896432     1.007825032230
         H           -0.335362858016     2.500353615838     0.607063896432     1.007825032230
         H            1.904297141984    -1.796998384162    -1.181979103568     1.007825032230
         H            2.631971141984    -1.767939384162     0.444035896432     1.007825032230
         H            2.823124141984    -0.366061384162    -0.643573103568     1.007825032230

  Basis Set: AUG-CC-PVTZ
    Blend: AUG-CC-PVTZ
  Basis Set: (AUG-CC-PVTZ AUX)
    Blend: AUG-CC-PVTZ-JKFIT
	 Reference Energy          =    -402.1063347675193427 [Eh]
	 Singles Energy            =      -0.0000000000000000 [Eh]
	 Same-Spin Energy          =      -0.4217655851983340 [Eh]
	 Opposite-Spin Energy      =      -1.4047112887813744 [Eh]
	 Correlation Energy        =      -1.8264768739797084 [Eh]
	 Total Energy              =    -403.9328116414990291 [Eh]

	 ================> DF-SCS-MP2 Energies <==================
	-----------------------------------------------------------
	 SCS Same-Spin Scale       =       0.3333333333333333 [-]
	 SCS Opposite-Spin Scale   =       1.2000000000000000 [-]
	 SCS Same-Spin Energy      =      -0.1405885283994446 [Eh]
	 SCS Opposite-Spin Energy  =      -1.6856535465376492 [Eh]
	 SCS Correlation Energy    =      -1.8262420749370938 [Eh]
	 SCS Total Energy          =    -403.9325768424564558 [Eh]
	-----------------------------------------------------------

  Dipole Moment: [D]
     X:    -2.6165      Y:    -3.1077      Z:     0.8473     Total:     4.1499

*** Psi4 exiting successfully. Buy a developer a beer!
