                               Psi4 1.3.2 release

  ==> Input File <==

--------------------------------------------------------------------------
#psi4
#
memory 32 gb

molecule  {
0 1
  O        1.7739800     1.6003060    -0.2911220
  N        1.1241882    -0.4751271     0.1558019
  C       -2.2286800    -0.2510300    -0.1765170
  C       -1.2730330    -1.4351160    -0.3152870
  C       -1.5989250     1.1242550    -0.3956020
  C       -0.0841310    -1.3759550     0.6456410
  C       -0.4584780     1.4603760     0.5782350
  C        0.8707430     0.8730760     0.1404640
  C        2.1918860    -1.1187650    -0.3259700
  H       -2.6699130    -0.2765890     0.8297550
  H       -3.0608600    -0.3791320    -0.8796750
  H       -1.8321650    -2.3606500    -0.1255340
  H       -0.8887130    -1.5005570    -1.3409750
  H       -2.3834680     1.8827830    -0.2893500
  H       -1.2246060     1.2090190    -1.4238390
  H       -0.4244360    -1.0900460     1.6492300
  H        0.3620160    -2.3701320     0.7449650
  H       -0.7218730     1.1400510     1.5944380
  H       -0.2910430     2.5394790     0.6064930
  H        1.9486170    -1.7578730    -1.1825500
  H        2.6762910    -1.7288140     0.4434650
  H        2.8674440    -0.3269360    -0.6441440
units angstrom
no_reorient  #important for SAPT in psi4, default
symmetry c1  #important for SAPT in psi4, default
}

set PROPERTIES_ORIGIN ["COM"]
properties('MP2/aug-cc-pvtz', properties = ['dipole'])
--------------------------------------------------------------------------

    Molecular point group: c1
  Charge       = 0
  Multiplicity = 1
  Basis Set: AUG-CC-PVTZ
    Blend: AUG-CC-PVTZ
  Basis Set: (AUG-CC-PVTZ AUX)
    Blend: AUG-CC-PVTZ-JKFIT

    Orbital Energies [Eh]
    ---------------------

    Doubly Occupied:

       1A    -20.500007     2A    -15.577618     3A    -11.339454
       4A    -11.278802     5A    -11.240747     6A    -11.239081
       7A    -11.238206     8A    -11.237642     9A    -11.234225
      10A     -1.363861    11A     -1.239354    12A     -1.105570
      13A     -1.037713    14A     -0.983127    15A     -0.916281
      16A     -0.869465    17A     -0.793629    18A     -0.725842
      19A     -0.694543    20A     -0.664773    21A     -0.636697
      22A     -0.624355    23A     -0.603657    24A     -0.599477
      25A     -0.579167    26A     -0.560681    27A     -0.556078
      28A     -0.523809    29A     -0.506311    30A     -0.488482
      31A     -0.480064    32A     -0.469972    33A     -0.466596
      34A     -0.407165    35A     -0.358698

  @DF-RHF Final Energy:  -402.08775040332978

   => Energetics <=

    Nuclear Repulsion Energy =            485.6001441671817815
    One-Electron Energy =               -1509.0934864041626042
    Two-Electron Energy =                 621.4055918336511013
    Total Energy =                       -402.0877504033297782
  Basis Set: (AUG-CC-PVTZ AUX)
    Blend: AUG-CC-PVTZ-RI
    Molecular point group: c1

    Geometry (in Angstrom), charge = 0, multiplicity = 1:

       Center              X                  Y                   Z               Mass
    ------------   -----------------  -----------------  -----------------  -----------------
         O            1.715266494051     1.559338669835    -0.285763548404    15.994914619570
         N            1.065474694051    -0.516094430165     0.161160351596    14.003074004430
         C           -2.287393505949    -0.291997330165    -0.171158548404    12.000000000000
         C           -1.331746505949    -1.476083330165    -0.309928548404    12.000000000000
         C           -1.657638505949     1.083287669835    -0.390243548404    12.000000000000
         C           -0.142844505949    -1.416922330165     0.650999451596    12.000000000000
         C           -0.517191505949     1.419408669835     0.583593451596    12.000000000000
         C            0.812029494051     0.832108669835     0.145822451596    12.000000000000
         C            2.133172494051    -1.159732330165    -0.320611548404    12.000000000000
         H           -2.728626505949    -0.317556330165     0.835113451596     1.007825032230
         H           -3.119573505949    -0.420099330165    -0.874316548404     1.007825032230
         H           -1.890878505949    -2.401617330165    -0.120175548404     1.007825032230
         H           -0.947426505949    -1.541524330165    -1.335616548404     1.007825032230
         H           -2.442181505949     1.841815669835    -0.283991548404     1.007825032230
         H           -1.283319505949     1.168051669835    -1.418480548404     1.007825032230
         H           -0.483149505949    -1.131013330165     1.654588451596     1.007825032230
         H            0.303302494051    -2.411099330165     0.750323451596     1.007825032230
         H           -0.780586505949     1.099083669835     1.599796451596     1.007825032230
         H           -0.349756505949     2.498511669835     0.611851451596     1.007825032230
         H            1.889903494051    -1.798840330165    -1.177191548404     1.007825032230
         H            2.617577494051    -1.769781330165     0.448823451596     1.007825032230
         H            2.808730494051    -0.367903330165    -0.638785548404     1.007825032230

  Basis Set: AUG-CC-PVTZ
    Blend: AUG-CC-PVTZ
  Basis Set: (AUG-CC-PVTZ AUX)
    Blend: AUG-CC-PVTZ-JKFIT
	 Reference Energy          =    -402.0877504033297782 [Eh]
	 Singles Energy            =      -0.0000000000000000 [Eh]
	 Same-Spin Energy          =      -0.4224289902891289 [Eh]
	 Opposite-Spin Energy      =      -1.4064798544218102 [Eh]
	 Correlation Energy        =      -1.8289088447109392 [Eh]
	 Total Energy              =    -403.9166592480407303 [Eh]

	 ================> DF-SCS-MP2 Energies <==================
	-----------------------------------------------------------
	 SCS Same-Spin Scale       =       0.3333333333333333 [-]
	 SCS Opposite-Spin Scale   =       1.2000000000000000 [-]
	 SCS Same-Spin Energy      =      -0.1408096634297096 [Eh]
	 SCS Opposite-Spin Energy  =      -1.6877758253061723 [Eh]
	 SCS Correlation Energy    =      -1.8285854887358819 [Eh]
	 SCS Total Energy          =    -403.9163358920656606 [Eh]
	-----------------------------------------------------------

  Dipole Moment: [D]
     X:    -2.9993      Y:    -3.0152      Z:     0.8976     Total:     4.3466

*** Psi4 exiting successfully. Buy a developer a beer!
