                               Psi4 1.4a3.dev225

  ==> Input File <==

--------------------------------------------------------------------------
#psi4
#
memory 32 gb

molecule  {
0 1
  O        1.7739800     1.6003060    -0.2911220
  N        0.9906540    -0.4920130     0.2058460
  C       -2.2286800    -0.2510300    -0.1765170
  C       -1.2605240    -1.4506152    -0.3171034
  C       -1.5989250     1.1242550    -0.3956020
  C       -0.0841310    -1.3759550     0.6456410
  C       -0.4584780     1.4603760     0.5782350
  C        0.8707430     0.8730760     0.1404640
  C        2.1918860    -1.1187650    -0.3259700
  H       -2.6699130    -0.2765890     0.8297550
  H       -3.0608600    -0.3791320    -0.8796750
  H       -1.8321650    -2.3606500    -0.1255340
  H       -0.8887130    -1.5005570    -1.3409750
  H       -2.3834680     1.8827830    -0.2893500
  H       -1.2246060     1.2090190    -1.4238390
  H       -0.4244360    -1.0900460     1.6492300
  H        0.3620160    -2.3701320     0.7449650
  H       -0.7218730     1.1400510     1.5944380
  H       -0.2910430     2.5394790     0.6064930
  H        1.9486170    -1.7578730    -1.1825500
  H        2.6762910    -1.7288140     0.4434650
  H        2.8674440    -0.3269360    -0.6441440
units angstrom
no_reorient  #important for SAPT in psi4, default
symmetry c1  #important for SAPT in psi4, default
}

set PROPERTIES_ORIGIN ["COM"]
properties('MP2/aug-cc-pvtz', properties = ['dipole'])
--------------------------------------------------------------------------

    Molecular point group: c1
  Charge       = 0
  Multiplicity = 1
  Basis Set: AUG-CC-PVTZ
    Blend: AUG-CC-PVTZ
  Basis Set: (AUG-CC-PVTZ AUX)
    Blend: AUG-CC-PVTZ-JKFIT

    Orbital Energies [Eh]
    ---------------------

    Doubly Occupied:

       1A    -20.505718     2A    -15.580689     3A    -11.339949
       4A    -11.271868     5A    -11.250612     6A    -11.234561
       7A    -11.233406     8A    -11.232857     9A    -11.232066
      10A     -1.361870    11A     -1.241359    12A     -1.095873
      13A     -1.038498    14A     -0.975370    15A     -0.913532
      16A     -0.878053    17A     -0.792980    18A     -0.725576
      19A     -0.690575    20A     -0.668660    21A     -0.633581
      22A     -0.607164    23A     -0.601867    24A     -0.593806
      25A     -0.583493    26A     -0.559266    27A     -0.544345
      28A     -0.527816    29A     -0.510771    30A     -0.508823
      31A     -0.479967    32A     -0.468229    33A     -0.461550
      34A     -0.407455    35A     -0.365701

  @DF-RHF Final Energy:  -402.11186615824835

   => Energetics <=

    Nuclear Repulsion Energy =            486.1746365534495453
    One-Electron Energy =               -1510.3371898499972303
    Two-Electron Energy =                 622.0506871382993950
    Total Energy =                       -402.1118661582482900
  Basis Set: (AUG-CC-PVTZ AUX)
    Blend: AUG-CC-PVTZ-RI
    Molecular point group: c1

    Geometry (in Angstrom), charge = 0, multiplicity = 1:

       Center              X                  Y                   Z               Mass
    ------------   -----------------  -----------------  -----------------  -----------------
         O            1.728797455137     1.562662398063    -0.291105609485    15.994914619570
         N            0.945471455137    -0.529656601937     0.205862390515    14.003074004430
         C           -2.273862544863    -0.288673601937    -0.176500609485    12.000000000000
         C           -1.305706544863    -1.488258801937    -0.317087009485    12.000000000000
         C           -1.644107544863     1.086611398063    -0.395585609485    12.000000000000
         C           -0.129313544863    -1.413598601937     0.645657390515    12.000000000000
         C           -0.503660544863     1.422732398063     0.578251390515    12.000000000000
         C            0.825560455137     0.835432398063     0.140480390515    12.000000000000
         C            2.146703455137    -1.156408601937    -0.325953609485    12.000000000000
         H           -2.715095544863    -0.314232601937     0.829771390515     1.007825032230
         H           -3.106042544863    -0.416775601937    -0.879658609485     1.007825032230
         H           -1.877347544863    -2.398293601937    -0.125517609485     1.007825032230
         H           -0.933895544863    -1.538200601937    -1.340958609485     1.007825032230
         H           -2.428650544863     1.845139398063    -0.289333609485     1.007825032230
         H           -1.269788544863     1.171375398063    -1.423822609485     1.007825032230
         H           -0.469618544863    -1.127689601937     1.649246390515     1.007825032230
         H            0.316833455137    -2.407775601937     0.744981390515     1.007825032230
         H           -0.767055544863     1.102407398063     1.594454390515     1.007825032230
         H           -0.336225544863     2.501835398063     0.606509390515     1.007825032230
         H            1.903434455137    -1.795516601937    -1.182533609485     1.007825032230
         H            2.631108455137    -1.766457601937     0.443481390515     1.007825032230
         H            2.822261455137    -0.364579601937    -0.644127609485     1.007825032230

  Basis Set: AUG-CC-PVTZ
    Blend: AUG-CC-PVTZ
  Basis Set: (AUG-CC-PVTZ AUX)
    Blend: AUG-CC-PVTZ-JKFIT
	 Reference Energy          =    -402.1118661582483469 [Eh]
	 Singles Energy            =      -0.0000000000000000 [Eh]
	 Same-Spin Energy          =      -0.4217008632319633 [Eh]
	 Opposite-Spin Energy      =      -1.4051426893001302 [Eh]
	 Correlation Energy        =      -1.8268435525320934 [Eh]
	 Total Energy              =    -403.9387097107804152 [Eh]

	 ================> DF-SCS-MP2 Energies <==================
	-----------------------------------------------------------
	 SCS Same-Spin Scale       =       0.3333333333333333 [-]
	 SCS Opposite-Spin Scale   =       1.2000000000000000 [-]
	 SCS Same-Spin Energy      =      -0.1405669544106544 [Eh]
	 SCS Opposite-Spin Energy  =      -1.6861712271601561 [Eh]
	 SCS Correlation Energy    =      -1.8267381815708106 [Eh]
	 SCS Total Energy          =    -403.9386043398191646 [Eh]
	-----------------------------------------------------------

  Dipole Moment: [D]
     X:    -2.5774      Y:    -3.1084      Z:     0.7910     Total:     4.1147

*** Psi4 exiting successfully. Buy a developer a beer!
