                               Psi4 1.3.2 release

  ==> Input File <==

--------------------------------------------------------------------------
#psi4
#
memory 32 gb

molecule  {
0 1
  O        1.7739800     1.6003060    -0.2911220
  N        0.9906540    -0.4920130     0.2058460
  C       -2.2286800    -0.2510300    -0.1765170
  C       -1.2730330    -1.4351160    -0.3152870
  C       -1.5989250     1.1242550    -0.3956020
  C       -0.0841310    -1.3759550     0.6456410
  C       -0.4584780     1.4603760     0.5782350
  C        0.8707430     0.8730760     0.1404640
  C        2.1918860    -1.1187650    -0.3259700
  H       -2.6524477    -0.2741222     0.8372931
  H       -3.0608600    -0.3791320    -0.8796750
  H       -1.8321650    -2.3606500    -0.1255340
  H       -0.8887130    -1.5005570    -1.3409750
  H       -2.3834680     1.8827830    -0.2893500
  H       -1.2246060     1.2090190    -1.4238390
  H       -0.4244360    -1.0900460     1.6492300
  H        0.3620160    -2.3701320     0.7449650
  H       -0.7218730     1.1400510     1.5944380
  H       -0.2910430     2.5394790     0.6064930
  H        1.9486170    -1.7578730    -1.1825500
  H        2.6762910    -1.7288140     0.4434650
  H        2.8674440    -0.3269360    -0.6441440
units angstrom
no_reorient  #important for SAPT in psi4, default
symmetry c1  #important for SAPT in psi4, default
}

set PROPERTIES_ORIGIN ["COM"]
properties('MP2/aug-cc-pvtz', properties = ['dipole'])
--------------------------------------------------------------------------

    Molecular point group: c1
  Charge       = 0
  Multiplicity = 1
  Basis Set: AUG-CC-PVTZ
    Blend: AUG-CC-PVTZ
  Basis Set: (AUG-CC-PVTZ AUX)
    Blend: AUG-CC-PVTZ-JKFIT

    Orbital Energies [Eh]
    ---------------------

    Doubly Occupied:

       1A    -20.505721     2A    -15.580596     3A    -11.339954
       4A    -11.272262     5A    -11.250597     6A    -11.234582
       7A    -11.233544     8A    -11.233299     9A    -11.231573
      10A     -1.361862    11A     -1.241217    12A     -1.097696
      13A     -1.038167    14A     -0.975607    15A     -0.913875
      16A     -0.878176    17A     -0.792317    18A     -0.725332
      19A     -0.690779    20A     -0.668779    21A     -0.633472
      22A     -0.608478    23A     -0.601716    24A     -0.594508
      25A     -0.583241    26A     -0.558272    27A     -0.544449
      28A     -0.527095    29A     -0.509764    30A     -0.509410
      31A     -0.478873    32A     -0.467619    33A     -0.465397
      34A     -0.407466    35A     -0.365124

  @DF-RHF Final Energy:  -402.11201041178282

   => Energetics <=

    Nuclear Repulsion Energy =            486.3366366729638912
    One-Electron Energy =               -1510.6556550650054760
    Two-Electron Energy =                 622.2070079802585951
    Total Energy =                       -402.1120104117828760
  Basis Set: (AUG-CC-PVTZ AUX)
    Blend: AUG-CC-PVTZ-RI
    Molecular point group: c1

    Geometry (in Angstrom), charge = 0, multiplicity = 1:

       Center              X                  Y                   Z               Mass
    ------------   -----------------  -----------------  -----------------  -----------------
         O            1.729839991184     1.561179495413    -0.291336875827    15.994914619570
         N            0.946513991184    -0.531139504587     0.205631124173    14.003074004430
         C           -2.272820008816    -0.290156504587    -0.176731875827    12.000000000000
         C           -1.317173008816    -1.474242504587    -0.315501875827    12.000000000000
         C           -1.643065008816     1.085128495413    -0.395816875827    12.000000000000
         C           -0.128271008816    -1.415081504587     0.645426124173    12.000000000000
         C           -0.502618008816     1.421249495413     0.578020124173    12.000000000000
         C            0.826602991184     0.833949495413     0.140249124173    12.000000000000
         C            2.147745991184    -1.157891504587    -0.326184875827    12.000000000000
         H           -2.696587708816    -0.313248704587     0.837078224173     1.007825032230
         H           -3.105000008816    -0.418258504587    -0.879889875827     1.007825032230
         H           -1.876305008816    -2.399776504587    -0.125748875827     1.007825032230
         H           -0.932853008816    -1.539683504587    -1.341189875827     1.007825032230
         H           -2.427608008816     1.843656495413    -0.289564875827     1.007825032230
         H           -1.268746008816     1.169892495413    -1.424053875827     1.007825032230
         H           -0.468576008816    -1.129172504587     1.649015124173     1.007825032230
         H            0.317875991184    -2.409258504587     0.744750124173     1.007825032230
         H           -0.766013008816     1.100924495413     1.594223124173     1.007825032230
         H           -0.335183008816     2.500352495413     0.606278124173     1.007825032230
         H            1.904476991184    -1.796999504587    -1.182764875827     1.007825032230
         H            2.632150991184    -1.767940504587     0.443250124173     1.007825032230
         H            2.823303991184    -0.366062504587    -0.644358875827     1.007825032230

  Basis Set: AUG-CC-PVTZ
    Blend: AUG-CC-PVTZ
  Basis Set: (AUG-CC-PVTZ AUX)
    Blend: AUG-CC-PVTZ-JKFIT
	 Reference Energy          =    -402.1120104117828191 [Eh]
	 Singles Energy            =      -0.0000000000000000 [Eh]
	 Same-Spin Energy          =      -0.4217991666546851 [Eh]
	 Opposite-Spin Energy      =      -1.4052424523483233 [Eh]
	 Correlation Energy        =      -1.8270416190030083 [Eh]
	 Total Energy              =    -403.9390520307858310 [Eh]

	 ================> DF-SCS-MP2 Energies <==================
	-----------------------------------------------------------
	 SCS Same-Spin Scale       =       0.3333333333333333 [-]
	 SCS Opposite-Spin Scale   =       1.2000000000000000 [-]
	 SCS Same-Spin Energy      =      -0.1405997222182284 [Eh]
	 SCS Opposite-Spin Energy  =      -1.6862909428179880 [Eh]
	 SCS Correlation Energy    =      -1.8268906650362164 [Eh]
	 SCS Total Energy          =    -403.9389010768190360 [Eh]
	-----------------------------------------------------------

  Dipole Moment: [D]
     X:    -2.5744      Y:    -3.1030      Z:     0.7923     Total:     4.1090

*** Psi4 exiting successfully. Buy a developer a beer!
