                               Psi4 1.3.2 release

  ==> Input File <==

--------------------------------------------------------------------------
#psi4
#
memory 32 gb

molecule  {
0 1
  O        1.7739800     1.6003060    -0.2911220
  N        0.9906540    -0.4920130     0.2058460
  C       -2.2286800    -0.2510300    -0.1765170
  C       -1.2730330    -1.4351160    -0.3152870
  C       -1.5989250     1.1242550    -0.3956020
  C       -0.0841310    -1.3759550     0.6456410
  C       -0.4584780     1.4603760     0.5782350
  C        0.8707430     0.8730760     0.1404640
  C        2.1918860    -1.1187650    -0.3259700
  H       -2.7502061    -0.2812401     1.0128708
  H       -3.0608600    -0.3791320    -0.8796750
  H       -1.8321650    -2.3606500    -0.1255340
  H       -0.8887130    -1.5005570    -1.3409750
  H       -2.3834680     1.8827830    -0.2893500
  H       -1.2246060     1.2090190    -1.4238390
  H       -0.4244360    -1.0900460     1.6492300
  H        0.3620160    -2.3701320     0.7449650
  H       -0.7218730     1.1400510     1.5944380
  H       -0.2910430     2.5394790     0.6064930
  H        1.9486170    -1.7578730    -1.1825500
  H        2.6762910    -1.7288140     0.4434650
  H        2.8674440    -0.3269360    -0.6441440
units angstrom
no_reorient  #important for SAPT in psi4, default
symmetry c1  #important for SAPT in psi4, default
}

set PROPERTIES_ORIGIN ["COM"]
properties('MP2/aug-cc-pvtz', properties = ['dipole'])
--------------------------------------------------------------------------

    Molecular point group: c1
  Charge       = 0
  Multiplicity = 1
  Basis Set: AUG-CC-PVTZ
    Blend: AUG-CC-PVTZ
  Basis Set: (AUG-CC-PVTZ AUX)
    Blend: AUG-CC-PVTZ-JKFIT

    Orbital Energies [Eh]
    ---------------------

    Doubly Occupied:

       1A    -20.506274     2A    -15.581136     3A    -11.340451
       4A    -11.272608     5A    -11.255634     6A    -11.251120
       7A    -11.237546     8A    -11.236269     9A    -11.233964
      10A     -1.362423    11A     -1.241784    12A     -1.095765
      13A     -1.039013    14A     -0.974113    15A     -0.912401
      16A     -0.879843    17A     -0.781365    18A     -0.725940
      19A     -0.690492    20A     -0.669963    21A     -0.629806
      22A     -0.609943    23A     -0.602677    24A     -0.589870
      25A     -0.582346    26A     -0.555858    27A     -0.545656
      28A     -0.527931    29A     -0.510867    30A     -0.508274
      31A     -0.470537    32A     -0.468060    33A     -0.457527
      34A     -0.408069    35A     -0.365783

  @DF-RHF Final Energy:  -402.09284227866164

   => Energetics <=

    Nuclear Repulsion Energy =            485.4283116289792588
    One-Electron Energy =               -1508.7996969742389410
    Two-Electron Energy =                 621.2785430665979902
    Total Energy =                       -402.0928422786616920
  Basis Set: (AUG-CC-PVTZ AUX)
    Blend: AUG-CC-PVTZ-RI
    Molecular point group: c1

    Geometry (in Angstrom), charge = 0, multiplicity = 1:

       Center              X                  Y                   Z               Mass
    ------------   -----------------  -----------------  -----------------  -----------------
         O            1.730615157072     1.561235936120    -0.292729102414    15.994914619570
         N            0.947289157072    -0.531083063880     0.204238897586    14.003074004430
         C           -2.272044842928    -0.290100063880    -0.178124102414    12.000000000000
         C           -1.316397842928    -1.474186063880    -0.316894102414    12.000000000000
         C           -1.642289842928     1.085184936120    -0.397209102414    12.000000000000
         C           -0.127495842928    -1.415025063880     0.644033897586    12.000000000000
         C           -0.501842842928     1.421305936120     0.576627897586    12.000000000000
         C            0.827378157072     0.834005936120     0.138856897586    12.000000000000
         C            2.148521157072    -1.157835063880    -0.327577102414    12.000000000000
         H           -2.793570942928    -0.320310163880     1.011263697586     1.007825032230
         H           -3.104224842928    -0.418202063880    -0.881282102414     1.007825032230
         H           -1.875529842928    -2.399720063880    -0.127141102414     1.007825032230
         H           -0.932077842928    -1.539627063880    -1.342582102414     1.007825032230
         H           -2.426832842928     1.843712936120    -0.290957102414     1.007825032230
         H           -1.267970842928     1.169948936120    -1.425446102414     1.007825032230
         H           -0.467800842928    -1.129116063880     1.647622897586     1.007825032230
         H            0.318651157072    -2.409202063880     0.743357897586     1.007825032230
         H           -0.765237842928     1.100980936120     1.592830897586     1.007825032230
         H           -0.334407842928     2.500408936120     0.604885897586     1.007825032230
         H            1.905252157072    -1.796943063880    -1.184157102414     1.007825032230
         H            2.632926157072    -1.767884063880     0.441857897586     1.007825032230
         H            2.824079157072    -0.366006063880    -0.645751102414     1.007825032230

  Basis Set: AUG-CC-PVTZ
    Blend: AUG-CC-PVTZ
  Basis Set: (AUG-CC-PVTZ AUX)
    Blend: AUG-CC-PVTZ-JKFIT
	 Reference Energy          =    -402.0928422786616352 [Eh]
	 Singles Energy            =      -0.0000000000000000 [Eh]
	 Same-Spin Energy          =      -0.4218307200295855 [Eh]
	 Opposite-Spin Energy      =      -1.4067605339085643 [Eh]
	 Correlation Energy        =      -1.8285912539381497 [Eh]
	 Total Energy              =    -403.9214335325997922 [Eh]

	 ================> DF-SCS-MP2 Energies <==================
	-----------------------------------------------------------
	 SCS Same-Spin Scale       =       0.3333333333333333 [-]
	 SCS Opposite-Spin Scale   =       1.2000000000000000 [-]
	 SCS Same-Spin Energy      =      -0.1406102400098618 [Eh]
	 SCS Opposite-Spin Energy  =      -1.6881126406902771 [Eh]
	 SCS Correlation Energy    =      -1.8287228807001390 [Eh]
	 SCS Total Energy          =    -403.9215651593617622 [Eh]
	-----------------------------------------------------------

  Dipole Moment: [D]
     X:    -2.4721      Y:    -3.0929      Z:     0.6389     Total:     4.0106

*** Psi4 exiting successfully. Buy a developer a beer!
