                               Psi4 1.4a3.dev225

  ==> Input File <==

--------------------------------------------------------------------------
#psi4
#
memory 32 gb

molecule  {
0 1
  O        1.7739800     1.6003060    -0.2911220
  N        0.9906540    -0.4920130     0.2058460
  C       -2.2286800    -0.2510300    -0.1765170
  C       -1.2730330    -1.4351160    -0.3152870
  C       -1.5989250     1.1242550    -0.3956020
  C       -0.0841310    -1.3759550     0.6456410
  C       -0.4584780     1.4603760     0.5782350
  C        0.8882593     0.8653366     0.1346951
  C        2.1918860    -1.1187650    -0.3259700
  H       -2.6699130    -0.2765890     0.8297550
  H       -3.0608600    -0.3791320    -0.8796750
  H       -1.8321650    -2.3606500    -0.1255340
  H       -0.8887130    -1.5005570    -1.3409750
  H       -2.3834680     1.8827830    -0.2893500
  H       -1.2246060     1.2090190    -1.4238390
  H       -0.4244360    -1.0900460     1.6492300
  H        0.3620160    -2.3701320     0.7449650
  H       -0.7218730     1.1400510     1.5944380
  H       -0.2910430     2.5394790     0.6064930
  H        1.9486170    -1.7578730    -1.1825500
  H        2.6762910    -1.7288140     0.4434650
  H        2.8674440    -0.3269360    -0.6441440
units angstrom
no_reorient  #important for SAPT in psi4, default
symmetry c1  #important for SAPT in psi4, default
}

set PROPERTIES_ORIGIN ["COM"]
properties('MP2/aug-cc-pvtz', properties = ['dipole'])
--------------------------------------------------------------------------

    Molecular point group: c1
  Charge       = 0
  Multiplicity = 1
  Basis Set: AUG-CC-PVTZ
    Blend: AUG-CC-PVTZ
  Basis Set: (AUG-CC-PVTZ AUX)
    Blend: AUG-CC-PVTZ-JKFIT

    Orbital Energies [Eh]
    ---------------------

    Doubly Occupied:

       1A    -20.506144     2A    -15.581023     3A    -11.338469
       4A    -11.273118     5A    -11.250928     6A    -11.233506
       7A    -11.233347     8A    -11.232359     9A    -11.230959
      10A     -1.367622    11A     -1.244604    12A     -1.096484
      13A     -1.036238    14A     -0.974810    15A     -0.915416
      16A     -0.876439    17A     -0.791844    18A     -0.725842
      19A     -0.689541    20A     -0.668975    21A     -0.634495
      22A     -0.608275    23A     -0.602627    24A     -0.594577
      25A     -0.582376    26A     -0.558459    27A     -0.543755
      28A     -0.528165    29A     -0.511339    30A     -0.509950
      31A     -0.478916    32A     -0.467766    33A     -0.464810
      34A     -0.405289    35A     -0.366874

  @DF-RHF Final Energy:  -402.11277482473866

   => Energetics <=

    Nuclear Repulsion Energy =            486.3604183073011882
    One-Electron Energy =               -1510.6957019079507063
    Two-Electron Energy =                 622.2225087759109101
    Total Energy =                       -402.1127748247386080
  Basis Set: (AUG-CC-PVTZ AUX)
    Blend: AUG-CC-PVTZ-RI
    Molecular point group: c1

    Geometry (in Angstrom), charge = 0, multiplicity = 1:

       Center              X                  Y                   Z               Mass
    ------------   -----------------  -----------------  -----------------  -----------------
         O            1.728324695615     1.561929763842    -0.290732437914    15.994914619570
         N            0.944998695615    -0.530389236158     0.206235562086    14.003074004430
         C           -2.274335304385    -0.289406236158    -0.176127437914    12.000000000000
         C           -1.318688304385    -1.473492236158    -0.314897437914    12.000000000000
         C           -1.644580304385     1.085878763842    -0.395212437914    12.000000000000
         C           -0.129786304385    -1.414331236158     0.646030562086    12.000000000000
         C           -0.504133304385     1.421999763842     0.578624562086    12.000000000000
         C            0.842603995615     0.826960363842     0.135084662086    12.000000000000
         C            2.146230695615    -1.157141236158    -0.325580437914    12.000000000000
         H           -2.715568304385    -0.314965236158     0.830144562086     1.007825032230
         H           -3.106515304385    -0.417508236158    -0.879285437914     1.007825032230
         H           -1.877820304385    -2.399026236158    -0.125144437914     1.007825032230
         H           -0.934368304385    -1.538933236158    -1.340585437914     1.007825032230
         H           -2.429123304385     1.844406763842    -0.288960437914     1.007825032230
         H           -1.270261304385     1.170642763842    -1.423449437914     1.007825032230
         H           -0.470091304385    -1.128422236158     1.649619562086     1.007825032230
         H            0.316360695615    -2.408508236158     0.745354562086     1.007825032230
         H           -0.767528304385     1.101674763842     1.594827562086     1.007825032230
         H           -0.336698304385     2.501102763842     0.606882562086     1.007825032230
         H            1.902961695615    -1.796249236158    -1.182160437914     1.007825032230
         H            2.630635695615    -1.767190236158     0.443854562086     1.007825032230
         H            2.821788695615    -0.365312236158    -0.643754437914     1.007825032230

  Basis Set: AUG-CC-PVTZ
    Blend: AUG-CC-PVTZ
  Basis Set: (AUG-CC-PVTZ AUX)
    Blend: AUG-CC-PVTZ-JKFIT
	 Reference Energy          =    -402.1127748247386648 [Eh]
	 Singles Energy            =      -0.0000000000000000 [Eh]
	 Same-Spin Energy          =      -0.4214396940890497 [Eh]
	 Opposite-Spin Energy      =      -1.4046042485253265 [Eh]
	 Correlation Energy        =      -1.8260439426143762 [Eh]
	 Total Energy              =    -403.9388187673530410 [Eh]

	 ================> DF-SCS-MP2 Energies <==================
	-----------------------------------------------------------
	 SCS Same-Spin Scale       =       0.3333333333333333 [-]
	 SCS Opposite-Spin Scale   =       1.2000000000000000 [-]
	 SCS Same-Spin Energy      =      -0.1404798980296832 [Eh]
	 SCS Opposite-Spin Energy  =      -1.6855250982303918 [Eh]
	 SCS Correlation Energy    =      -1.8260049962600751 [Eh]
	 SCS Total Energy          =    -403.9387798209987182 [Eh]
	-----------------------------------------------------------

  Dipole Moment: [D]
     X:    -2.5035      Y:    -3.1449      Z:     0.7760     Total:     4.0939

*** Psi4 exiting successfully. Buy a developer a beer!
