                               Psi4 1.3.2 release

  ==> Input File <==

--------------------------------------------------------------------------
#psi4
#
memory 32 gb

molecule  {
0 1
  O        1.7739800     1.6003060    -0.2911220
  N        0.9906540    -0.4920130     0.2058460
  C       -2.2286800    -0.2510300    -0.1765170
  C       -1.2730330    -1.4351160    -0.3152870
  C       -1.5989250     1.1242550    -0.3956020
  C       -0.0104868    -1.3153874     0.6155063
  C       -0.4584780     1.4603760     0.5782350
  C        0.8707430     0.8730760     0.1404640
  C        2.1918860    -1.1187650    -0.3259700
  H       -2.6699130    -0.2765890     0.8297550
  H       -3.0608600    -0.3791320    -0.8796750
  H       -1.8321650    -2.3606500    -0.1255340
  H       -0.8887130    -1.5005570    -1.3409750
  H       -2.3834680     1.8827830    -0.2893500
  H       -1.2246060     1.2090190    -1.4238390
  H       -0.4244360    -1.0900460     1.6492300
  H        0.3620160    -2.3701320     0.7449650
  H       -0.7218730     1.1400510     1.5944380
  H       -0.2910430     2.5394790     0.6064930
  H        1.9486170    -1.7578730    -1.1825500
  H        2.6762910    -1.7288140     0.4434650
  H        2.8674440    -0.3269360    -0.6441440
units angstrom
no_reorient  #important for SAPT in psi4, default
symmetry c1  #important for SAPT in psi4, default
}

set PROPERTIES_ORIGIN ["COM"]
properties('MP2/aug-cc-pvtz', properties = ['dipole'])
--------------------------------------------------------------------------

    Molecular point group: c1
  Charge       = 0
  Multiplicity = 1
  Basis Set: AUG-CC-PVTZ
    Blend: AUG-CC-PVTZ
  Basis Set: (AUG-CC-PVTZ AUX)
    Blend: AUG-CC-PVTZ-JKFIT

    Orbital Energies [Eh]
    ---------------------

    Doubly Occupied:

       1A    -20.510741     2A    -15.583220     3A    -11.344416
       4A    -11.271846     5A    -11.253972     6A    -11.235210
       7A    -11.234501     8A    -11.231720     9A    -11.229474
      10A     -1.368851    11A     -1.265563    12A     -1.095759
      13A     -1.032711    14A     -0.979104    15A     -0.914466
      16A     -0.885040    17A     -0.792017    18A     -0.731916
      19A     -0.694918    20A     -0.672575    21A     -0.640414
      22A     -0.608457    23A     -0.601471    24A     -0.596302
      25A     -0.580187    26A     -0.555721    27A     -0.544097
      28A     -0.534436    29A     -0.507440    30A     -0.506776
      31A     -0.477050    32A     -0.467828    33A     -0.459400
      34A     -0.410827    35A     -0.362125

  @DF-RHF Final Energy:  -402.10127062107978

   => Energetics <=

    Nuclear Repulsion Energy =            487.7539106279185717
    One-Electron Energy =               -1513.3492593078965456
    Two-Electron Energy =                 623.4940780588983671
    Total Energy =                       -402.1012706210797205
  Basis Set: (AUG-CC-PVTZ AUX)
    Blend: AUG-CC-PVTZ-RI
    Molecular point group: c1

    Geometry (in Angstrom), charge = 0, multiplicity = 1:

       Center              X                  Y                   Z               Mass
    ------------   -----------------  -----------------  -----------------  -----------------
         O            1.723025432709     1.555480622660    -0.288431963816    15.994914619570
         N            0.939699432709    -0.536838377340     0.208536036184    14.003074004430
         C           -2.279634567291    -0.295855377340    -0.173826963816    12.000000000000
         C           -1.323987567291    -1.479941377340    -0.312596963816    12.000000000000
         C           -1.649879567291     1.079429622660    -0.392911963816    12.000000000000
         C           -0.061441367291    -1.360212777340     0.618196336184    12.000000000000
         C           -0.509432567291     1.415550622660     0.580925036184    12.000000000000
         C            0.819788432709     0.828250622660     0.143154036184    12.000000000000
         C            2.140931432709    -1.163590377340    -0.323279963816    12.000000000000
         H           -2.720867567291    -0.321414377340     0.832445036184     1.007825032230
         H           -3.111814567291    -0.423957377340    -0.876984963816     1.007825032230
         H           -1.883119567291    -2.405475377340    -0.122843963816     1.007825032230
         H           -0.939667567291    -1.545382377340    -1.338284963816     1.007825032230
         H           -2.434422567291     1.837957622660    -0.286659963816     1.007825032230
         H           -1.275560567291     1.164193622660    -1.421148963816     1.007825032230
         H           -0.475390567291    -1.134871377340     1.651920036184     1.007825032230
         H            0.311061432709    -2.414957377340     0.747655036184     1.007825032230
         H           -0.772827567291     1.095225622660     1.597128036184     1.007825032230
         H           -0.341997567291     2.494653622660     0.609183036184     1.007825032230
         H            1.897662432709    -1.802698377340    -1.179859963816     1.007825032230
         H            2.625336432709    -1.773639377340     0.446155036184     1.007825032230
         H            2.816489432709    -0.371761377340    -0.641453963816     1.007825032230

  Basis Set: AUG-CC-PVTZ
    Blend: AUG-CC-PVTZ
  Basis Set: (AUG-CC-PVTZ AUX)
    Blend: AUG-CC-PVTZ-JKFIT
	 Reference Energy          =    -402.1012706210797774 [Eh]
	 Singles Energy            =      -0.0000000000000000 [Eh]
	 Same-Spin Energy          =      -0.4226850669328415 [Eh]
	 Opposite-Spin Energy      =      -1.4059477836911694 [Eh]
	 Correlation Energy        =      -1.8286328506240108 [Eh]
	 Total Energy              =    -403.9299034717037671 [Eh]

	 ================> DF-SCS-MP2 Energies <==================
	-----------------------------------------------------------
	 SCS Same-Spin Scale       =       0.3333333333333333 [-]
	 SCS Opposite-Spin Scale   =       1.2000000000000000 [-]
	 SCS Same-Spin Energy      =      -0.1408950223109471 [Eh]
	 SCS Opposite-Spin Energy  =      -1.6871373404294032 [Eh]
	 SCS Correlation Energy    =      -1.8280323627403503 [Eh]
	 SCS Total Energy          =    -403.9293029838201505 [Eh]
	-----------------------------------------------------------

  Dipole Moment: [D]
     X:    -2.3306      Y:    -2.8927      Z:     0.7087     Total:     3.7818

*** Psi4 exiting successfully. Buy a developer a beer!
