                               Psi4 1.3.2 release

  ==> Input File <==

--------------------------------------------------------------------------
#psi4
#
memory 32 gb

molecule  {
0 1
  O        1.7739800     1.6003060    -0.2911220
  N        0.9906540    -0.4920130     0.2058460
  C       -2.2286800    -0.2510300    -0.1765170
  C       -1.2730330    -1.4351160    -0.3152870
  C       -1.5989250     1.1242550    -0.3956020
  C       -0.0841310    -1.3759550     0.6456410
  C       -0.4584780     1.4603760     0.5782350
  C        0.8707430     0.8730760     0.1404640
  C        2.1918860    -1.1187650    -0.3259700
  H       -2.6699130    -0.2765890     0.8297550
  H       -3.0608600    -0.3791320    -0.8796750
  H       -1.8321650    -2.3606500    -0.1255340
  H       -0.8887130    -1.5005570    -1.3409750
  H       -2.3834680     1.8827830    -0.2893500
  H       -1.2246060     1.2090190    -1.4238390
  H       -0.4554403    -1.0639976     1.7406642
  H        0.3620160    -2.3701320     0.7449650
  H       -0.7218730     1.1400510     1.5944380
  H       -0.2910430     2.5394790     0.6064930
  H        1.9486170    -1.7578730    -1.1825500
  H        2.6762910    -1.7288140     0.4434650
  H        2.8674440    -0.3269360    -0.6441440
units angstrom
no_reorient  #important for SAPT in psi4, default
symmetry c1  #important for SAPT in psi4, default
}

set PROPERTIES_ORIGIN ["COM"]
properties('MP2/aug-cc-pvtz', properties = ['dipole'])
--------------------------------------------------------------------------

    Molecular point group: c1
  Charge       = 0
  Multiplicity = 1
  Basis Set: AUG-CC-PVTZ
    Blend: AUG-CC-PVTZ
  Basis Set: (AUG-CC-PVTZ AUX)
    Blend: AUG-CC-PVTZ-JKFIT

    Orbital Energies [Eh]
    ---------------------

    Doubly Occupied:

       1A    -20.506329     2A    -15.582027     3A    -11.340413
       4A    -11.283975     5A    -11.251515     6A    -11.234702
       7A    -11.234641     8A    -11.233226     9A    -11.231567
      10A     -1.362426    11A     -1.241589    12A     -1.097441
      13A     -1.037087    14A     -0.974088    15A     -0.913076
      16A     -0.877104    17A     -0.791359    18A     -0.719071
      19A     -0.689993    20A     -0.669520    21A     -0.632858
      22A     -0.607948    23A     -0.601547    24A     -0.593851
      25A     -0.581232    26A     -0.556435    27A     -0.544904
      28A     -0.527399    29A     -0.509583    30A     -0.503558
      31A     -0.479088    32A     -0.467653    33A     -0.464775
      34A     -0.407837    35A     -0.365023

  @DF-RHF Final Energy:  -402.10537284692026

   => Energetics <=

    Nuclear Repulsion Energy =            485.8333601218829472
    One-Electron Energy =               -1509.6477871087188305
    Two-Electron Energy =                 621.7090541399156791
    Total Energy =                       -402.1053728469202042
  Basis Set: (AUG-CC-PVTZ AUX)
    Blend: AUG-CC-PVTZ-RI
    Molecular point group: c1

    Geometry (in Angstrom), charge = 0, multiplicity = 1:

       Center              X                  Y                   Z               Mass
    ------------   -----------------  -----------------  -----------------  -----------------
         O            1.730224326244     1.560992507370    -0.292002121931    15.994914619570
         N            0.946898326244    -0.531326492630     0.204965878069    14.003074004430
         C           -2.272435673756    -0.290343492630    -0.177397121931    12.000000000000
         C           -1.316788673756    -1.474429492630    -0.316167121931    12.000000000000
         C           -1.642680673756     1.084941507370    -0.396482121931    12.000000000000
         C           -0.127886673756    -1.415268492630     0.644760878069    12.000000000000
         C           -0.502233673756     1.421062507370     0.577354878069    12.000000000000
         C            0.826987326244     0.833762507370     0.139583878069    12.000000000000
         C            2.148130326244    -1.158078492630    -0.326850121931    12.000000000000
         H           -2.713668673756    -0.315902492630     0.828874878069     1.007825032230
         H           -3.104615673756    -0.418445492630    -0.880555121931     1.007825032230
         H           -1.875920673756    -2.399963492630    -0.126414121931     1.007825032230
         H           -0.932468673756    -1.539870492630    -1.341855121931     1.007825032230
         H           -2.427223673756     1.843469507370    -0.290230121931     1.007825032230
         H           -1.268361673756     1.169705507370    -1.424719121931     1.007825032230
         H           -0.499195973756    -1.103311092630     1.739784078069     1.007825032230
         H            0.318260326244    -2.409445492630     0.744084878069     1.007825032230
         H           -0.765628673756     1.100737507370     1.593557878069     1.007825032230
         H           -0.334798673756     2.500165507370     0.605612878069     1.007825032230
         H            1.904861326244    -1.797186492630    -1.183430121931     1.007825032230
         H            2.632535326244    -1.768127492630     0.442584878069     1.007825032230
         H            2.823688326244    -0.366249492630    -0.645024121931     1.007825032230

  Basis Set: AUG-CC-PVTZ
    Blend: AUG-CC-PVTZ
  Basis Set: (AUG-CC-PVTZ AUX)
    Blend: AUG-CC-PVTZ-JKFIT
	 Reference Energy          =    -402.1053728469202611 [Eh]
	 Singles Energy            =      -0.0000000000000000 [Eh]
	 Same-Spin Energy          =      -0.4219912636765518 [Eh]
	 Opposite-Spin Energy      =      -1.4060951996350344 [Eh]
	 Correlation Energy        =      -1.8280864633115863 [Eh]
	 Total Energy              =    -403.9334593102318536 [Eh]

	 ================> DF-SCS-MP2 Energies <==================
	-----------------------------------------------------------
	 SCS Same-Spin Scale       =       0.3333333333333333 [-]
	 SCS Opposite-Spin Scale   =       1.2000000000000000 [-]
	 SCS Same-Spin Energy      =      -0.1406637545588506 [Eh]
	 SCS Opposite-Spin Energy  =      -1.6873142395620413 [Eh]
	 SCS Correlation Energy    =      -1.8279779941208920 [Eh]
	 SCS Total Energy          =    -403.9333508410411469 [Eh]
	-----------------------------------------------------------

  Dipole Moment: [D]
     X:    -2.5448      Y:    -3.0909      Z:     0.7193     Total:     4.0678

*** Psi4 exiting successfully. Buy a developer a beer!
