                               Psi4 1.3.2 release

  ==> Input File <==

--------------------------------------------------------------------------
#psi4
#
memory 32 gb

molecule  {
0 1
  O        1.7739800     1.6003060    -0.2911220
  N        0.9940218    -0.5451776     0.1190185
  C       -2.2286800    -0.2510300    -0.1765170
  C       -1.2730330    -1.4351160    -0.3152870
  C       -1.5989250     1.1242550    -0.3956020
  C       -0.0841310    -1.3759550     0.6456410
  C       -0.4584780     1.4603760     0.5782350
  C        0.8707430     0.8730760     0.1404640
  C        2.1918860    -1.1187650    -0.3259700
  H       -2.6699130    -0.2765890     0.8297550
  H       -3.0608600    -0.3791320    -0.8796750
  H       -1.8321650    -2.3606500    -0.1255340
  H       -0.8887130    -1.5005570    -1.3409750
  H       -2.3834680     1.8827830    -0.2893500
  H       -1.2246060     1.2090190    -1.4238390
  H       -0.4244360    -1.0900460     1.6492300
  H        0.3620160    -2.3701320     0.7449650
  H       -0.7218730     1.1400510     1.5944380
  H       -0.2910430     2.5394790     0.6064930
  H        1.9486170    -1.7578730    -1.1825500
  H        2.6762910    -1.7288140     0.4434650
  H        2.8674440    -0.3269360    -0.6441440
units angstrom
no_reorient  #important for SAPT in psi4, default
symmetry c1  #important for SAPT in psi4, default
}

set PROPERTIES_ORIGIN ["COM"]
properties('MP2/aug-cc-pvtz', properties = ['dipole'])
--------------------------------------------------------------------------

    Molecular point group: c1
  Charge       = 0
  Multiplicity = 1
  Basis Set: AUG-CC-PVTZ
    Blend: AUG-CC-PVTZ
  Basis Set: (AUG-CC-PVTZ AUX)
    Blend: AUG-CC-PVTZ-JKFIT

    Orbital Energies [Eh]
    ---------------------

    Doubly Occupied:

       1A    -20.513991     2A    -15.575784     3A    -11.347233
       4A    -11.270192     5A    -11.243772     6A    -11.237988
       7A    -11.235897     8A    -11.231531     9A    -11.230657
      10A     -1.363967    11A     -1.242165    12A     -1.099553
      13A     -1.036734    14A     -0.979143    15A     -0.902550
      16A     -0.877005    17A     -0.791349    18A     -0.728745
      19A     -0.692285    20A     -0.668930    21A     -0.633873
      22A     -0.609626    23A     -0.603252    24A     -0.595338
      25A     -0.583262    26A     -0.560583    27A     -0.550430
      28A     -0.519432    29A     -0.512757    30A     -0.504467
      31A     -0.479439    32A     -0.469268    33A     -0.464930
      34A     -0.411784    35A     -0.358589

  @DF-RHF Final Energy:  -402.10421724425805

   => Energetics <=

    Nuclear Repulsion Energy =            486.1067493848748313
    One-Electron Energy =               -1510.1689275009819085
    Two-Electron Energy =                 621.9579608718490817
    Total Energy =                       -402.1042172442580522
  Basis Set: (AUG-CC-PVTZ AUX)
    Blend: AUG-CC-PVTZ-RI
    Molecular point group: c1

    Geometry (in Angstrom), charge = 0, multiplicity = 1:

       Center              X                  Y                   Z               Mass
    ------------   -----------------  -----------------  -----------------  -----------------
         O            1.729607436876     1.567056408171    -0.281710976955    15.994914619570
         N            0.949649236876    -0.578427191829     0.128429523045    14.003074004430
         C           -2.273052563124    -0.284279591829    -0.167105976955    12.000000000000
         C           -1.317405563124    -1.468365591829    -0.305875976955    12.000000000000
         C           -1.643297563124     1.091005408171    -0.386190976955    12.000000000000
         C           -0.128503563124    -1.409204591829     0.655052023045    12.000000000000
         C           -0.502850563124     1.427126408171     0.587646023045    12.000000000000
         C            0.826370436876     0.839826408171     0.149875023045    12.000000000000
         C            2.147513436876    -1.152014591829    -0.316558976955    12.000000000000
         H           -2.714285563124    -0.309838591829     0.839166023045     1.007825032230
         H           -3.105232563124    -0.412381591829    -0.870263976955     1.007825032230
         H           -1.876537563124    -2.393899591829    -0.116122976955     1.007825032230
         H           -0.933085563124    -1.533806591829    -1.331563976955     1.007825032230
         H           -2.427840563124     1.849533408171    -0.279938976955     1.007825032230
         H           -1.268978563124     1.175769408171    -1.414427976955     1.007825032230
         H           -0.468808563124    -1.123295591829     1.658641023045     1.007825032230
         H            0.317643436876    -2.403381591829     0.754376023045     1.007825032230
         H           -0.766245563124     1.106801408171     1.603849023045     1.007825032230
         H           -0.335415563124     2.506229408171     0.615904023045     1.007825032230
         H            1.904244436876    -1.791122591829    -1.173138976955     1.007825032230
         H            2.631918436876    -1.762063591829     0.452876023045     1.007825032230
         H            2.823071436876    -0.360185591829    -0.634732976955     1.007825032230

  Basis Set: AUG-CC-PVTZ
    Blend: AUG-CC-PVTZ
  Basis Set: (AUG-CC-PVTZ AUX)
    Blend: AUG-CC-PVTZ-JKFIT
	 Reference Energy          =    -402.1042172442580522 [Eh]
	 Singles Energy            =      -0.0000000000000000 [Eh]
	 Same-Spin Energy          =      -0.4224437828052500 [Eh]
	 Opposite-Spin Energy      =      -1.4062110770108078 [Eh]
	 Correlation Energy        =      -1.8286548598160579 [Eh]
	 Total Energy              =    -403.9328721040741357 [Eh]

	 ================> DF-SCS-MP2 Energies <==================
	-----------------------------------------------------------
	 SCS Same-Spin Scale       =       0.3333333333333333 [-]
	 SCS Opposite-Spin Scale   =       1.2000000000000000 [-]
	 SCS Same-Spin Energy      =      -0.1408145942684167 [Eh]
	 SCS Opposite-Spin Energy  =      -1.6874532924129693 [Eh]
	 SCS Correlation Energy    =      -1.8282678866813860 [Eh]
	 SCS Total Energy          =    -403.9324851309394262 [Eh]
	-----------------------------------------------------------

  Dipole Moment: [D]
     X:    -2.5991      Y:    -2.7550      Z:     0.9050     Total:     3.8941

*** Psi4 exiting successfully. Buy a developer a beer!
