                               Psi4 1.3.2 release

  ==> Input File <==

--------------------------------------------------------------------------
#psi4
#
memory 32 gb

molecule  {
0 1
  O        1.7739800     1.6003060    -0.2911220
  N        0.9906540    -0.4920130     0.2058460
  C       -2.2286800    -0.2510300    -0.1765170
  C       -1.2730330    -1.4351160    -0.3152870
  C       -1.5989250     1.1242550    -0.3956020
  C       -0.0841310    -1.3759550     0.6456410
  C       -0.4584780     1.4603760     0.5782350
  C        0.8707430     0.8730760     0.1404640
  C        2.1918860    -1.1187650    -0.3259700
  H       -2.6699130    -0.2765890     0.8297550
  H       -3.0608600    -0.3791320    -0.8796750
  H       -1.8321650    -2.3606500    -0.1255340
  H       -0.8887130    -1.5005570    -1.3409750
  H       -2.5265764     2.0211460    -0.2699686
  H       -1.2246060     1.2090190    -1.4238390
  H       -0.4244360    -1.0900460     1.6492300
  H        0.3620160    -2.3701320     0.7449650
  H       -0.7218730     1.1400510     1.5944380
  H       -0.2910430     2.5394790     0.6064930
  H        1.9486170    -1.7578730    -1.1825500
  H        2.6762910    -1.7288140     0.4434650
  H        2.8674440    -0.3269360    -0.6441440
units angstrom
no_reorient  #important for SAPT in psi4, default
symmetry c1  #important for SAPT in psi4, default
}

set PROPERTIES_ORIGIN ["COM"]
properties('MP2/aug-cc-pvtz', properties = ['dipole'])
--------------------------------------------------------------------------

    Molecular point group: c1
  Charge       = 0
  Multiplicity = 1
  Basis Set: AUG-CC-PVTZ
    Blend: AUG-CC-PVTZ
  Basis Set: (AUG-CC-PVTZ AUX)
    Blend: AUG-CC-PVTZ-JKFIT

    Orbital Energies [Eh]
    ---------------------

    Doubly Occupied:

       1A    -20.507384     2A    -15.582192     3A    -11.341756
       4A    -11.273620     5A    -11.257684     6A    -11.251741
       7A    -11.235766     8A    -11.235383     9A    -11.233637
      10A     -1.363448    11A     -1.242764    12A     -1.096444
      13A     -1.038285    14A     -0.975614    15A     -0.915008
      16A     -0.872986    17A     -0.788588    18A     -0.726575
      19A     -0.690943    20A     -0.667716    21A     -0.634797
      22A     -0.607581    23A     -0.603624    24A     -0.589255
      25A     -0.574536    26A     -0.559645    27A     -0.544007
      28A     -0.528217    29A     -0.510659    30A     -0.508798
      31A     -0.480977    32A     -0.469493    33A     -0.451444
      34A     -0.407388    35A     -0.366469

  @DF-RHF Final Energy:  -402.09205025548778

   => Energetics <=

    Nuclear Repulsion Energy =            485.3541816854794320
    One-Electron Energy =               -1508.6236133305701514
    Two-Electron Energy =                 621.1773813896028287
    Total Energy =                       -402.0920502554878340
  Basis Set: (AUG-CC-PVTZ AUX)
    Blend: AUG-CC-PVTZ-RI
    Molecular point group: c1

    Geometry (in Angstrom), charge = 0, multiplicity = 1:

       Center              X                  Y                   Z               Mass
    ------------   -----------------  -----------------  -----------------  -----------------
         O            1.731113244988     1.560101919486    -0.291430786142    15.994914619570
         N            0.947787244988    -0.532217080514     0.205537213858    14.003074004430
         C           -2.271546755012    -0.291234080514    -0.176825786142    12.000000000000
         C           -1.315899755012    -1.475320080514    -0.315595786142    12.000000000000
         C           -1.641791755012     1.084050919486    -0.395910786142    12.000000000000
         C           -0.126997755012    -1.416159080514     0.645332213858    12.000000000000
         C           -0.501344755012     1.420171919486     0.577926213858    12.000000000000
         C            0.827876244988     0.832871919486     0.140155213858    12.000000000000
         C            2.149019244988    -1.158969080514    -0.326278786142    12.000000000000
         H           -2.712779755012    -0.316793080514     0.829446213858     1.007825032230
         H           -3.103726755012    -0.419336080514    -0.879983786142     1.007825032230
         H           -1.875031755012    -2.400854080514    -0.125842786142     1.007825032230
         H           -0.931579755012    -1.540761080514    -1.341283786142     1.007825032230
         H           -2.569443155012     1.980941919486    -0.270277386142     1.007825032230
         H           -1.267472755012     1.168814919486    -1.424147786142     1.007825032230
         H           -0.467302755012    -1.130250080514     1.648921213858     1.007825032230
         H            0.319149244988    -2.410336080514     0.744656213858     1.007825032230
         H           -0.764739755012     1.099846919486     1.594129213858     1.007825032230
         H           -0.333909755012     2.499274919486     0.606184213858     1.007825032230
         H            1.905750244988    -1.798077080514    -1.182858786142     1.007825032230
         H            2.633424244988    -1.769018080514     0.443156213858     1.007825032230
         H            2.824577244988    -0.367140080514    -0.644452786142     1.007825032230

  Basis Set: AUG-CC-PVTZ
    Blend: AUG-CC-PVTZ
  Basis Set: (AUG-CC-PVTZ AUX)
    Blend: AUG-CC-PVTZ-JKFIT
	 Reference Energy          =    -402.0920502554877771 [Eh]
	 Singles Energy            =      -0.0000000000000000 [Eh]
	 Same-Spin Energy          =      -0.4218970385457045 [Eh]
	 Opposite-Spin Energy      =      -1.4070188912659862 [Eh]
	 Correlation Energy        =      -1.8289159298116906 [Eh]
	 Total Energy              =    -403.9209661852994486 [Eh]

	 ================> DF-SCS-MP2 Energies <==================
	-----------------------------------------------------------
	 SCS Same-Spin Scale       =       0.3333333333333333 [-]
	 SCS Opposite-Spin Scale   =       1.2000000000000000 [-]
	 SCS Same-Spin Energy      =      -0.1406323461819015 [Eh]
	 SCS Opposite-Spin Energy  =      -1.6884226695191835 [Eh]
	 SCS Correlation Energy    =      -1.8290550157010850 [Eh]
	 SCS Total Energy          =    -403.9211052711888783 [Eh]
	-----------------------------------------------------------

  Dipole Moment: [D]
     X:    -2.4262      Y:    -3.2516      Z:     0.8059     Total:     4.1362

*** Psi4 exiting successfully. Buy a developer a beer!
