                               Psi4 1.3.2 release

  ==> Input File <==

--------------------------------------------------------------------------
#psi4
#
memory 32 gb

molecule  {
0 1
  O        1.7739800     1.6003060    -0.2911220
  N        0.9906540    -0.4920130     0.2058460
  C       -2.1947920    -0.2590756    -0.1361075
  C       -1.2730330    -1.4351160    -0.3152870
  C       -1.5989250     1.1242550    -0.3956020
  C       -0.0841310    -1.3759550     0.6456410
  C       -0.4584780     1.4603760     0.5782350
  C        0.8707430     0.8730760     0.1404640
  C        2.1918860    -1.1187650    -0.3259700
  H       -2.6699130    -0.2765890     0.8297550
  H       -3.0608600    -0.3791320    -0.8796750
  H       -1.8321650    -2.3606500    -0.1255340
  H       -0.8887130    -1.5005570    -1.3409750
  H       -2.3834680     1.8827830    -0.2893500
  H       -1.2246060     1.2090190    -1.4238390
  H       -0.4244360    -1.0900460     1.6492300
  H        0.3620160    -2.3701320     0.7449650
  H       -0.7218730     1.1400510     1.5944380
  H       -0.2910430     2.5394790     0.6064930
  H        1.9486170    -1.7578730    -1.1825500
  H        2.6762910    -1.7288140     0.4434650
  H        2.8674440    -0.3269360    -0.6441440
units angstrom
no_reorient  #important for SAPT in psi4, default
symmetry c1  #important for SAPT in psi4, default
}

set PROPERTIES_ORIGIN ["COM"]
properties('MP2/aug-cc-pvtz', properties = ['dipole'])
--------------------------------------------------------------------------

    Molecular point group: c1
  Charge       = 0
  Multiplicity = 1
  Basis Set: AUG-CC-PVTZ
    Blend: AUG-CC-PVTZ
  Basis Set: (AUG-CC-PVTZ AUX)
    Blend: AUG-CC-PVTZ-JKFIT

    Orbital Energies [Eh]
    ---------------------

    Doubly Occupied:

       1A    -20.505628     2A    -15.580673     3A    -11.339865
       4A    -11.271573     5A    -11.250663     6A    -11.235156
       7A    -11.233248     8A    -11.232609     9A    -11.232526
      10A     -1.361807    11A     -1.241426    12A     -1.100225
      13A     -1.039805    14A     -0.974634    15A     -0.913286
      16A     -0.878907    17A     -0.793226    18A     -0.725199
      19A     -0.690238    20A     -0.668987    21A     -0.634286
      22A     -0.608886    23A     -0.603028    24A     -0.592452
      25A     -0.584054    26A     -0.558941    27A     -0.543046
      28A     -0.528066    29A     -0.510601    30A     -0.505532
      31A     -0.487068    32A     -0.470087    33A     -0.456729
      34A     -0.407002    35A     -0.364824

  @DF-RHF Final Energy:  -402.10860489369685

   => Energetics <=

    Nuclear Repulsion Energy =            486.9115278846938395
    One-Electron Energy =               -1511.7916940114726003
    Two-Electron Energy =                 622.7715612330817976
    Total Energy =                       -402.1086048936969064
  Basis Set: (AUG-CC-PVTZ AUX)
    Blend: AUG-CC-PVTZ-RI
    Molecular point group: c1

    Geometry (in Angstrom), charge = 0, multiplicity = 1:

       Center              X                  Y                   Z               Mass
    ------------   -----------------  -----------------  -----------------  -----------------
         O            1.726778976953     1.561958673427    -0.295092328132    15.994914619570
         N            0.943452976953    -0.530360326573     0.201875671868    14.003074004430
         C           -2.241993023047    -0.297422926573    -0.140077828132    12.000000000000
         C           -1.320234023047    -1.473463326573    -0.319257328132    12.000000000000
         C           -1.646126023047     1.085907673427    -0.399572328132    12.000000000000
         C           -0.131332023047    -1.414302326573     0.641670671868    12.000000000000
         C           -0.505679023047     1.422028673427     0.574264671868    12.000000000000
         C            0.823541976953     0.834728673427     0.136493671868    12.000000000000
         C            2.144684976953    -1.157112326573    -0.329940328132    12.000000000000
         H           -2.717114023047    -0.314936326573     0.825784671868     1.007825032230
         H           -3.108061023047    -0.417479326573    -0.883645328132     1.007825032230
         H           -1.879366023047    -2.398997326573    -0.129504328132     1.007825032230
         H           -0.935914023047    -1.538904326573    -1.344945328132     1.007825032230
         H           -2.430669023047     1.844435673427    -0.293320328132     1.007825032230
         H           -1.271807023047     1.170671673427    -1.427809328132     1.007825032230
         H           -0.471637023047    -1.128393326573     1.645259671868     1.007825032230
         H            0.314814976953    -2.408479326573     0.740994671868     1.007825032230
         H           -0.769074023047     1.101703673427     1.590467671868     1.007825032230
         H           -0.338244023047     2.501131673427     0.602522671868     1.007825032230
         H            1.901415976953    -1.796220326573    -1.186520328132     1.007825032230
         H            2.629089976953    -1.767161326573     0.439494671868     1.007825032230
         H            2.820242976953    -0.365283326573    -0.648114328132     1.007825032230

  Basis Set: AUG-CC-PVTZ
    Blend: AUG-CC-PVTZ
  Basis Set: (AUG-CC-PVTZ AUX)
    Blend: AUG-CC-PVTZ-JKFIT
	 Reference Energy          =    -402.1086048936968496 [Eh]
	 Singles Energy            =      -0.0000000000000000 [Eh]
	 Same-Spin Energy          =      -0.4220505929233226 [Eh]
	 Opposite-Spin Energy      =      -1.4056072882546808 [Eh]
	 Correlation Energy        =      -1.8276578811780033 [Eh]
	 Total Energy              =    -403.9362627748748764 [Eh]

	 ================> DF-SCS-MP2 Energies <==================
	-----------------------------------------------------------
	 SCS Same-Spin Scale       =       0.3333333333333333 [-]
	 SCS Opposite-Spin Scale   =       1.2000000000000000 [-]
	 SCS Same-Spin Energy      =      -0.1406835309744409 [Eh]
	 SCS Opposite-Spin Energy  =      -1.6867287459056171 [Eh]
	 SCS Correlation Energy    =      -1.8274122768800578 [Eh]
	 SCS Total Energy          =    -403.9360171705769176 [Eh]
	-----------------------------------------------------------

  Dipole Moment: [D]
     X:    -2.5659      Y:    -3.1076      Z:     0.8121     Total:     4.1110

*** Psi4 exiting successfully. Buy a developer a beer!
