                               Psi4 1.3.2 release

  ==> Input File <==

--------------------------------------------------------------------------
#psi4
#
memory 32 gb

molecule  {
0 1
  O        1.7739800     1.6003060    -0.2911220
  N        0.9906540    -0.4920130     0.2058460
  C       -2.2286800    -0.2510300    -0.1765170
  C       -1.2982440    -1.4623771    -0.2153117
  C       -1.5989250     1.1242550    -0.3956020
  C       -0.0841310    -1.3759550     0.6456410
  C       -0.4584780     1.4603760     0.5782350
  C        0.8707430     0.8730760     0.1404640
  C        2.1918860    -1.1187650    -0.3259700
  H       -2.6699130    -0.2765890     0.8297550
  H       -3.0608600    -0.3791320    -0.8796750
  H       -1.8321650    -2.3606500    -0.1255340
  H       -0.8887130    -1.5005570    -1.3409750
  H       -2.3834680     1.8827830    -0.2893500
  H       -1.2246060     1.2090190    -1.4238390
  H       -0.4244360    -1.0900460     1.6492300
  H        0.3620160    -2.3701320     0.7449650
  H       -0.7218730     1.1400510     1.5944380
  H       -0.2910430     2.5394790     0.6064930
  H        1.9486170    -1.7578730    -1.1825500
  H        2.6762910    -1.7288140     0.4434650
  H        2.8674440    -0.3269360    -0.6441440
units angstrom
no_reorient  #important for SAPT in psi4, default
symmetry c1  #important for SAPT in psi4, default
}

set PROPERTIES_ORIGIN ["COM"]
properties('MP2/aug-cc-pvtz', properties = ['dipole'])
--------------------------------------------------------------------------

    Molecular point group: c1
  Charge       = 0
  Multiplicity = 1
  Basis Set: AUG-CC-PVTZ
    Blend: AUG-CC-PVTZ
  Basis Set: (AUG-CC-PVTZ AUX)
    Blend: AUG-CC-PVTZ-JKFIT

    Orbital Energies [Eh]
    ---------------------

    Doubly Occupied:

       1A    -20.506549     2A    -15.582462     3A    -11.340823
       4A    -11.271913     5A    -11.250931     6A    -11.237026
       7A    -11.236107     8A    -11.234153     9A    -11.232426
      10A     -1.362624    11A     -1.242394    12A     -1.099305
      13A     -1.043095    14A     -0.977410    15A     -0.915790
      16A     -0.878904    17A     -0.790317    18A     -0.726367
      19A     -0.692014    20A     -0.673102    21A     -0.634483
      22A     -0.609406    23A     -0.599887    24A     -0.595603
      25A     -0.587152    26A     -0.561738    27A     -0.546812
      28A     -0.530152    29A     -0.512232    30A     -0.500935
      31A     -0.475094    32A     -0.470338    33A     -0.453685
      34A     -0.408278    35A     -0.367929

  @DF-RHF Final Energy:  -402.10025989467738

   => Energetics <=

    Nuclear Repulsion Energy =            486.2921611347879889
    One-Electron Energy =               -1510.4899664559907251
    Two-Electron Energy =                 622.0975454265254712
    Total Energy =                       -402.1002598946773787
  Basis Set: (AUG-CC-PVTZ AUX)
    Blend: AUG-CC-PVTZ-RI
    Molecular point group: c1

    Geometry (in Angstrom), charge = 0, multiplicity = 1:

       Center              X                  Y                   Z               Mass
    ------------   -----------------  -----------------  -----------------  -----------------
         O            1.732358753472     1.563772886793    -0.300716177134    15.994914619570
         N            0.949032753472    -0.528546113207     0.196251822866    14.003074004430
         C           -2.270301246528    -0.287563113207    -0.186111177134    12.000000000000
         C           -1.339865246528    -1.498910213207    -0.224905877134    12.000000000000
         C           -1.640546246528     1.087721886793    -0.405196177134    12.000000000000
         C           -0.125752246528    -1.412488113207     0.636046822866    12.000000000000
         C           -0.500099246528     1.423842886793     0.568640822866    12.000000000000
         C            0.829121753472     0.836542886793     0.130869822866    12.000000000000
         C            2.150264753472    -1.155298113207    -0.335564177134    12.000000000000
         H           -2.711534246528    -0.313122113207     0.820160822866     1.007825032230
         H           -3.102481246528    -0.415665113207    -0.889269177134     1.007825032230
         H           -1.873786246528    -2.397183113207    -0.135128177134     1.007825032230
         H           -0.930334246528    -1.537090113207    -1.350569177134     1.007825032230
         H           -2.425089246528     1.846249886793    -0.298944177134     1.007825032230
         H           -1.266227246528     1.172485886793    -1.433433177134     1.007825032230
         H           -0.466057246528    -1.126579113207     1.639635822866     1.007825032230
         H            0.320394753472    -2.406665113207     0.735370822866     1.007825032230
         H           -0.763494246528     1.103517886793     1.584843822866     1.007825032230
         H           -0.332664246528     2.502945886793     0.596898822866     1.007825032230
         H            1.906995753472    -1.794406113207    -1.192144177134     1.007825032230
         H            2.634669753472    -1.765347113207     0.433870822866     1.007825032230
         H            2.825822753472    -0.363469113207    -0.653738177134     1.007825032230

  Basis Set: AUG-CC-PVTZ
    Blend: AUG-CC-PVTZ
  Basis Set: (AUG-CC-PVTZ AUX)
    Blend: AUG-CC-PVTZ-JKFIT
	 Reference Energy          =    -402.1002598946773787 [Eh]
	 Singles Energy            =      -0.0000000000000000 [Eh]
	 Same-Spin Energy          =      -0.4222324609181503 [Eh]
	 Opposite-Spin Energy      =      -1.4059831171317070 [Eh]
	 Correlation Energy        =      -1.8282155780498572 [Eh]
	 Total Energy              =    -403.9284754727272571 [Eh]

	 ================> DF-SCS-MP2 Energies <==================
	-----------------------------------------------------------
	 SCS Same-Spin Scale       =       0.3333333333333333 [-]
	 SCS Opposite-Spin Scale   =       1.2000000000000000 [-]
	 SCS Same-Spin Energy      =      -0.1407441536393834 [Eh]
	 SCS Opposite-Spin Energy  =      -1.6871797405580484 [Eh]
	 SCS Correlation Energy    =      -1.8279238941974318 [Eh]
	 SCS Total Energy          =    -403.9281837888748328 [Eh]
	-----------------------------------------------------------

  Dipole Moment: [D]
     X:    -2.5997      Y:    -3.0850      Z:     0.8286     Total:     4.1185

*** Psi4 exiting successfully. Buy a developer a beer!
