                               Psi4 1.4a3.dev225

  ==> Input File <==

--------------------------------------------------------------------------
#psi4
#
memory 32 gb

molecule  {
0 1
  O        1.7739800     1.6003060    -0.2911220
  N        0.9906540    -0.4920130     0.2058460
  C       -2.2286800    -0.2510300    -0.1765170
  C       -1.2730330    -1.4351160    -0.3152870
  C       -1.5989250     1.1242550    -0.3956020
  C       -0.0841310    -1.3759550     0.6456410
  C       -0.4584780     1.4603760     0.5782350
  C        0.8707430     0.8730760     0.1404640
  C        2.1506219    -1.0972352    -0.3077014
  H       -2.6699130    -0.2765890     0.8297550
  H       -3.0608600    -0.3791320    -0.8796750
  H       -1.8321650    -2.3606500    -0.1255340
  H       -0.8887130    -1.5005570    -1.3409750
  H       -2.3834680     1.8827830    -0.2893500
  H       -1.2246060     1.2090190    -1.4238390
  H       -0.4244360    -1.0900460     1.6492300
  H        0.3620160    -2.3701320     0.7449650
  H       -0.7218730     1.1400510     1.5944380
  H       -0.2910430     2.5394790     0.6064930
  H        1.9486170    -1.7578730    -1.1825500
  H        2.6762910    -1.7288140     0.4434650
  H        2.8674440    -0.3269360    -0.6441440
units angstrom
no_reorient  #important for SAPT in psi4, default
symmetry c1  #important for SAPT in psi4, default
}

set PROPERTIES_ORIGIN ["COM"]
properties('MP2/aug-cc-pvtz', properties = ['dipole'])
--------------------------------------------------------------------------

    Molecular point group: c1
  Charge       = 0
  Multiplicity = 1
  Basis Set: AUG-CC-PVTZ
    Blend: AUG-CC-PVTZ
  Basis Set: (AUG-CC-PVTZ AUX)
    Blend: AUG-CC-PVTZ-JKFIT

    Orbital Energies [Eh]
    ---------------------

    Doubly Occupied:

       1A    -20.507603     2A    -15.581638     3A    -11.341627
       4A    -11.273448     5A    -11.250330     6A    -11.235541
       7A    -11.234593     8A    -11.234345     9A    -11.232269
      10A     -1.365018    11A     -1.251023    12A     -1.099931
      13A     -1.039508    14A     -0.977581    15A     -0.913489
      16A     -0.878246    17A     -0.793723    18A     -0.730117
      19A     -0.692862    20A     -0.671769    21A     -0.635874
      22A     -0.612895    23A     -0.602790    24A     -0.594877
      25A     -0.584042    26A     -0.553911    27A     -0.547576
      28A     -0.521617    29A     -0.509251    30A     -0.506478
      31A     -0.480179    32A     -0.468793    33A     -0.465967
      34A     -0.409411    35A     -0.364406

  @DF-RHF Final Energy:  -402.10948895562348

   => Energetics <=

    Nuclear Repulsion Energy =            487.3686957551582282
    One-Electron Energy =               -1512.6309128849591161
    Two-Electron Energy =                 623.1527281741773550
    Total Energy =                       -402.1094889556234193
  Basis Set: (AUG-CC-PVTZ AUX)
    Blend: AUG-CC-PVTZ-RI
    Molecular point group: c1

    Geometry (in Angstrom), charge = 0, multiplicity = 1:

       Center              X                  Y                   Z               Mass
    ------------   -----------------  -----------------  -----------------  -----------------
         O            1.733874391815     1.559166339843    -0.293001915876    15.994914619570
         N            0.950548391815    -0.533152660157     0.203966084124    14.003074004430
         C           -2.268785608185    -0.292169660157    -0.178396915876    12.000000000000
         C           -1.313138608185    -1.476255660157    -0.317166915876    12.000000000000
         C           -1.639030608185     1.083115339843    -0.397481915876    12.000000000000
         C           -0.124236608185    -1.417094660157     0.643761084124    12.000000000000
         C           -0.498583608185     1.419236339843     0.576355084124    12.000000000000
         C            0.830637391815     0.831936339843     0.138584084124    12.000000000000
         C            2.110516291815    -1.138374860157    -0.309581315876    12.000000000000
         H           -2.710018608185    -0.317728660157     0.827875084124     1.007825032230
         H           -3.100965608185    -0.420271660157    -0.881554915876     1.007825032230
         H           -1.872270608185    -2.401789660157    -0.127413915876     1.007825032230
         H           -0.928818608185    -1.541696660157    -1.342854915876     1.007825032230
         H           -2.423573608185     1.841643339843    -0.291229915876     1.007825032230
         H           -1.264711608185     1.167879339843    -1.425718915876     1.007825032230
         H           -0.464541608185    -1.131185660157     1.647350084124     1.007825032230
         H            0.321910391815    -2.411271660157     0.743085084124     1.007825032230
         H           -0.761978608185     1.098911339843     1.592558084124     1.007825032230
         H           -0.331148608185     2.498339339843     0.604613084124     1.007825032230
         H            1.908511391815    -1.799012660157    -1.184429915876     1.007825032230
         H            2.636185391815    -1.769953660157     0.441585084124     1.007825032230
         H            2.827338391815    -0.368075660157    -0.646023915876     1.007825032230

  Basis Set: AUG-CC-PVTZ
    Blend: AUG-CC-PVTZ
  Basis Set: (AUG-CC-PVTZ AUX)
    Blend: AUG-CC-PVTZ-JKFIT
	 Reference Energy          =    -402.1094889556234762 [Eh]
	 Singles Energy            =      -0.0000000000000000 [Eh]
	 Same-Spin Energy          =      -0.4221838430601675 [Eh]
	 Opposite-Spin Energy      =      -1.4053853883321352 [Eh]
	 Correlation Energy        =      -1.8275692313923027 [Eh]
	 Total Energy              =    -403.9370581870157935 [Eh]

	 ================> DF-SCS-MP2 Energies <==================
	-----------------------------------------------------------
	 SCS Same-Spin Scale       =       0.3333333333333333 [-]
	 SCS Opposite-Spin Scale   =       1.2000000000000000 [-]
	 SCS Same-Spin Energy      =      -0.1407279476867225 [Eh]
	 SCS Opposite-Spin Energy  =      -1.6864624659985623 [Eh]
	 SCS Correlation Energy    =      -1.8271904136852848 [Eh]
	 SCS Total Energy          =    -403.9366793693087629 [Eh]
	-----------------------------------------------------------

  Dipole Moment: [D]
     X:    -2.6873      Y:    -3.0047      Z:     0.8283     Total:     4.1153

*** Psi4 exiting successfully. Buy a developer a beer!
