                               Psi4 1.3.2 release

  ==> Input File <==

--------------------------------------------------------------------------
#psi4
#
memory 32 gb

molecule  {
0 1
  O        1.7739800     1.6003060    -0.2911220
  N        0.9906540    -0.4920130     0.2058460
  C       -2.2286800    -0.2510300    -0.1765170
  C       -1.2730330    -1.4351160    -0.3152870
  C       -1.5989250     1.1242550    -0.3956020
  C       -0.0841310    -1.3759550     0.6456410
  C       -0.5326840     1.4385054     0.5148699
  C        0.8707430     0.8730760     0.1404640
  C        2.1918860    -1.1187650    -0.3259700
  H       -2.6699130    -0.2765890     0.8297550
  H       -3.0608600    -0.3791320    -0.8796750
  H       -1.8321650    -2.3606500    -0.1255340
  H       -0.8887130    -1.5005570    -1.3409750
  H       -2.3834680     1.8827830    -0.2893500
  H       -1.2246060     1.2090190    -1.4238390
  H       -0.4244360    -1.0900460     1.6492300
  H        0.3620160    -2.3701320     0.7449650
  H       -0.7218730     1.1400510     1.5944380
  H       -0.2910430     2.5394790     0.6064930
  H        1.9486170    -1.7578730    -1.1825500
  H        2.6762910    -1.7288140     0.4434650
  H        2.8674440    -0.3269360    -0.6441440
units angstrom
no_reorient  #important for SAPT in psi4, default
symmetry c1  #important for SAPT in psi4, default
}

set PROPERTIES_ORIGIN ["COM"]
properties('MP2/aug-cc-pvtz', properties = ['dipole'])
--------------------------------------------------------------------------

    Molecular point group: c1
  Charge       = 0
  Multiplicity = 1
  Basis Set: AUG-CC-PVTZ
    Blend: AUG-CC-PVTZ
  Basis Set: (AUG-CC-PVTZ AUX)
    Blend: AUG-CC-PVTZ-JKFIT

    Orbital Energies [Eh]
    ---------------------

    Doubly Occupied:

       1A    -20.507925     2A    -15.580798     3A    -11.342054
       4A    -11.272052     5A    -11.250642     6A    -11.238168
       7A    -11.233666     8A    -11.231525     9A    -11.228436
      10A     -1.361905    11A     -1.241465    12A     -1.107309
      13A     -1.042284    14A     -0.973126    15A     -0.916106
      16A     -0.874118    17A     -0.793662    18A     -0.723459
      19A     -0.688942    20A     -0.670052    21A     -0.633611
      22A     -0.612746    23A     -0.603234    24A     -0.594094
      25A     -0.584006    26A     -0.555270    27A     -0.550408
      28A     -0.525580    29A     -0.510361    30A     -0.503855
      31A     -0.479974    32A     -0.476154    33A     -0.456519
      34A     -0.403493    35A     -0.365345

  @DF-RHF Final Energy:  -402.10038397652261

   => Energetics <=

    Nuclear Repulsion Energy =            486.8929137880953704
    One-Electron Energy =               -1511.7219069804698393
    Two-Electron Energy =                 622.7286092158519750
    Total Energy =                       -402.1003839765226076
  Basis Set: (AUG-CC-PVTZ AUX)
    Blend: AUG-CC-PVTZ-RI
    Molecular point group: c1

    Geometry (in Angstrom), charge = 0, multiplicity = 1:

       Center              X                  Y                   Z               Mass
    ------------   -----------------  -----------------  -----------------  -----------------
         O            1.736984570331     1.563263947803    -0.285294546844    15.994914619570
         N            0.953658570331    -0.529055052197     0.211673453156    14.003074004430
         C           -2.265675429669    -0.288072052197    -0.170689546844    12.000000000000
         C           -1.310028429669    -1.472158052197    -0.309459546844    12.000000000000
         C           -1.635920429669     1.087212947803    -0.389774546844    12.000000000000
         C           -0.121126429669    -1.412997052197     0.651468453156    12.000000000000
         C           -0.569679429669     1.401463347803     0.520697353156    12.000000000000
         C            0.833747570331     0.836033947803     0.146291453156    12.000000000000
         C            2.154890570331    -1.155807052197    -0.320142546844    12.000000000000
         H           -2.706908429669    -0.313631052197     0.835582453156     1.007825032230
         H           -3.097855429669    -0.416174052197    -0.873847546844     1.007825032230
         H           -1.869160429669    -2.397692052197    -0.119706546844     1.007825032230
         H           -0.925708429669    -1.537599052197    -1.335147546844     1.007825032230
         H           -2.420463429669     1.845740947803    -0.283522546844     1.007825032230
         H           -1.261601429669     1.171976947803    -1.418011546844     1.007825032230
         H           -0.461431429669    -1.127088052197     1.655057453156     1.007825032230
         H            0.325020570331    -2.407174052197     0.750792453156     1.007825032230
         H           -0.758868429669     1.103008947803     1.600265453156     1.007825032230
         H           -0.328038429669     2.502436947803     0.612320453156     1.007825032230
         H            1.911621570331    -1.794915052197    -1.176722546844     1.007825032230
         H            2.639295570331    -1.765856052197     0.449292453156     1.007825032230
         H            2.830448570331    -0.363978052197    -0.638316546844     1.007825032230

  Basis Set: AUG-CC-PVTZ
    Blend: AUG-CC-PVTZ
  Basis Set: (AUG-CC-PVTZ AUX)
    Blend: AUG-CC-PVTZ-JKFIT
	 Reference Energy          =    -402.1003839765226076 [Eh]
	 Singles Energy            =      -0.0000000000000000 [Eh]
	 Same-Spin Energy          =      -0.4228077930485142 [Eh]
	 Opposite-Spin Energy      =      -1.4066936229368374 [Eh]
	 Correlation Energy        =      -1.8295014159853515 [Eh]
	 Total Energy              =    -403.9298853925079698 [Eh]

	 ================> DF-SCS-MP2 Energies <==================
	-----------------------------------------------------------
	 SCS Same-Spin Scale       =       0.3333333333333333 [-]
	 SCS Opposite-Spin Scale   =       1.2000000000000000 [-]
	 SCS Same-Spin Energy      =      -0.1409359310161714 [Eh]
	 SCS Opposite-Spin Energy  =      -1.6880323475242049 [Eh]
	 SCS Correlation Energy    =      -1.8289682785403762 [Eh]
	 SCS Total Energy          =    -403.9293522550630087 [Eh]
	-----------------------------------------------------------

  Dipole Moment: [D]
     X:    -2.5208      Y:    -3.1301      Z:     0.7386     Total:     4.0862

*** Psi4 exiting successfully. Buy a developer a beer!
