                               Psi4 1.3.2 release

  ==> Input File <==

--------------------------------------------------------------------------
#psi4
#
memory 32 gb

molecule  {
0 1
  O        1.7739800     1.6003060    -0.2911220
  N        0.9906540    -0.4920130     0.2058460
  C       -2.2286800    -0.2510300    -0.1765170
  C       -1.2395100    -1.4491330    -0.3544165
  C       -1.5989250     1.1242550    -0.3956020
  C       -0.0841310    -1.3759550     0.6456410
  C       -0.4584780     1.4603760     0.5782350
  C        0.8707430     0.8730760     0.1404640
  C        2.1918860    -1.1187650    -0.3259700
  H       -2.6699130    -0.2765890     0.8297550
  H       -3.0608600    -0.3791320    -0.8796750
  H       -1.8321650    -2.3606500    -0.1255340
  H       -0.8887130    -1.5005570    -1.3409750
  H       -2.3834680     1.8827830    -0.2893500
  H       -1.2246060     1.2090190    -1.4238390
  H       -0.4244360    -1.0900460     1.6492300
  H        0.3620160    -2.3701320     0.7449650
  H       -0.7218730     1.1400510     1.5944380
  H       -0.2910430     2.5394790     0.6064930
  H        1.9486170    -1.7578730    -1.1825500
  H        2.6762910    -1.7288140     0.4434650
  H        2.8674440    -0.3269360    -0.6441440
units angstrom
no_reorient  #important for SAPT in psi4, default
symmetry c1  #important for SAPT in psi4, default
}

set PROPERTIES_ORIGIN ["COM"]
properties('MP2/aug-cc-pvtz', properties = ['dipole'])
--------------------------------------------------------------------------

    Molecular point group: c1
  Charge       = 0
  Multiplicity = 1
  Basis Set: AUG-CC-PVTZ
    Blend: AUG-CC-PVTZ
  Basis Set: (AUG-CC-PVTZ AUX)
    Blend: AUG-CC-PVTZ-JKFIT

    Orbital Energies [Eh]
    ---------------------

    Doubly Occupied:

       1A    -20.505454     2A    -15.580114     3A    -11.339685
       4A    -11.272184     5A    -11.250537     6A    -11.234067
       7A    -11.233195     8A    -11.232851     9A    -11.231872
      10A     -1.361649    11A     -1.241187    12A     -1.094364
      13A     -1.037271    14A     -0.974739    15A     -0.912738
      16A     -0.878251    17A     -0.795195    18A     -0.725788
      19A     -0.689953    20A     -0.667207    21A     -0.634094
      22A     -0.607802    23A     -0.601789    24A     -0.592833
      25A     -0.582155    26A     -0.558445    27A     -0.543842
      28A     -0.529334    29A     -0.514918    30A     -0.507771
      31A     -0.484254    32A     -0.466941    33A     -0.456371
      34A     -0.407201    35A     -0.364967

  @DF-RHF Final Energy:  -402.10925849983795

   => Energetics <=

    Nuclear Repulsion Energy =            486.1221985654234459
    One-Electron Energy =               -1510.2408793027864249
    Two-Electron Energy =                 622.0094222375248592
    Total Energy =                       -402.1092584998380062
  Basis Set: (AUG-CC-PVTZ AUX)
    Blend: AUG-CC-PVTZ-RI
    Molecular point group: c1

    Geometry (in Angstrom), charge = 0, multiplicity = 1:

       Center              X                  Y                   Z               Mass
    ------------   -----------------  -----------------  -----------------  -----------------
         O            1.726813438085     1.562522457544    -0.287582728231    15.994914619570
         N            0.943487438085    -0.529796542456     0.209385271769    14.003074004430
         C           -2.275846561915    -0.288813542456    -0.172977728231    12.000000000000
         C           -1.286676561915    -1.486916542456    -0.350877228231    12.000000000000
         C           -1.646091561915     1.086471457544    -0.392062728231    12.000000000000
         C           -0.131297561915    -1.413738542456     0.649180271769    12.000000000000
         C           -0.505644561915     1.422592457544     0.581774271769    12.000000000000
         C            0.823576438085     0.835292457544     0.144003271769    12.000000000000
         C            2.144719438085    -1.156548542456    -0.322430728231    12.000000000000
         H           -2.717079561915    -0.314372542456     0.833294271769     1.007825032230
         H           -3.108026561915    -0.416915542456    -0.876135728231     1.007825032230
         H           -1.879331561915    -2.398433542456    -0.121994728231     1.007825032230
         H           -0.935879561915    -1.538340542456    -1.337435728231     1.007825032230
         H           -2.430634561915     1.844999457544    -0.285810728231     1.007825032230
         H           -1.271772561915     1.171235457544    -1.420299728231     1.007825032230
         H           -0.471602561915    -1.127829542456     1.652769271769     1.007825032230
         H            0.314849438085    -2.407915542456     0.748504271769     1.007825032230
         H           -0.769039561915     1.102267457544     1.597977271769     1.007825032230
         H           -0.338209561915     2.501695457544     0.610032271769     1.007825032230
         H            1.901450438085    -1.795656542456    -1.179010728231     1.007825032230
         H            2.629124438085    -1.766597542456     0.447004271769     1.007825032230
         H            2.820277438085    -0.364719542456    -0.640604728231     1.007825032230

  Basis Set: AUG-CC-PVTZ
    Blend: AUG-CC-PVTZ
  Basis Set: (AUG-CC-PVTZ AUX)
    Blend: AUG-CC-PVTZ-JKFIT
	 Reference Energy          =    -402.1092584998379493 [Eh]
	 Singles Energy            =      -0.0000000000000000 [Eh]
	 Same-Spin Energy          =      -0.4216213465207029 [Eh]
	 Opposite-Spin Energy      =      -1.4051907926474074 [Eh]
	 Correlation Energy        =      -1.8268121391681102 [Eh]
	 Total Energy              =    -403.9360706390060614 [Eh]

	 ================> DF-SCS-MP2 Energies <==================
	-----------------------------------------------------------
	 SCS Same-Spin Scale       =       0.3333333333333333 [-]
	 SCS Opposite-Spin Scale   =       1.2000000000000000 [-]
	 SCS Same-Spin Energy      =      -0.1405404488402343 [Eh]
	 SCS Opposite-Spin Energy  =      -1.6862289511768889 [Eh]
	 SCS Correlation Energy    =      -1.8267694000171231 [Eh]
	 SCS Total Energy          =    -403.9360278998550484 [Eh]
	-----------------------------------------------------------

  Dipole Moment: [D]
     X:    -2.5684      Y:    -3.1100      Z:     0.7870     Total:     4.1095

*** Psi4 exiting successfully. Buy a developer a beer!
