                               Psi4 1.3.2 release

  ==> Input File <==

--------------------------------------------------------------------------
#psi4
#
memory 32 gb

molecule  {
0 1
  O        1.7739800     1.6003060    -0.2911220
  N        0.9889927    -0.4793851     0.2279044
  C       -2.2286800    -0.2510300    -0.1765170
  C       -1.2730330    -1.4351160    -0.3152870
  C       -1.5989250     1.1242550    -0.3956020
  C       -0.0841310    -1.3759550     0.6456410
  C       -0.4584780     1.4603760     0.5782350
  C        0.8707430     0.8730760     0.1404640
  C        2.1918860    -1.1187650    -0.3259700
  H       -2.6699130    -0.2765890     0.8297550
  H       -3.0608600    -0.3791320    -0.8796750
  H       -1.8321650    -2.3606500    -0.1255340
  H       -0.8887130    -1.5005570    -1.3409750
  H       -2.3834680     1.8827830    -0.2893500
  H       -1.2246060     1.2090190    -1.4238390
  H       -0.4244360    -1.0900460     1.6492300
  H        0.3620160    -2.3701320     0.7449650
  H       -0.7218730     1.1400510     1.5944380
  H       -0.2910430     2.5394790     0.6064930
  H        1.9486170    -1.7578730    -1.1825500
  H        2.6762910    -1.7288140     0.4434650
  H        2.8674440    -0.3269360    -0.6441440
units angstrom
no_reorient  #important for SAPT in psi4, default
symmetry c1  #important for SAPT in psi4, default
}

set PROPERTIES_ORIGIN ["COM"]
properties('MP2/aug-cc-pvtz', properties = ['dipole'])
--------------------------------------------------------------------------

    Molecular point group: c1
  Charge       = 0
  Multiplicity = 1
  Basis Set: AUG-CC-PVTZ
    Blend: AUG-CC-PVTZ
  Basis Set: (AUG-CC-PVTZ AUX)
    Blend: AUG-CC-PVTZ-JKFIT

    Orbital Energies [Eh]
    ---------------------

    Doubly Occupied:

       1A    -20.504051     2A    -15.581708     3A    -11.338214
       4A    -11.272720     5A    -11.252253     6A    -11.234311
       7A    -11.233991     8A    -11.232478     9A    -11.231541
      10A     -1.361553    11A     -1.241163    12A     -1.097096
      13A     -1.038615    14A     -0.974554    15A     -0.916350
      16A     -0.878506    17A     -0.792794    18A     -0.724316
      19A     -0.690208    20A     -0.668818    21A     -0.633208
      22A     -0.608205    23A     -0.601689    24A     -0.593911
      25A     -0.583250    26A     -0.558156    27A     -0.542396
      28A     -0.529240    29A     -0.510150    30A     -0.508241
      31A     -0.479350    32A     -0.466914    33A     -0.465443
      34A     -0.406399    35A     -0.366739

  @DF-RHF Final Energy:  -402.11197457468074

   => Energetics <=

    Nuclear Repulsion Energy =            486.3265293173731720
    One-Electron Energy =               -1510.6399480526022217
    Two-Electron Energy =                 622.2014441605483626
    Total Energy =                       -402.1119745746807439
  Basis Set: (AUG-CC-PVTZ AUX)
    Blend: AUG-CC-PVTZ-RI
    Molecular point group: c1

    Geometry (in Angstrom), charge = 0, multiplicity = 1:

       Center              X                  Y                   Z               Mass
    ------------   -----------------  -----------------  -----------------  -----------------
         O            1.730161512548     1.559807790396    -0.293707363628    15.994914619570
         N            0.945174212548    -0.519883309604     0.225319036372    14.003074004430
         C           -2.272498487452    -0.291528209604    -0.179102363628    12.000000000000
         C           -1.316851487452    -1.475614209604    -0.317872363628    12.000000000000
         C           -1.642743487452     1.083756790396    -0.398187363628    12.000000000000
         C           -0.127949487452    -1.416453209604     0.643055636372    12.000000000000
         C           -0.502296487452     1.419877790396     0.575649636372    12.000000000000
         C            0.826924512548     0.832577790396     0.137878636372    12.000000000000
         C            2.148067512548    -1.159263209604    -0.328555363628    12.000000000000
         H           -2.713731487452    -0.317087209604     0.827169636372     1.007825032230
         H           -3.104678487452    -0.419630209604    -0.882260363628     1.007825032230
         H           -1.875983487452    -2.401148209604    -0.128119363628     1.007825032230
         H           -0.932531487452    -1.541055209604    -1.343560363628     1.007825032230
         H           -2.427286487452     1.842284790396    -0.291935363628     1.007825032230
         H           -1.268424487452     1.168520790396    -1.426424363628     1.007825032230
         H           -0.468254487452    -1.130544209604     1.646644636372     1.007825032230
         H            0.318197512548    -2.410630209604     0.742379636372     1.007825032230
         H           -0.765691487452     1.099552790396     1.591852636372     1.007825032230
         H           -0.334861487452     2.498980790396     0.603907636372     1.007825032230
         H            1.904798512548    -1.798371209604    -1.185135363628     1.007825032230
         H            2.632472512548    -1.769312209604     0.440879636372     1.007825032230
         H            2.823625512548    -0.367434209604    -0.646729363628     1.007825032230

  Basis Set: AUG-CC-PVTZ
    Blend: AUG-CC-PVTZ
  Basis Set: (AUG-CC-PVTZ AUX)
    Blend: AUG-CC-PVTZ-JKFIT
	 Reference Energy          =    -402.1119745746807439 [Eh]
	 Singles Energy            =      -0.0000000000000000 [Eh]
	 Same-Spin Energy          =      -0.4216821789805470 [Eh]
	 Opposite-Spin Energy      =      -1.4051248554013953 [Eh]
	 Correlation Energy        =      -1.8268070343819423 [Eh]
	 Total Energy              =    -403.9387816090626870 [Eh]

	 ================> DF-SCS-MP2 Energies <==================
	-----------------------------------------------------------
	 SCS Same-Spin Scale       =       0.3333333333333333 [-]
	 SCS Opposite-Spin Scale   =       1.2000000000000000 [-]
	 SCS Same-Spin Energy      =      -0.1405607263268490 [Eh]
	 SCS Opposite-Spin Energy  =      -1.6861498264816743 [Eh]
	 SCS Correlation Energy    =      -1.8267105528085232 [Eh]
	 SCS Total Energy          =    -403.9386851274892933 [Eh]
	-----------------------------------------------------------

  Dipole Moment: [D]
     X:    -2.5747      Y:    -3.1783      Z:     0.7650     Total:     4.1612

*** Psi4 exiting successfully. Buy a developer a beer!
