                               Psi4 1.3.2 release

  ==> Input File <==

--------------------------------------------------------------------------
#psi4
#
memory 32 gb

molecule  {
0 1
  O        1.7986589     1.5652545    -0.2963746
  N        0.9906540    -0.4920130     0.2058460
  C       -2.2286800    -0.2510300    -0.1765170
  C       -1.2730330    -1.4351160    -0.3152870
  C       -1.5989250     1.1242550    -0.3956020
  C       -0.0841310    -1.3759550     0.6456410
  C       -0.4584780     1.4603760     0.5782350
  C        0.8707430     0.8730760     0.1404640
  C        2.1918860    -1.1187650    -0.3259700
  H       -2.6699130    -0.2765890     0.8297550
  H       -3.0608600    -0.3791320    -0.8796750
  H       -1.8321650    -2.3606500    -0.1255340
  H       -0.8887130    -1.5005570    -1.3409750
  H       -2.3834680     1.8827830    -0.2893500
  H       -1.2246060     1.2090190    -1.4238390
  H       -0.4244360    -1.0900460     1.6492300
  H        0.3620160    -2.3701320     0.7449650
  H       -0.7218730     1.1400510     1.5944380
  H       -0.2910430     2.5394790     0.6064930
  H        1.9486170    -1.7578730    -1.1825500
  H        2.6762910    -1.7288140     0.4434650
  H        2.8674440    -0.3269360    -0.6441440
units angstrom
no_reorient  #important for SAPT in psi4, default
symmetry c1  #important for SAPT in psi4, default
}

set PROPERTIES_ORIGIN ["COM"]
properties('MP2/aug-cc-pvtz', properties = ['dipole'])
--------------------------------------------------------------------------

    Molecular point group: c1
  Charge       = 0
  Multiplicity = 1
  Basis Set: AUG-CC-PVTZ
    Blend: AUG-CC-PVTZ
  Basis Set: (AUG-CC-PVTZ AUX)
    Blend: AUG-CC-PVTZ-JKFIT

    Orbital Energies [Eh]
    ---------------------

    Doubly Occupied:

       1A    -20.505077     2A    -15.578559     3A    -11.340005
       4A    -11.271181     5A    -11.248774     6A    -11.236040
       7A    -11.235415     8A    -11.233117     9A    -11.231823
      10A     -1.362557    11A     -1.238809    12A     -1.098021
      13A     -1.038694    14A     -0.975236    15A     -0.913122
      16A     -0.878285    17A     -0.792773    18A     -0.724337
      19A     -0.691274    20A     -0.668805    21A     -0.632717
      22A     -0.608075    23A     -0.602039    24A     -0.594491
      25A     -0.583428    26A     -0.557950    27A     -0.544293
      28A     -0.525764    29A     -0.509199    30A     -0.508991
      31A     -0.479648    32A     -0.468115    33A     -0.465776
      34A     -0.408271    35A     -0.363473

  @DF-RHF Final Energy:  -402.11157759608267

   => Energetics <=

    Nuclear Repulsion Energy =            486.4668042190517667
    One-Electron Energy =               -1510.9284878486209891
    Two-Electron Energy =                 622.3501060334865542
    Total Energy =                       -402.1115775960827250
  Basis Set: (AUG-CC-PVTZ AUX)
    Blend: AUG-CC-PVTZ-RI
    Molecular point group: c1

    Geometry (in Angstrom), charge = 0, multiplicity = 1:

       Center              X                  Y                   Z               Mass
    ------------   -----------------  -----------------  -----------------  -----------------
         O            1.751551654517     1.530558625779    -0.295868687624    15.994914619570
         N            0.943546754517    -0.526708874221     0.206351912376    14.003074004430
         C           -2.275787245483    -0.285725874221    -0.176011087624    12.000000000000
         C           -1.320140245483    -1.469811874221    -0.314781087624    12.000000000000
         C           -1.646032245483     1.089559125779    -0.395096087624    12.000000000000
         C           -0.131238245483    -1.410650874221     0.646146912376    12.000000000000
         C           -0.505585245483     1.425680125779     0.578740912376    12.000000000000
         C            0.823635754517     0.838380125779     0.140969912376    12.000000000000
         C            2.144778754517    -1.153460874221    -0.325464087624    12.000000000000
         H           -2.717020245483    -0.311284874221     0.830260912376     1.007825032230
         H           -3.107967245483    -0.413827874221    -0.879169087624     1.007825032230
         H           -1.879272245483    -2.395345874221    -0.125028087624     1.007825032230
         H           -0.935820245483    -1.535252874221    -1.340469087624     1.007825032230
         H           -2.430575245483     1.848087125779    -0.288844087624     1.007825032230
         H           -1.271713245483     1.174323125779    -1.423333087624     1.007825032230
         H           -0.471543245483    -1.124741874221     1.649735912376     1.007825032230
         H            0.314908754517    -2.404827874221     0.745470912376     1.007825032230
         H           -0.768980245483     1.105355125779     1.594943912376     1.007825032230
         H           -0.338150245483     2.504783125779     0.606998912376     1.007825032230
         H            1.901509754517    -1.792568874221    -1.182044087624     1.007825032230
         H            2.629183754517    -1.763509874221     0.443970912376     1.007825032230
         H            2.820336754517    -0.361631874221    -0.643638087624     1.007825032230

  Basis Set: AUG-CC-PVTZ
    Blend: AUG-CC-PVTZ
  Basis Set: (AUG-CC-PVTZ AUX)
    Blend: AUG-CC-PVTZ-JKFIT
	 Reference Energy          =    -402.1115775960826682 [Eh]
	 Singles Energy            =      -0.0000000000000000 [Eh]
	 Same-Spin Energy          =      -0.4218858673984023 [Eh]
	 Opposite-Spin Energy      =      -1.4052706813695406 [Eh]
	 Correlation Energy        =      -1.8271565487679429 [Eh]
	 Total Energy              =    -403.9387341448506277 [Eh]

	 ================> DF-SCS-MP2 Energies <==================
	-----------------------------------------------------------
	 SCS Same-Spin Scale       =       0.3333333333333333 [-]
	 SCS Opposite-Spin Scale   =       1.2000000000000000 [-]
	 SCS Same-Spin Energy      =      -0.1406286224661341 [Eh]
	 SCS Opposite-Spin Energy  =      -1.6863248176434487 [Eh]
	 SCS Correlation Energy    =      -1.8269534401095828 [Eh]
	 SCS Total Energy          =    -403.9385310361922734 [Eh]
	-----------------------------------------------------------

  Dipole Moment: [D]
     X:    -2.6552      Y:    -2.9998      Z:     0.8075     Total:     4.0866

*** Psi4 exiting successfully. Buy a developer a beer!
