                               Psi4 1.3.2 release

  ==> Input File <==

--------------------------------------------------------------------------
#psi4
#
memory 32 gb

molecule  {
0 1
  O        1.7739800     1.6003060    -0.2911220
  N        0.9906540    -0.4920130     0.2058460
  C       -2.2286800    -0.2510300    -0.1765170
  C       -1.2730330    -1.4351160    -0.3152870
  C       -1.5989250     1.1242550    -0.3956020
  C       -0.0841310    -1.3759550     0.6456410
  C       -0.4584780     1.4603760     0.5782350
  C        0.8707430     0.8730760     0.1404640
  C        2.1918860    -1.1187650    -0.3259700
  H       -2.6699130    -0.2765890     0.8297550
  H       -3.0608600    -0.3791320    -0.8796750
  H       -1.9340256    -2.5292603    -0.0909655
  H       -0.8887130    -1.5005570    -1.3409750
  H       -2.3834680     1.8827830    -0.2893500
  H       -1.2246060     1.2090190    -1.4238390
  H       -0.4244360    -1.0900460     1.6492300
  H        0.3620160    -2.3701320     0.7449650
  H       -0.7218730     1.1400510     1.5944380
  H       -0.2910430     2.5394790     0.6064930
  H        1.9486170    -1.7578730    -1.1825500
  H        2.6762910    -1.7288140     0.4434650
  H        2.8674440    -0.3269360    -0.6441440
units angstrom
no_reorient  #important for SAPT in psi4, default
symmetry c1  #important for SAPT in psi4, default
}

set PROPERTIES_ORIGIN ["COM"]
properties('MP2/aug-cc-pvtz', properties = ['dipole'])
--------------------------------------------------------------------------

    Molecular point group: c1
  Charge       = 0
  Multiplicity = 1
  Basis Set: AUG-CC-PVTZ
    Blend: AUG-CC-PVTZ
  Basis Set: (AUG-CC-PVTZ AUX)
    Blend: AUG-CC-PVTZ-JKFIT

    Orbital Energies [Eh]
    ---------------------

    Doubly Occupied:

       1A    -20.507346     2A    -15.582744     3A    -11.341562
       4A    -11.274377     5A    -11.256677     6A    -11.251785
       7A    -11.236756     8A    -11.235017     9A    -11.233774
      10A     -1.363470    11A     -1.243039    12A     -1.097630
      13A     -1.035383    14A     -0.977218    15A     -0.915428
      16A     -0.872783    17A     -0.790059    18A     -0.726741
      19A     -0.690733    20A     -0.665481    21A     -0.634061
      22A     -0.610378    23A     -0.601613    24A     -0.591664
      25A     -0.578829    26A     -0.554062    27A     -0.545533
      28A     -0.526035    29A     -0.510796    30A     -0.507779
      31A     -0.479933    32A     -0.468262    33A     -0.455444
      34A     -0.408850    35A     -0.366611

  @DF-RHF Final Energy:  -402.09231196932404

   => Energetics <=

    Nuclear Repulsion Energy =            485.3545408638740923
    One-Electron Energy =               -1508.6179986176657621
    Two-Electron Energy =                 621.1711457844677398
    Total Energy =                       -402.0923119693239869
  Basis Set: (AUG-CC-PVTZ AUX)
    Blend: AUG-CC-PVTZ-RI
    Molecular point group: c1

    Geometry (in Angstrom), charge = 0, multiplicity = 1:

       Center              X                  Y                   Z               Mass
    ------------   -----------------  -----------------  -----------------  -----------------
         O            1.730786174501     1.562536034923    -0.291551210799    15.994914619570
         N            0.947460174501    -0.529782965077     0.205416789201    14.003074004430
         C           -2.271873825499    -0.288799965077    -0.176946210799    12.000000000000
         C           -1.316226825499    -1.472885965077    -0.315716210799    12.000000000000
         C           -1.642118825499     1.086485034923    -0.396031210799    12.000000000000
         C           -0.127324825499    -1.413724965077     0.645211789201    12.000000000000
         C           -0.501671825499     1.422606034923     0.577805789201    12.000000000000
         C            0.827549174501     0.835306034923     0.140034789201    12.000000000000
         C            2.148692174501    -1.156534965077    -0.326399210799    12.000000000000
         H           -2.713106825499    -0.314358965077     0.829325789201     1.007825032230
         H           -3.104053825499    -0.416901965077    -0.880104210799     1.007825032230
         H           -1.977219425499    -2.567030265077    -0.091394710799     1.007825032230
         H           -0.931906825499    -1.538326965077    -1.341404210799     1.007825032230
         H           -2.426661825499     1.845013034923    -0.289779210799     1.007825032230
         H           -1.267799825499     1.171249034923    -1.424268210799     1.007825032230
         H           -0.467629825499    -1.127815965077     1.648800789201     1.007825032230
         H            0.318822174501    -2.407901965077     0.744535789201     1.007825032230
         H           -0.765066825499     1.102281034923     1.594008789201     1.007825032230
         H           -0.334236825499     2.501709034923     0.606063789201     1.007825032230
         H            1.905423174501    -1.795642965077    -1.182979210799     1.007825032230
         H            2.633097174501    -1.766583965077     0.443035789201     1.007825032230
         H            2.824250174501    -0.364705965077    -0.644573210799     1.007825032230

  Basis Set: AUG-CC-PVTZ
    Blend: AUG-CC-PVTZ
  Basis Set: (AUG-CC-PVTZ AUX)
    Blend: AUG-CC-PVTZ-JKFIT
	 Reference Energy          =    -402.0923119693240437 [Eh]
	 Singles Energy            =      -0.0000000000000000 [Eh]
	 Same-Spin Energy          =      -0.4218515183000191 [Eh]
	 Opposite-Spin Energy      =      -1.4069145660106164 [Eh]
	 Correlation Energy        =      -1.8287660843106355 [Eh]
	 Total Energy              =    -403.9210780536346874 [Eh]

	 ================> DF-SCS-MP2 Energies <==================
	-----------------------------------------------------------
	 SCS Same-Spin Scale       =       0.3333333333333333 [-]
	 SCS Opposite-Spin Scale   =       1.2000000000000000 [-]
	 SCS Same-Spin Energy      =      -0.1406171727666730 [Eh]
	 SCS Opposite-Spin Energy  =      -1.6882974792127396 [Eh]
	 SCS Correlation Energy    =      -1.8289146519794126 [Eh]
	 SCS Total Energy          =    -403.9212266213034468 [Eh]
	-----------------------------------------------------------

  Dipole Moment: [D]
     X:    -2.4704      Y:    -2.9107      Z:     0.7835     Total:     3.8973

*** Psi4 exiting successfully. Buy a developer a beer!
