                               Psi4 1.3.2 release

  ==> Input File <==

--------------------------------------------------------------------------
#psi4
#
memory 32 gb

molecule  {
0 1
  O        1.8209027     1.5290251    -0.3043890
  N        0.9906540    -0.4920130     0.2058460
  C       -2.2286800    -0.2510300    -0.1765170
  C       -1.2730330    -1.4351160    -0.3152870
  C       -1.5989250     1.1242550    -0.3956020
  C       -0.0841310    -1.3759550     0.6456410
  C       -0.4584780     1.4603760     0.5782350
  C        0.8707430     0.8730760     0.1404640
  C        2.1918860    -1.1187650    -0.3259700
  H       -2.6699130    -0.2765890     0.8297550
  H       -3.0608600    -0.3791320    -0.8796750
  H       -1.8321650    -2.3606500    -0.1255340
  H       -0.8887130    -1.5005570    -1.3409750
  H       -2.3834680     1.8827830    -0.2893500
  H       -1.2246060     1.2090190    -1.4238390
  H       -0.4244360    -1.0900460     1.6492300
  H        0.3620160    -2.3701320     0.7449650
  H       -0.7218730     1.1400510     1.5944380
  H       -0.2910430     2.5394790     0.6064930
  H        1.9486170    -1.7578730    -1.1825500
  H        2.6762910    -1.7288140     0.4434650
  H        2.8674440    -0.3269360    -0.6441440
units angstrom
no_reorient  #important for SAPT in psi4, default
symmetry c1  #important for SAPT in psi4, default
}

set PROPERTIES_ORIGIN ["COM"]
properties('MP2/aug-cc-pvtz', properties = ['dipole'])
--------------------------------------------------------------------------

    Molecular point group: c1
  Charge       = 0
  Multiplicity = 1
  Basis Set: AUG-CC-PVTZ
    Blend: AUG-CC-PVTZ
  Basis Set: (AUG-CC-PVTZ AUX)
    Blend: AUG-CC-PVTZ-JKFIT

    Orbital Energies [Eh]
    ---------------------

    Doubly Occupied:

       1A    -20.504361     2A    -15.576512     3A    -11.340115
       4A    -11.270089     5A    -11.246878     6A    -11.238127
       7A    -11.236567     8A    -11.232852     9A    -11.232066
      10A     -1.363439    11A     -1.236330    12A     -1.098471
      13A     -1.039189    14A     -0.974843    15A     -0.912292
      16A     -0.878342    17A     -0.792981    18A     -0.723347
      19A     -0.691972    20A     -0.668787    21A     -0.632187
      22A     -0.607855    23A     -0.602248    24A     -0.594657
      25A     -0.583620    26A     -0.557612    27A     -0.544140
      28A     -0.524365    29A     -0.508956    30A     -0.508393
      31A     -0.479853    32A     -0.468764    33A     -0.466153
      34A     -0.408706    35A     -0.361795

  @DF-RHF Final Energy:  -402.11025315261855

   => Energetics <=

    Nuclear Repulsion Energy =            486.6713960563897672
    One-Electron Energy =               -1511.3495752061614894
    Two-Electron Energy =                 622.5679259971532247
    Total Energy =                       -402.1102531526184976
  Basis Set: (AUG-CC-PVTZ AUX)
    Blend: AUG-CC-PVTZ-RI
    Molecular point group: c1

    Geometry (in Angstrom), charge = 0, multiplicity = 1:

       Center              X                  Y                   Z               Mass
    ------------   -----------------  -----------------  -----------------  -----------------
         O            1.770996174562     1.498888529190    -0.302874512234    15.994914619570
         N            0.940747474562    -0.522149570810     0.207360487766    14.003074004430
         C           -2.278586525438    -0.281166570810    -0.175002512234    12.000000000000
         C           -1.322939525438    -1.465252570810    -0.313772512234    12.000000000000
         C           -1.648831525438     1.094118429190    -0.394087512234    12.000000000000
         C           -0.134037525438    -1.406091570810     0.647155487766    12.000000000000
         C           -0.508384525438     1.430239429190     0.579749487766    12.000000000000
         C            0.820836474562     0.842939429190     0.141978487766    12.000000000000
         C            2.141979474562    -1.148901570810    -0.324455512234    12.000000000000
         H           -2.719819525438    -0.306725570810     0.831269487766     1.007825032230
         H           -3.110766525438    -0.409268570810    -0.878160512234     1.007825032230
         H           -1.882071525438    -2.390786570810    -0.124019512234     1.007825032230
         H           -0.938619525438    -1.530693570810    -1.339460512234     1.007825032230
         H           -2.433374525438     1.852646429190    -0.287835512234     1.007825032230
         H           -1.274512525438     1.178882429190    -1.422324512234     1.007825032230
         H           -0.474342525438    -1.120182570810     1.650744487766     1.007825032230
         H            0.312109474562    -2.400268570810     0.746479487766     1.007825032230
         H           -0.771779525438     1.109914429190     1.595952487766     1.007825032230
         H           -0.340949525438     2.509342429190     0.608007487766     1.007825032230
         H            1.898710474562    -1.788009570810    -1.181035512234     1.007825032230
         H            2.626384474562    -1.758950570810     0.444979487766     1.007825032230
         H            2.817537474562    -0.357072570810    -0.642629512234     1.007825032230

  Basis Set: AUG-CC-PVTZ
    Blend: AUG-CC-PVTZ
  Basis Set: (AUG-CC-PVTZ AUX)
    Blend: AUG-CC-PVTZ-JKFIT
	 Reference Energy          =    -402.1102531526185544 [Eh]
	 Singles Energy            =      -0.0000000000000000 [Eh]
	 Same-Spin Energy          =      -0.4220301257353342 [Eh]
	 Opposite-Spin Energy      =      -1.4054009774328691 [Eh]
	 Correlation Energy        =      -1.8274311031682031 [Eh]
	 Total Energy              =    -403.9376842557867349 [Eh]

	 ================> DF-SCS-MP2 Energies <==================
	-----------------------------------------------------------
	 SCS Same-Spin Scale       =       0.3333333333333333 [-]
	 SCS Opposite-Spin Scale   =       1.2000000000000000 [-]
	 SCS Same-Spin Energy      =      -0.1406767085784447 [Eh]
	 SCS Opposite-Spin Energy  =      -1.6864811729194429 [Eh]
	 SCS Correlation Energy    =      -1.8271578814978877 [Eh]
	 SCS Total Energy          =    -403.9374110341164510 [Eh]
	-----------------------------------------------------------

  Dipole Moment: [D]
     X:    -2.7248      Y:    -2.8916      Z:     0.8257     Total:     4.0580

*** Psi4 exiting successfully. Buy a developer a beer!
