                               Psi4 1.3.2 release

  ==> Input File <==

--------------------------------------------------------------------------
#psi4
#
memory 32 gb

molecule  {
0 1
  O        1.7739800     1.6003060    -0.2911220
  N        0.9906540    -0.4920130     0.2058460
  C       -2.2286800    -0.2510300    -0.1765170
  C       -1.2730330    -1.4351160    -0.3152870
  C       -1.5989250     1.1242550    -0.3956020
  C       -0.0841310    -1.3759550     0.6456410
  C       -0.4584780     1.4603760     0.5782350
  C        0.8707430     0.8730760     0.1404640
  C        2.1918860    -1.1187650    -0.3259700
  H       -2.6699130    -0.2765890     0.8297550
  H       -3.0608600    -0.3791320    -0.8796750
  H       -1.8470229    -2.3340843    -0.0552108
  H       -0.8887130    -1.5005570    -1.3409750
  H       -2.3834680     1.8827830    -0.2893500
  H       -1.2246060     1.2090190    -1.4238390
  H       -0.4244360    -1.0900460     1.6492300
  H        0.3620160    -2.3701320     0.7449650
  H       -0.7218730     1.1400510     1.5944380
  H       -0.2910430     2.5394790     0.6064930
  H        1.9486170    -1.7578730    -1.1825500
  H        2.6762910    -1.7288140     0.4434650
  H        2.8674440    -0.3269360    -0.6441440
units angstrom
no_reorient  #important for SAPT in psi4, default
symmetry c1  #important for SAPT in psi4, default
}

set PROPERTIES_ORIGIN ["COM"]
properties('MP2/aug-cc-pvtz', properties = ['dipole'])
--------------------------------------------------------------------------

    Molecular point group: c1
  Charge       = 0
  Multiplicity = 1
  Basis Set: AUG-CC-PVTZ
    Blend: AUG-CC-PVTZ
  Basis Set: (AUG-CC-PVTZ AUX)
    Blend: AUG-CC-PVTZ-JKFIT

    Orbital Energies [Eh]
    ---------------------

    Doubly Occupied:

       1A    -20.505645     2A    -15.580422     3A    -11.339860
       4A    -11.271942     5A    -11.250572     6A    -11.234366
       7A    -11.233686     8A    -11.233402     9A    -11.231222
      10A     -1.361793    11A     -1.241155    12A     -1.097764
      13A     -1.038463    14A     -0.975596    15A     -0.913921
      16A     -0.877889    17A     -0.791563    18A     -0.725179
      19A     -0.691115    20A     -0.668643    21A     -0.632820
      22A     -0.608937    23A     -0.603015    24A     -0.594683
      25A     -0.582909    26A     -0.558407    27A     -0.544603
      28A     -0.525661    29A     -0.511297    30A     -0.509209
      31A     -0.480854    32A     -0.466739    33A     -0.463800
      34A     -0.407389    35A     -0.364804

  @DF-RHF Final Energy:  -402.11151610374174

   => Energetics <=

    Nuclear Repulsion Energy =            486.3564446104700778
    One-Electron Energy =               -1510.6972702002515234
    Two-Electron Energy =                 622.2293094860395968
    Total Energy =                       -402.1115161037417920
  Basis Set: (AUG-CC-PVTZ AUX)
    Blend: AUG-CC-PVTZ-RI
    Molecular point group: c1

    Geometry (in Angstrom), charge = 0, multiplicity = 1:

       Center              X                  Y                   Z               Mass
    ------------   -----------------  -----------------  -----------------  -----------------
         O            1.730096294909     1.560988405489    -0.291834724275    15.994914619570
         N            0.946770294909    -0.531330594511     0.205133275725    14.003074004430
         C           -2.272563705091    -0.290347594511    -0.177229724275    12.000000000000
         C           -1.316916705091    -1.474433594511    -0.315999724275    12.000000000000
         C           -1.642808705091     1.084937405489    -0.396314724275    12.000000000000
         C           -0.128014705091    -1.415272594511     0.644928275725    12.000000000000
         C           -0.502361705091     1.421058405489     0.577522275725    12.000000000000
         C            0.826859294909     0.833758405489     0.139751275725    12.000000000000
         C            2.148002294909    -1.158082594511    -0.326682724275    12.000000000000
         H           -2.713796705091    -0.315906594511     0.829042275725     1.007825032230
         H           -3.104743705091    -0.418449594511    -0.880387724275     1.007825032230
         H           -1.890906605091    -2.373401894511    -0.055923524275     1.007825032230
         H           -0.932596705091    -1.539874594511    -1.341687724275     1.007825032230
         H           -2.427351705091     1.843465405489    -0.290062724275     1.007825032230
         H           -1.268489705091     1.169701405489    -1.424551724275     1.007825032230
         H           -0.468319705091    -1.129363594511     1.648517275725     1.007825032230
         H            0.318132294909    -2.409449594511     0.744252275725     1.007825032230
         H           -0.765756705091     1.100733405489     1.593725275725     1.007825032230
         H           -0.334926705091     2.500161405489     0.605780275725     1.007825032230
         H            1.904733294909    -1.797190594511    -1.183262724275     1.007825032230
         H            2.632407294909    -1.768131594511     0.442752275725     1.007825032230
         H            2.823560294909    -0.366253594511    -0.644856724275     1.007825032230

  Basis Set: AUG-CC-PVTZ
    Blend: AUG-CC-PVTZ
  Basis Set: (AUG-CC-PVTZ AUX)
    Blend: AUG-CC-PVTZ-JKFIT
	 Reference Energy          =    -402.1115161037417352 [Eh]
	 Singles Energy            =      -0.0000000000000000 [Eh]
	 Same-Spin Energy          =      -0.4218132339894970 [Eh]
	 Opposite-Spin Energy      =      -1.4052916534176598 [Eh]
	 Correlation Energy        =      -1.8271048874071569 [Eh]
	 Total Energy              =    -403.9386209911488663 [Eh]

	 ================> DF-SCS-MP2 Energies <==================
	-----------------------------------------------------------
	 SCS Same-Spin Scale       =       0.3333333333333333 [-]
	 SCS Opposite-Spin Scale   =       1.2000000000000000 [-]
	 SCS Same-Spin Energy      =      -0.1406044113298323 [Eh]
	 SCS Opposite-Spin Energy  =      -1.6863499841011917 [Eh]
	 SCS Correlation Energy    =      -1.8269543954310241 [Eh]
	 SCS Total Energy          =    -403.9384704991727517 [Eh]
	-----------------------------------------------------------

  Dipole Moment: [D]
     X:    -2.5828      Y:    -3.0963      Z:     0.8125     Total:     4.1132

*** Psi4 exiting successfully. Buy a developer a beer!
