                               Psi4 1.4a3.dev225

  ==> Input File <==

--------------------------------------------------------------------------
#psi4
#
memory 32 gb

molecule  {
0 1
  O        1.7739800     1.6003060    -0.2911220
  N        0.9906540    -0.4920130     0.2058460
  C       -2.2286800    -0.2510300    -0.1765170
  C       -1.2730330    -1.4351160    -0.3152870
  C       -1.6195268     1.0792639    -0.3884349
  C       -0.0841310    -1.3759550     0.6456410
  C       -0.4584780     1.4603760     0.5782350
  C        0.8707430     0.8730760     0.1404640
  C        2.1918860    -1.1187650    -0.3259700
  H       -2.6699130    -0.2765890     0.8297550
  H       -3.0608600    -0.3791320    -0.8796750
  H       -1.8321650    -2.3606500    -0.1255340
  H       -0.8887130    -1.5005570    -1.3409750
  H       -2.3834680     1.8827830    -0.2893500
  H       -1.2246060     1.2090190    -1.4238390
  H       -0.4244360    -1.0900460     1.6492300
  H        0.3620160    -2.3701320     0.7449650
  H       -0.7218730     1.1400510     1.5944380
  H       -0.2910430     2.5394790     0.6064930
  H        1.9486170    -1.7578730    -1.1825500
  H        2.6762910    -1.7288140     0.4434650
  H        2.8674440    -0.3269360    -0.6441440
units angstrom
no_reorient  #important for SAPT in psi4, default
symmetry c1  #important for SAPT in psi4, default
}

set PROPERTIES_ORIGIN ["COM"]
properties('MP2/aug-cc-pvtz', properties = ['dipole'])
--------------------------------------------------------------------------

    Molecular point group: c1
  Charge       = 0
  Multiplicity = 1
  Basis Set: AUG-CC-PVTZ
    Blend: AUG-CC-PVTZ
  Basis Set: (AUG-CC-PVTZ AUX)
    Blend: AUG-CC-PVTZ-JKFIT

    Orbital Energies [Eh]
    ---------------------

    Doubly Occupied:

       1A    -20.505515     2A    -15.580289     3A    -11.339555
       4A    -11.272453     5A    -11.250482     6A    -11.236643
       7A    -11.234593     8A    -11.233726     9A    -11.229964
      10A     -1.361618    11A     -1.241132    12A     -1.102273
      13A     -1.036085    14A     -0.978687    15A     -0.913656
      16A     -0.879206    17A     -0.790764    18A     -0.725146
      19A     -0.690038    20A     -0.669848    21A     -0.633772
      22A     -0.608632    23A     -0.604905    24A     -0.594843
      25A     -0.582046    26A     -0.558624    27A     -0.542870
      28A     -0.526999    29A     -0.509614    30A     -0.508378
      31A     -0.483670    32A     -0.468645    33A     -0.460187
      34A     -0.406965    35A     -0.365010

  @DF-RHF Final Energy:  -402.10919581058835

   => Energetics <=

    Nuclear Repulsion Energy =            486.6376845395882924
    One-Electron Energy =               -1511.2400952941359265
    Two-Electron Energy =                 622.4932149439592877
    Total Energy =                       -402.1091958105884032
  Basis Set: (AUG-CC-PVTZ AUX)
    Blend: AUG-CC-PVTZ-RI
    Molecular point group: c1

    Geometry (in Angstrom), charge = 0, multiplicity = 1:

       Center              X                  Y                   Z               Mass
    ------------   -----------------  -----------------  -----------------  -----------------
         O            1.731923580188     1.565446848073    -0.291953778191    15.994914619570
         N            0.948597580188    -0.526872151927     0.205014221809    14.003074004430
         C           -2.270736419812    -0.285889151927    -0.177348778191    12.000000000000
         C           -1.315089419812    -1.469975151927    -0.316118778191    12.000000000000
         C           -1.661583219812     1.044404748073    -0.389266678191    12.000000000000
         C           -0.126187419812    -1.410814151927     0.644809221809    12.000000000000
         C           -0.500534419812     1.425516848073     0.577403221809    12.000000000000
         C            0.828686580188     0.838216848073     0.139632221809    12.000000000000
         C            2.149829580188    -1.153624151927    -0.326801778191    12.000000000000
         H           -2.711969419812    -0.311448151927     0.828923221809     1.007825032230
         H           -3.102916419812    -0.413991151927    -0.880506778191     1.007825032230
         H           -1.874221419812    -2.395509151927    -0.126365778191     1.007825032230
         H           -0.930769419812    -1.535416151927    -1.341806778191     1.007825032230
         H           -2.425524419812     1.847923848073    -0.290181778191     1.007825032230
         H           -1.266662419812     1.174159848073    -1.424670778191     1.007825032230
         H           -0.466492419812    -1.124905151927     1.648398221809     1.007825032230
         H            0.319959580188    -2.404991151927     0.744133221809     1.007825032230
         H           -0.763929419812     1.105191848073     1.593606221809     1.007825032230
         H           -0.333099419812     2.504619848073     0.605661221809     1.007825032230
         H            1.906560580188    -1.792732151927    -1.183381778191     1.007825032230
         H            2.634234580188    -1.763673151927     0.442633221809     1.007825032230
         H            2.825387580188    -0.361795151927    -0.644975778191     1.007825032230

  Basis Set: AUG-CC-PVTZ
    Blend: AUG-CC-PVTZ
  Basis Set: (AUG-CC-PVTZ AUX)
    Blend: AUG-CC-PVTZ-JKFIT
	 Reference Energy          =    -402.1091958105883464 [Eh]
	 Singles Energy            =      -0.0000000000000000 [Eh]
	 Same-Spin Energy          =      -0.4220975632515669 [Eh]
	 Opposite-Spin Energy      =      -1.4055597572807683 [Eh]
	 Correlation Energy        =      -1.8276573205323352 [Eh]
	 Total Energy              =    -403.9368531311206993 [Eh]

	 ================> DF-SCS-MP2 Energies <==================
	-----------------------------------------------------------
	 SCS Same-Spin Scale       =       0.3333333333333333 [-]
	 SCS Opposite-Spin Scale   =       1.2000000000000000 [-]
	 SCS Same-Spin Energy      =      -0.1406991877505223 [Eh]
	 SCS Opposite-Spin Energy  =      -1.6866717087369218 [Eh]
	 SCS Correlation Energy    =      -1.8273708964874442 [Eh]
	 SCS Total Energy          =    -403.9365667070757695 [Eh]
	-----------------------------------------------------------

  Dipole Moment: [D]
     X:    -2.6015      Y:    -3.1183      Z:     0.7988     Total:     4.1388

*** Psi4 exiting successfully. Buy a developer a beer!
