                               Psi4 1.3.2 release

  ==> Input File <==

--------------------------------------------------------------------------
#psi4
#
memory 32 gb

molecule  {
0 1
  O        1.7739800     1.6003060    -0.2911220
  N        0.9906540    -0.4920130     0.2058460
  C       -2.2286800    -0.2510300    -0.1765170
  C       -1.2730330    -1.4351160    -0.3152870
  C       -1.5989250     1.1242550    -0.3956020
  C       -0.0841310    -1.3759550     0.6456410
  C       -0.4584780     1.4603760     0.5782350
  C        0.8707430     0.8730760     0.1404640
  C        2.1918860    -1.1187650    -0.3259700
  H       -2.5992987    -0.2666827     0.8580457
  H       -3.0608600    -0.3791320    -0.8796750
  H       -1.8321650    -2.3606500    -0.1255340
  H       -0.8887130    -1.5005570    -1.3409750
  H       -2.3834680     1.8827830    -0.2893500
  H       -1.2246060     1.2090190    -1.4238390
  H       -0.4244360    -1.0900460     1.6492300
  H        0.3620160    -2.3701320     0.7449650
  H       -0.7218730     1.1400510     1.5944380
  H       -0.2910430     2.5394790     0.6064930
  H        1.9486170    -1.7578730    -1.1825500
  H        2.6762910    -1.7288140     0.4434650
  H        2.8674440    -0.3269360    -0.6441440
units angstrom
no_reorient  #important for SAPT in psi4, default
symmetry c1  #important for SAPT in psi4, default
}

set PROPERTIES_ORIGIN ["COM"]
properties('MP2/aug-cc-pvtz', properties = ['dipole'])
--------------------------------------------------------------------------

    Molecular point group: c1
  Charge       = 0
  Multiplicity = 1
  Basis Set: AUG-CC-PVTZ
    Blend: AUG-CC-PVTZ
  Basis Set: (AUG-CC-PVTZ AUX)
    Blend: AUG-CC-PVTZ-JKFIT

    Orbital Energies [Eh]
    ---------------------

    Doubly Occupied:

       1A    -20.505762     2A    -15.580648     3A    -11.340014
       4A    -11.272394     5A    -11.250620     6A    -11.234371
       7A    -11.233631     8A    -11.233048     9A    -11.231777
      10A     -1.361904    11A     -1.241279    12A     -1.098157
      13A     -1.038248    14A     -0.975587    15A     -0.913773
      16A     -0.878196    17A     -0.791739    18A     -0.725461
      19A     -0.691289    20A     -0.668712    21A     -0.634099
      22A     -0.609141    23A     -0.601430    24A     -0.594794
      25A     -0.583345    26A     -0.558098    27A     -0.544486
      28A     -0.527092    29A     -0.510425    30A     -0.509687
      31A     -0.477470    32A     -0.467817    33A     -0.465413
      34A     -0.407510    35A     -0.365180

  @DF-RHF Final Energy:  -402.11139066072394

   => Energetics <=

    Nuclear Repulsion Energy =            486.4464589295421320
    One-Electron Energy =               -1510.8705033815942897
    Two-Electron Energy =                 622.3126537913282164
    Total Energy =                       -402.1113906607239414
  Basis Set: (AUG-CC-PVTZ AUX)
    Blend: AUG-CC-PVTZ-RI
    Molecular point group: c1

    Geometry (in Angstrom), charge = 0, multiplicity = 1:

       Center              X                  Y                   Z               Mass
    ------------   -----------------  -----------------  -----------------  -----------------
         O            1.729418551269     1.561120504609    -0.291501431584    15.994914619570
         N            0.946092551269    -0.531198495391     0.205466568416    14.003074004430
         C           -2.273241448731    -0.290215495391    -0.176896431584    12.000000000000
         C           -1.317594448731    -1.474301495391    -0.315666431584    12.000000000000
         C           -1.643486448731     1.085069504609    -0.395981431584    12.000000000000
         C           -0.128692448731    -1.415140495391     0.645261568416    12.000000000000
         C           -0.503039448731     1.421190504609     0.577855568416    12.000000000000
         C            0.826181551269     0.833890504609     0.140084568416    12.000000000000
         C            2.147324551269    -1.157950495391    -0.326349431584    12.000000000000
         H           -2.643860148731    -0.305868195391     0.857666268416     1.007825032230
         H           -3.105421448731    -0.418317495391    -0.880054431584     1.007825032230
         H           -1.876726448731    -2.399835495391    -0.125913431584     1.007825032230
         H           -0.933274448731    -1.539742495391    -1.341354431584     1.007825032230
         H           -2.428029448731     1.843597504609    -0.289729431584     1.007825032230
         H           -1.269167448731     1.169833504609    -1.424218431584     1.007825032230
         H           -0.468997448731    -1.129231495391     1.648850568416     1.007825032230
         H            0.317454551269    -2.409317495391     0.744585568416     1.007825032230
         H           -0.766434448731     1.100865504609     1.594058568416     1.007825032230
         H           -0.335604448731     2.500293504609     0.606113568416     1.007825032230
         H            1.904055551269    -1.797058495391    -1.182929431584     1.007825032230
         H            2.631729551269    -1.767999495391     0.443085568416     1.007825032230
         H            2.822882551269    -0.366121495391    -0.644523431584     1.007825032230

  Basis Set: AUG-CC-PVTZ
    Blend: AUG-CC-PVTZ
  Basis Set: (AUG-CC-PVTZ AUX)
    Blend: AUG-CC-PVTZ-JKFIT
	 Reference Energy          =    -402.1113906607239414 [Eh]
	 Singles Energy            =      -0.0000000000000000 [Eh]
	 Same-Spin Energy          =      -0.4218808467146518 [Eh]
	 Opposite-Spin Energy      =      -1.4053834220281956 [Eh]
	 Correlation Energy        =      -1.8272642687428473 [Eh]
	 Total Energy              =    -403.9386549294667930 [Eh]

	 ================> DF-SCS-MP2 Energies <==================
	-----------------------------------------------------------
	 SCS Same-Spin Scale       =       0.3333333333333333 [-]
	 SCS Opposite-Spin Scale   =       1.2000000000000000 [-]
	 SCS Same-Spin Energy      =      -0.1406269489048839 [Eh]
	 SCS Opposite-Spin Energy  =      -1.6864601064338347 [Eh]
	 SCS Correlation Energy    =      -1.8270870553387186 [Eh]
	 SCS Total Energy          =    -403.9384777160626641 [Eh]
	-----------------------------------------------------------

  Dipole Moment: [D]
     X:    -2.5583      Y:    -3.1006      Z:     0.7879     Total:     4.0963

*** Psi4 exiting successfully. Buy a developer a beer!
