                               Psi4 1.3.2 release

  ==> Input File <==

--------------------------------------------------------------------------
#psi4
#
memory 32 gb

molecule  {
0 1
  O        1.7739800     1.6003060    -0.2911220
  N        0.9906540    -0.4920130     0.2058460
  C       -2.2286800    -0.2510300    -0.1765170
  C       -1.2730330    -1.4351160    -0.3152870
  C       -1.5989250     1.1242550    -0.3956020
  C       -0.0841310    -1.3759550     0.6456410
  C       -0.4584780     1.4603760     0.5782350
  C        0.9583247     0.8343791     0.1116195
  C        2.1918860    -1.1187650    -0.3259700
  H       -2.6699130    -0.2765890     0.8297550
  H       -3.0608600    -0.3791320    -0.8796750
  H       -1.8321650    -2.3606500    -0.1255340
  H       -0.8887130    -1.5005570    -1.3409750
  H       -2.3834680     1.8827830    -0.2893500
  H       -1.2246060     1.2090190    -1.4238390
  H       -0.4244360    -1.0900460     1.6492300
  H        0.3620160    -2.3701320     0.7449650
  H       -0.7218730     1.1400510     1.5944380
  H       -0.2910430     2.5394790     0.6064930
  H        1.9486170    -1.7578730    -1.1825500
  H        2.6762910    -1.7288140     0.4434650
  H        2.8674440    -0.3269360    -0.6441440
units angstrom
no_reorient  #important for SAPT in psi4, default
symmetry c1  #important for SAPT in psi4, default
}

set PROPERTIES_ORIGIN ["COM"]
properties('MP2/aug-cc-pvtz', properties = ['dipole'])
--------------------------------------------------------------------------

    Molecular point group: c1
  Charge       = 0
  Multiplicity = 1
  Basis Set: AUG-CC-PVTZ
    Blend: AUG-CC-PVTZ
  Basis Set: (AUG-CC-PVTZ AUX)
    Blend: AUG-CC-PVTZ-JKFIT

    Orbital Energies [Eh]
    ---------------------

    Doubly Occupied:

       1A    -20.508702     2A    -15.583263     3A    -11.334179
       4A    -11.276812     5A    -11.252540     6A    -11.233970
       7A    -11.228890     8A    -11.227858     9A    -11.226163
      10A     -1.391101    11A     -1.258661    12A     -1.093419
      13A     -1.030010    14A     -0.972002    15A     -0.921077
      16A     -0.869560    17A     -0.788674    18A     -0.728808
      19A     -0.686333    20A     -0.670023    21A     -0.640150
      22A     -0.612874    23A     -0.601662    24A     -0.595318
      25A     -0.580014    26A     -0.558647    27A     -0.544397
      28A     -0.531308    29A     -0.519671    30A     -0.510482
      31A     -0.477017    32A     -0.468624    33A     -0.461149
      34A     -0.391550    35A     -0.374181

  @DF-RHF Final Energy:  -402.10535607747175

   => Energetics <=

    Nuclear Repulsion Energy =            486.6143161429898214
    One-Electron Energy =               -1511.1411680083672309
    Two-Electron Energy =                 622.4214957879056556
    Total Energy =                       -402.1053560774718107
  Basis Set: (AUG-CC-PVTZ AUX)
    Blend: AUG-CC-PVTZ-RI
    Molecular point group: c1

    Geometry (in Angstrom), charge = 0, multiplicity = 1:

       Center              X                  Y                   Z               Mass
    ------------   -----------------  -----------------  -----------------  -----------------
         O            1.721709536751     1.564852587098    -0.288553776836    15.994914619570
         N            0.938383536751    -0.527466412902     0.208414223164    14.003074004430
         C           -2.280950463249    -0.286483412902    -0.173948776836    12.000000000000
         C           -1.325303463249    -1.470569412902    -0.312718776836    12.000000000000
         C           -1.651195463249     1.088801587098    -0.393033776836    12.000000000000
         C           -0.136401463249    -1.411408412902     0.648209223164    12.000000000000
         C           -0.510748463249     1.424922587098     0.580803223164    12.000000000000
         C            0.906054236751     0.798925687098     0.114187723164    12.000000000000
         C            2.139615536751    -1.154218412902    -0.323401776836    12.000000000000
         H           -2.722183463249    -0.312042412902     0.832323223164     1.007825032230
         H           -3.113130463249    -0.414585412902    -0.877106776836     1.007825032230
         H           -1.884435463249    -2.396103412902    -0.122965776836     1.007825032230
         H           -0.940983463249    -1.536010412902    -1.338406776836     1.007825032230
         H           -2.435738463249     1.847329587098    -0.286781776836     1.007825032230
         H           -1.276876463249     1.173565587098    -1.421270776836     1.007825032230
         H           -0.476706463249    -1.125499412902     1.651798223164     1.007825032230
         H            0.309745536751    -2.405585412902     0.747533223164     1.007825032230
         H           -0.774143463249     1.104597587098     1.597006223164     1.007825032230
         H           -0.343313463249     2.504025587098     0.609061223164     1.007825032230
         H            1.896346536751    -1.793326412902    -1.179981776836     1.007825032230
         H            2.624020536751    -1.764267412902     0.446033223164     1.007825032230
         H            2.815173536751    -0.362389412902    -0.641575776836     1.007825032230

  Basis Set: AUG-CC-PVTZ
    Blend: AUG-CC-PVTZ
  Basis Set: (AUG-CC-PVTZ AUX)
    Blend: AUG-CC-PVTZ-JKFIT
	 Reference Energy          =    -402.1053560774717539 [Eh]
	 Singles Energy            =      -0.0000000000000000 [Eh]
	 Same-Spin Energy          =      -0.4205790832225671 [Eh]
	 Opposite-Spin Energy      =      -1.4031214445083504 [Eh]
	 Correlation Energy        =      -1.8237005277309175 [Eh]
	 Total Energy              =    -403.9290566052026747 [Eh]

	 ================> DF-SCS-MP2 Energies <==================
	-----------------------------------------------------------
	 SCS Same-Spin Scale       =       0.3333333333333333 [-]
	 SCS Opposite-Spin Scale   =       1.2000000000000000 [-]
	 SCS Same-Spin Energy      =      -0.1401930277408557 [Eh]
	 SCS Opposite-Spin Energy  =      -1.6837457334100205 [Eh]
	 SCS Correlation Energy    =      -1.8239387611508762 [Eh]
	 SCS Total Energy          =    -403.9292948386226385 [Eh]
	-----------------------------------------------------------

  Dipole Moment: [D]
     X:    -2.1687      Y:    -3.3151      Z:     0.6958     Total:     4.0221

*** Psi4 exiting successfully. Buy a developer a beer!
