                               Psi4 1.3.2 release

  ==> Input File <==

--------------------------------------------------------------------------
#psi4
#
memory 32 gb

molecule  {
0 1
  O        1.7739800     1.6003060    -0.2911220
  N        0.9682308    -0.4933758     0.2141318
  C       -2.2286800    -0.2510300    -0.1765170
  C       -1.2730330    -1.4351160    -0.3152870
  C       -1.5989250     1.1242550    -0.3956020
  C       -0.0841310    -1.3759550     0.6456410
  C       -0.4584780     1.4603760     0.5782350
  C        0.8707430     0.8730760     0.1404640
  C        2.1918860    -1.1187650    -0.3259700
  H       -2.6699130    -0.2765890     0.8297550
  H       -3.0608600    -0.3791320    -0.8796750
  H       -1.8321650    -2.3606500    -0.1255340
  H       -0.8887130    -1.5005570    -1.3409750
  H       -2.3834680     1.8827830    -0.2893500
  H       -1.2246060     1.2090190    -1.4238390
  H       -0.4244360    -1.0900460     1.6492300
  H        0.3620160    -2.3701320     0.7449650
  H       -0.7218730     1.1400510     1.5944380
  H       -0.2910430     2.5394790     0.6064930
  H        1.9486170    -1.7578730    -1.1825500
  H        2.6762910    -1.7288140     0.4434650
  H        2.8674440    -0.3269360    -0.6441440
units angstrom
no_reorient  #important for SAPT in psi4, default
symmetry c1  #important for SAPT in psi4, default
}

set PROPERTIES_ORIGIN ["COM"]
properties('MP2/aug-cc-pvtz', properties = ['dipole'])
--------------------------------------------------------------------------

    Molecular point group: c1
  Charge       = 0
  Multiplicity = 1
  Basis Set: AUG-CC-PVTZ
    Blend: AUG-CC-PVTZ
  Basis Set: (AUG-CC-PVTZ AUX)
    Blend: AUG-CC-PVTZ-JKFIT

    Orbital Energies [Eh]
    ---------------------

    Doubly Occupied:

       1A    -20.506793     2A    -15.581037     3A    -11.340426
       4A    -11.270928     5A    -11.252611     6A    -11.234146
       7A    -11.232538     8A    -11.232412     9A    -11.231032
      10A     -1.361883    11A     -1.243088    12A     -1.096201
      13A     -1.038429    14A     -0.974238    15A     -0.913831
      16A     -0.879869    17A     -0.792399    18A     -0.725489
      19A     -0.689993    20A     -0.669744    21A     -0.633310
      22A     -0.606032    23A     -0.601576    24A     -0.593708
      25A     -0.584171    26A     -0.558314    27A     -0.542437
      28A     -0.529294    29A     -0.510744    30A     -0.508936
      31A     -0.478899    32A     -0.466734    33A     -0.465030
      34A     -0.407254    35A     -0.365635

  @DF-RHF Final Energy:  -402.11111635616987

   => Energetics <=

    Nuclear Repulsion Energy =            486.4533482452200133
    One-Electron Energy =               -1510.8906073367520548
    Two-Electron Energy =                 622.3261427353621684
    Total Energy =                       -402.1111163561698731
  Basis Set: (AUG-CC-PVTZ AUX)
    Blend: AUG-CC-PVTZ-RI
    Molecular point group: c1

    Geometry (in Angstrom), charge = 0, multiplicity = 1:

       Center              X                  Y                   Z               Mass
    ------------   -----------------  -----------------  -----------------  -----------------
         O            1.732448932503     1.561349200689    -0.292189982268    15.994914619570
         N            0.926699732503    -0.532332599311     0.213063817732    14.003074004430
         C           -2.270211067497    -0.289986799311    -0.177584982268    12.000000000000
         C           -1.314564067497    -1.474072799311    -0.316354982268    12.000000000000
         C           -1.640456067497     1.085298200689    -0.396669982268    12.000000000000
         C           -0.125662067497    -1.414911799311     0.644573017732    12.000000000000
         C           -0.500009067497     1.421419200689     0.577167017732    12.000000000000
         C            0.829211932503     0.834119200689     0.139396017732    12.000000000000
         C            2.150354932503    -1.157721799311    -0.327037982268    12.000000000000
         H           -2.711444067497    -0.315545799311     0.828687017732     1.007825032230
         H           -3.102391067497    -0.418088799311    -0.880742982268     1.007825032230
         H           -1.873696067497    -2.399606799311    -0.126601982268     1.007825032230
         H           -0.930244067497    -1.539513799311    -1.342042982268     1.007825032230
         H           -2.424999067497     1.843826200689    -0.290417982268     1.007825032230
         H           -1.266137067497     1.170062200689    -1.424906982268     1.007825032230
         H           -0.465967067497    -1.129002799311     1.648162017732     1.007825032230
         H            0.320484932503    -2.409088799311     0.743897017732     1.007825032230
         H           -0.763404067497     1.101094200689     1.593370017732     1.007825032230
         H           -0.332574067497     2.500522200689     0.605425017732     1.007825032230
         H            1.907085932503    -1.796829799311    -1.183617982268     1.007825032230
         H            2.634759932503    -1.767770799311     0.442397017732     1.007825032230
         H            2.825912932503    -0.365892799311    -0.645211982268     1.007825032230

  Basis Set: AUG-CC-PVTZ
    Blend: AUG-CC-PVTZ
  Basis Set: (AUG-CC-PVTZ AUX)
    Blend: AUG-CC-PVTZ-JKFIT
	 Reference Energy          =    -402.1111163561698731 [Eh]
	 Singles Energy            =      -0.0000000000000000 [Eh]
	 Same-Spin Energy          =      -0.4218920562800148 [Eh]
	 Opposite-Spin Energy      =      -1.4054349350378461 [Eh]
	 Correlation Energy        =      -1.8273269913178609 [Eh]
	 Total Energy              =    -403.9384433474877483 [Eh]

	 ================> DF-SCS-MP2 Energies <==================
	-----------------------------------------------------------
	 SCS Same-Spin Scale       =       0.3333333333333333 [-]
	 SCS Opposite-Spin Scale   =       1.2000000000000000 [-]
	 SCS Same-Spin Energy      =      -0.1406306854266716 [Eh]
	 SCS Opposite-Spin Energy  =      -1.6865219220454153 [Eh]
	 SCS Correlation Energy    =      -1.8271526074720870 [Eh]
	 SCS Total Energy          =    -403.9382689636419741 [Eh]
	-----------------------------------------------------------

  Dipole Moment: [D]
     X:    -2.5074      Y:    -3.1125      Z:     0.7749     Total:     4.0712

*** Psi4 exiting successfully. Buy a developer a beer!
