                               Psi4 1.3.2 release

  ==> Input File <==

--------------------------------------------------------------------------
#psi4
#
memory 32 gb

molecule  {
0 1
  O        1.7739800     1.6003060    -0.2911220
  N        0.9906540    -0.4920130     0.2058460
  C       -2.3673816    -0.1746005    -0.1538434
  C       -1.2730330    -1.4351160    -0.3152870
  C       -1.5989250     1.1242550    -0.3956020
  C       -0.0841310    -1.3759550     0.6456410
  C       -0.4584780     1.4603760     0.5782350
  C        0.8707430     0.8730760     0.1404640
  C        2.1918860    -1.1187650    -0.3259700
  H       -2.6699130    -0.2765890     0.8297550
  H       -3.0608600    -0.3791320    -0.8796750
  H       -1.8321650    -2.3606500    -0.1255340
  H       -0.8887130    -1.5005570    -1.3409750
  H       -2.3834680     1.8827830    -0.2893500
  H       -1.2246060     1.2090190    -1.4238390
  H       -0.4244360    -1.0900460     1.6492300
  H        0.3620160    -2.3701320     0.7449650
  H       -0.7218730     1.1400510     1.5944380
  H       -0.2910430     2.5394790     0.6064930
  H        1.9486170    -1.7578730    -1.1825500
  H        2.6762910    -1.7288140     0.4434650
  H        2.8674440    -0.3269360    -0.6441440
units angstrom
no_reorient  #important for SAPT in psi4, default
symmetry c1  #important for SAPT in psi4, default
}

set PROPERTIES_ORIGIN ["COM"]
properties('MP2/aug-cc-pvtz', properties = ['dipole'])
--------------------------------------------------------------------------

    Molecular point group: c1
  Charge       = 0
  Multiplicity = 1
  Basis Set: AUG-CC-PVTZ
    Blend: AUG-CC-PVTZ
  Basis Set: (AUG-CC-PVTZ AUX)
    Blend: AUG-CC-PVTZ-JKFIT

    Orbital Energies [Eh]
    ---------------------

    Doubly Occupied:

       1A    -20.505733     2A    -15.579807     3A    -11.339840
       4A    -11.271981     5A    -11.250088     6A    -11.235568
       7A    -11.235491     8A    -11.234543     9A    -11.228809
      10A     -1.361747    11A     -1.240032    12A     -1.089534
      13A     -1.030081    14A     -0.978392    15A     -0.915107
      16A     -0.871163    17A     -0.803103    18A     -0.723640
      19A     -0.692056    20A     -0.665172    21A     -0.637062
      22A     -0.612112    23A     -0.602180    24A     -0.590848
      25A     -0.580062    26A     -0.558456    27A     -0.545912
      28A     -0.525183    29A     -0.518451    30A     -0.509391
      31A     -0.489944    32A     -0.478440    33A     -0.425046
      34A     -0.408049    35A     -0.364666

  @DF-RHF Final Energy:  -402.09137281870352

   => Energetics <=

    Nuclear Repulsion Energy =            484.0676113517997123
    One-Electron Energy =               -1506.1225914877959440
    Two-Electron Energy =                 619.9636073172927127
    Total Energy =                       -402.0913728187034621
  Basis Set: (AUG-CC-PVTZ AUX)
    Blend: AUG-CC-PVTZ-RI
    Molecular point group: c1

    Geometry (in Angstrom), charge = 0, multiplicity = 1:

       Center              X                  Y                   Z               Mass
    ------------   -----------------  -----------------  -----------------  -----------------
         O            1.743073861765     1.553983036285    -0.293417809809    15.994914619570
         N            0.959747861765    -0.538335963715     0.203550190191    14.003074004430
         C           -2.398287738235    -0.220923463715    -0.156139209809    12.000000000000
         C           -1.303939138235    -1.481438963715    -0.317582809809    12.000000000000
         C           -1.629831138235     1.077932036285    -0.397897809809    12.000000000000
         C           -0.115037138235    -1.422277963715     0.643345190191    12.000000000000
         C           -0.489384138235     1.414053036285     0.575939190191    12.000000000000
         C            0.839836861765     0.826753036285     0.138168190191    12.000000000000
         C            2.160979861765    -1.165087963715    -0.328265809809    12.000000000000
         H           -2.700819138235    -0.322911963715     0.827459190191     1.007825032230
         H           -3.091766138235    -0.425454963715    -0.881970809809     1.007825032230
         H           -1.863071138235    -2.406972963715    -0.127829809809     1.007825032230
         H           -0.919619138235    -1.546879963715    -1.343270809809     1.007825032230
         H           -2.414374138235     1.836460036285    -0.291645809809     1.007825032230
         H           -1.255512138235     1.162696036285    -1.426134809809     1.007825032230
         H           -0.455342138235    -1.136368963715     1.646934190191     1.007825032230
         H            0.331109861765    -2.416454963715     0.742669190191     1.007825032230
         H           -0.752779138235     1.093728036285     1.592142190191     1.007825032230
         H           -0.321949138235     2.493156036285     0.604197190191     1.007825032230
         H            1.917710861765    -1.804195963715    -1.184845809809     1.007825032230
         H            2.645384861765    -1.775136963715     0.441169190191     1.007825032230
         H            2.836537861765    -0.373258963715    -0.646439809809     1.007825032230

  Basis Set: AUG-CC-PVTZ
    Blend: AUG-CC-PVTZ
  Basis Set: (AUG-CC-PVTZ AUX)
    Blend: AUG-CC-PVTZ-JKFIT
	 Reference Energy          =    -402.0913728187035190 [Eh]
	 Singles Energy            =      -0.0000000000000000 [Eh]
	 Same-Spin Energy          =      -0.4216116249589508 [Eh]
	 Opposite-Spin Energy      =      -1.4058900302809505 [Eh]
	 Correlation Energy        =      -1.8275016552399013 [Eh]
	 Total Energy              =    -403.9188744739434469 [Eh]

	 ================> DF-SCS-MP2 Energies <==================
	-----------------------------------------------------------
	 SCS Same-Spin Scale       =       0.3333333333333333 [-]
	 SCS Opposite-Spin Scale   =       1.2000000000000000 [-]
	 SCS Same-Spin Energy      =      -0.1405372083196502 [Eh]
	 SCS Opposite-Spin Energy  =      -1.6870680363371406 [Eh]
	 SCS Correlation Energy    =      -1.8276052446567910 [Eh]
	 SCS Total Energy          =    -403.9189780633603277 [Eh]
	-----------------------------------------------------------

  Dipole Moment: [D]
     X:    -2.6165      Y:    -3.0695      Z:     0.8224     Total:     4.1163

*** Psi4 exiting successfully. Buy a developer a beer!
