                               Psi4 1.3.2 release

  ==> Input File <==

--------------------------------------------------------------------------
#psi4
#
memory 32 gb

molecule  {
0 1
  O        1.7739800     1.6003060    -0.2911220
  N        1.0353841    -0.4880404     0.1892173
  C       -2.2286800    -0.2510300    -0.1765170
  C       -1.2730330    -1.4351160    -0.3152870
  C       -1.5989250     1.1242550    -0.3956020
  C       -0.0841310    -1.3759550     0.6456410
  C       -0.4584780     1.4603760     0.5782350
  C        0.8707430     0.8730760     0.1404640
  C        2.1918860    -1.1187650    -0.3259700
  H       -2.6699130    -0.2765890     0.8297550
  H       -3.0608600    -0.3791320    -0.8796750
  H       -1.8321650    -2.3606500    -0.1255340
  H       -0.8887130    -1.5005570    -1.3409750
  H       -2.3834680     1.8827830    -0.2893500
  H       -1.2246060     1.2090190    -1.4238390
  H       -0.4244360    -1.0900460     1.6492300
  H        0.3620160    -2.3701320     0.7449650
  H       -0.7218730     1.1400510     1.5944380
  H       -0.2910430     2.5394790     0.6064930
  H        1.9486170    -1.7578730    -1.1825500
  H        2.6762910    -1.7288140     0.4434650
  H        2.8674440    -0.3269360    -0.6441440
units angstrom
no_reorient  #important for SAPT in psi4, default
symmetry c1  #important for SAPT in psi4, default
}

set PROPERTIES_ORIGIN ["COM"]
properties('MP2/aug-cc-pvtz', properties = ['dipole'])
--------------------------------------------------------------------------

    Molecular point group: c1
  Charge       = 0
  Multiplicity = 1
  Basis Set: AUG-CC-PVTZ
    Blend: AUG-CC-PVTZ
  Basis Set: (AUG-CC-PVTZ AUX)
    Blend: AUG-CC-PVTZ-JKFIT

    Orbital Energies [Eh]
    ---------------------

    Doubly Occupied:

       1A    -20.503633     2A    -15.579608     3A    -11.339289
       4A    -11.274707     5A    -11.246582     6A    -11.236073
       7A    -11.235414     8A    -11.235078     9A    -11.232433
      10A     -1.362066    11A     -1.238725    12A     -1.100304
      13A     -1.037781    14A     -0.978316    15A     -0.914365
      16A     -0.874934    17A     -0.792839    18A     -0.725157
      19A     -0.691892    20A     -0.667175    21A     -0.633690
      22A     -0.613364    23A     -0.602417    24A     -0.595892
      25A     -0.581418    26A     -0.558662    27A     -0.548644
      28A     -0.524129    29A     -0.508547    30A     -0.505254
      31A     -0.480304    32A     -0.468631    33A     -0.465954
      34A     -0.407631    35A     -0.363543

  @DF-RHF Final Energy:  -402.10968758240040

   => Energetics <=

    Nuclear Repulsion Energy =            486.0276730921430044
    One-Electron Energy =               -1510.0258207849515202
    Two-Electron Energy =                 621.8884601104081185
    Total Energy =                       -402.1096875824003973
  Basis Set: (AUG-CC-PVTZ AUX)
    Blend: AUG-CC-PVTZ-RI
    Molecular point group: c1

    Geometry (in Angstrom), charge = 0, multiplicity = 1:

       Center              X                  Y                   Z               Mass
    ------------   -----------------  -----------------  -----------------  -----------------
         O            1.725050390054     1.560761378744    -0.289445054083    15.994914619570
         N            0.986454490054    -0.527585021256     0.190894245917    14.003074004430
         C           -2.277609609946    -0.290574621256    -0.174840054083    12.000000000000
         C           -1.321962609946    -1.474660621256    -0.313610054083    12.000000000000
         C           -1.647854609946     1.084710378744    -0.393925054083    12.000000000000
         C           -0.133060609946    -1.415499621256     0.647317945917    12.000000000000
         C           -0.507407609946     1.420831378744     0.579911945917    12.000000000000
         C            0.821813390054     0.833531378744     0.142140945917    12.000000000000
         C            2.142956390054    -1.158309621256    -0.324293054083    12.000000000000
         H           -2.718842609946    -0.316133621256     0.831431945917     1.007825032230
         H           -3.109789609946    -0.418676621256    -0.877998054083     1.007825032230
         H           -1.881094609946    -2.400194621256    -0.123857054083     1.007825032230
         H           -0.937642609946    -1.540101621256    -1.339298054083     1.007825032230
         H           -2.432397609946     1.843238378744    -0.287673054083     1.007825032230
         H           -1.273535609946     1.169474378744    -1.422162054083     1.007825032230
         H           -0.473365609946    -1.129590621256     1.650906945917     1.007825032230
         H            0.313086390054    -2.409676621256     0.746641945917     1.007825032230
         H           -0.770802609946     1.100506378744     1.596114945917     1.007825032230
         H           -0.339972609946     2.499934378744     0.608169945917     1.007825032230
         H            1.899687390054    -1.797417621256    -1.180873054083     1.007825032230
         H            2.627361390054    -1.768358621256     0.445141945917     1.007825032230
         H            2.818514390054    -0.366480621256    -0.642467054083     1.007825032230

  Basis Set: AUG-CC-PVTZ
    Blend: AUG-CC-PVTZ
  Basis Set: (AUG-CC-PVTZ AUX)
    Blend: AUG-CC-PVTZ-JKFIT
	 Reference Energy          =    -402.1096875824003973 [Eh]
	 Singles Energy            =      -0.0000000000000000 [Eh]
	 Same-Spin Energy          =      -0.4217456381095119 [Eh]
	 Opposite-Spin Energy      =      -1.4051299982371490 [Eh]
	 Correlation Energy        =      -1.8268756363466609 [Eh]
	 Total Energy              =    -403.9365632187470396 [Eh]

	 ================> DF-SCS-MP2 Energies <==================
	-----------------------------------------------------------
	 SCS Same-Spin Scale       =       0.3333333333333333 [-]
	 SCS Opposite-Spin Scale   =       1.2000000000000000 [-]
	 SCS Same-Spin Energy      =      -0.1405818793698373 [Eh]
	 SCS Opposite-Spin Energy  =      -1.6861559978845788 [Eh]
	 SCS Correlation Energy    =      -1.8267378772544161 [Eh]
	 SCS Total Energy          =    -403.9364254596547994 [Eh]
	-----------------------------------------------------------

  Dipole Moment: [D]
     X:    -2.7245      Y:    -3.0821      Z:     0.8299     Total:     4.1965

*** Psi4 exiting successfully. Buy a developer a beer!
