                               Psi4 1.3.2 release

  ==> Input File <==

--------------------------------------------------------------------------
#psi4
#
memory 32 gb

molecule  {
0 1
  O        1.7615523     1.6175858    -0.2874739
  N        0.9906540    -0.4920130     0.2058460
  C       -2.2286800    -0.2510300    -0.1765170
  C       -1.2730330    -1.4351160    -0.3152870
  C       -1.5989250     1.1242550    -0.3956020
  C       -0.0841310    -1.3759550     0.6456410
  C       -0.4584780     1.4603760     0.5782350
  C        0.8707430     0.8730760     0.1404640
  C        2.1918860    -1.1187650    -0.3259700
  H       -2.6699130    -0.2765890     0.8297550
  H       -3.0608600    -0.3791320    -0.8796750
  H       -1.8321650    -2.3606500    -0.1255340
  H       -0.8887130    -1.5005570    -1.3409750
  H       -2.3834680     1.8827830    -0.2893500
  H       -1.2246060     1.2090190    -1.4238390
  H       -0.4244360    -1.0900460     1.6492300
  H        0.3620160    -2.3701320     0.7449650
  H       -0.7218730     1.1400510     1.5944380
  H       -0.2910430     2.5394790     0.6064930
  H        1.9486170    -1.7578730    -1.1825500
  H        2.6762910    -1.7288140     0.4434650
  H        2.8674440    -0.3269360    -0.6441440
units angstrom
no_reorient  #important for SAPT in psi4, default
symmetry c1  #important for SAPT in psi4, default
}

set PROPERTIES_ORIGIN ["COM"]
properties('MP2/aug-cc-pvtz', properties = ['dipole'])
--------------------------------------------------------------------------

    Molecular point group: c1
  Charge       = 0
  Multiplicity = 1
  Basis Set: AUG-CC-PVTZ
    Blend: AUG-CC-PVTZ
  Basis Set: (AUG-CC-PVTZ AUX)
    Blend: AUG-CC-PVTZ-JKFIT

    Orbital Energies [Eh]
    ---------------------

    Doubly Occupied:

       1A    -20.505995     2A    -15.581580     3A    -11.339912
       4A    -11.272721     5A    -11.251474     6A    -11.234113
       7A    -11.233522     8A    -11.232404     9A    -11.231326
      10A     -1.361554    11A     -1.242364    12A     -1.097322
      13A     -1.037851    14A     -0.975808    15A     -0.914297
      16A     -0.878094    17A     -0.792394    18A     -0.725764
      19A     -0.690314    20A     -0.668832    21A     -0.633559
      22A     -0.608421    23A     -0.601796    24A     -0.594240
      25A     -0.583082    26A     -0.558535    27A     -0.544497
      28A     -0.527743    29A     -0.510033    30A     -0.509127
      31A     -0.479272    32A     -0.467062    33A     -0.465120
      34A     -0.406900    35A     -0.365908

  @DF-RHF Final Energy:  -402.11200747217561

   => Energetics <=

    Nuclear Repulsion Energy =            486.2275458347018571
    One-Electron Energy =               -1510.4332342236587010
    Two-Electron Energy =                 622.0936809167811816
    Total Energy =                       -402.1120074721756055
  Basis Set: (AUG-CC-PVTZ AUX)
    Blend: AUG-CC-PVTZ-RI
    Molecular point group: c1

    Geometry (in Angstrom), charge = 0, multiplicity = 1:

       Center              X                  Y                   Z               Mass
    ------------   -----------------  -----------------  -----------------  -----------------
         O            1.719114749514     1.576304272289    -0.288088099795    15.994914619570
         N            0.948216449514    -0.533294527711     0.205231800205    14.003074004430
         C           -2.271117550486    -0.292311527711    -0.177131199795    12.000000000000
         C           -1.315470550486    -1.476397527711    -0.315901199795    12.000000000000
         C           -1.641362550486     1.082973472289    -0.396216199795    12.000000000000
         C           -0.126568550486    -1.417236527711     0.645026800205    12.000000000000
         C           -0.500915550486     1.419094472289     0.577620800205    12.000000000000
         C            0.828305449514     0.831794472289     0.139849800205    12.000000000000
         C            2.149448449514    -1.160046527711    -0.326584199795    12.000000000000
         H           -2.712350550486    -0.317870527711     0.829140800205     1.007825032230
         H           -3.103297550486    -0.420413527711    -0.880289199795     1.007825032230
         H           -1.874602550486    -2.401931527711    -0.126148199795     1.007825032230
         H           -0.931150550486    -1.541838527711    -1.341589199795     1.007825032230
         H           -2.425905550486     1.841501472289    -0.289964199795     1.007825032230
         H           -1.267043550486     1.167737472289    -1.424453199795     1.007825032230
         H           -0.466873550486    -1.131327527711     1.648615800205     1.007825032230
         H            0.319578449514    -2.411413527711     0.744350800205     1.007825032230
         H           -0.764310550486     1.098769472289     1.593823800205     1.007825032230
         H           -0.333480550486     2.498197472289     0.605878800205     1.007825032230
         H            1.906179449514    -1.799154527711    -1.183164199795     1.007825032230
         H            2.633853449514    -1.770095527711     0.442850800205     1.007825032230
         H            2.825006449514    -0.368217527711    -0.644758199795     1.007825032230

  Basis Set: AUG-CC-PVTZ
    Blend: AUG-CC-PVTZ
  Basis Set: (AUG-CC-PVTZ AUX)
    Blend: AUG-CC-PVTZ-JKFIT
	 Reference Energy          =    -402.1120074721756055 [Eh]
	 Singles Energy            =      -0.0000000000000000 [Eh]
	 Same-Spin Energy          =      -0.4217400940388801 [Eh]
	 Opposite-Spin Energy      =      -1.4052002629157330 [Eh]
	 Correlation Energy        =      -1.8269403569546130 [Eh]
	 Total Energy              =    -403.9389478291301998 [Eh]

	 ================> DF-SCS-MP2 Energies <==================
	-----------------------------------------------------------
	 SCS Same-Spin Scale       =       0.3333333333333333 [-]
	 SCS Opposite-Spin Scale   =       1.2000000000000000 [-]
	 SCS Same-Spin Energy      =      -0.1405800313462934 [Eh]
	 SCS Opposite-Spin Energy  =      -1.6862403154988794 [Eh]
	 SCS Correlation Energy    =      -1.8268203468451727 [Eh]
	 SCS Total Energy          =    -403.9388278190207870 [Eh]
	-----------------------------------------------------------

  Dipole Moment: [D]
     X:    -2.5416      Y:    -3.1547      Z:     0.7845     Total:     4.1264

*** Psi4 exiting successfully. Buy a developer a beer!
