                               Psi4 1.3.2 release

  ==> Input File <==

--------------------------------------------------------------------------
#psi4
#
memory 32 gb

molecule  {
0 1
  O        1.7612259     1.6175021    -0.2882981
  N        0.9906540    -0.4920130     0.2058460
  C       -2.2286800    -0.2510300    -0.1765170
  C       -1.2730330    -1.4351160    -0.3152870
  C       -1.5989250     1.1242550    -0.3956020
  C       -0.0841310    -1.3759550     0.6456410
  C       -0.4584780     1.4603760     0.5782350
  C        0.8707430     0.8730760     0.1404640
  C        2.1918860    -1.1187650    -0.3259700
  H       -2.6699130    -0.2765890     0.8297550
  H       -3.0608600    -0.3791320    -0.8796750
  H       -1.8321650    -2.3606500    -0.1255340
  H       -0.8887130    -1.5005570    -1.3409750
  H       -2.3834680     1.8827830    -0.2893500
  H       -1.2246060     1.2090190    -1.4238390
  H       -0.4244360    -1.0900460     1.6492300
  H        0.3620160    -2.3701320     0.7449650
  H       -0.7218730     1.1400510     1.5944380
  H       -0.2910430     2.5394790     0.6064930
  H        1.9486170    -1.7578730    -1.1825500
  H        2.6762910    -1.7288140     0.4434650
  H        2.8674440    -0.3269360    -0.6441440
units angstrom
no_reorient  #important for SAPT in psi4, default
symmetry c1  #important for SAPT in psi4, default
}

set PROPERTIES_ORIGIN ["COM"]
properties('MP2/aug-cc-pvtz', properties = ['dipole'])
--------------------------------------------------------------------------

    Molecular point group: c1
  Charge       = 0
  Multiplicity = 1
  Basis Set: AUG-CC-PVTZ
    Blend: AUG-CC-PVTZ
  Basis Set: (AUG-CC-PVTZ AUX)
    Blend: AUG-CC-PVTZ-JKFIT

    Orbital Energies [Eh]
    ---------------------

    Doubly Occupied:

       1A    -20.505995     2A    -15.581580     3A    -11.339913
       4A    -11.272720     5A    -11.251472     6A    -11.234113
       7A    -11.233520     8A    -11.232405     9A    -11.231325
      10A     -1.361555    11A     -1.242363    12A     -1.097321
      13A     -1.037849    14A     -0.975807    15A     -0.914296
      16A     -0.878094    17A     -0.792392    18A     -0.725763
      19A     -0.690313    20A     -0.668832    21A     -0.633560
      22A     -0.608422    23A     -0.601789    24A     -0.594238
      25A     -0.583080    26A     -0.558531    27A     -0.544502
      28A     -0.527741    29A     -0.510027    30A     -0.509131
      31A     -0.479269    32A     -0.467059    33A     -0.465119
      34A     -0.406902    35A     -0.365907

  @DF-RHF Final Energy:  -402.11200640235165

   => Energetics <=

    Nuclear Repulsion Energy =            486.2298822589973497
    One-Electron Energy =               -1510.4379691700260082
    Two-Electron Energy =                 622.0960805086770051
    Total Energy =                       -402.1120064023516534
  Basis Set: (AUG-CC-PVTZ AUX)
    Blend: AUG-CC-PVTZ-RI
    Molecular point group: c1

    Geometry (in Angstrom), charge = 0, multiplicity = 1:

       Center              X                  Y                   Z               Mass
    ------------   -----------------  -----------------  -----------------  -----------------
         O            1.718829425454     1.576231105549    -0.288808578014    15.994914619570
         N            0.948257525454    -0.533283994451     0.205335521986    14.003074004430
         C           -2.271076474546    -0.292300994451    -0.177027478014    12.000000000000
         C           -1.315429474546    -1.476386994451    -0.315797478014    12.000000000000
         C           -1.641321474546     1.082984005549    -0.396112478014    12.000000000000
         C           -0.126527474546    -1.417225994451     0.645130521986    12.000000000000
         C           -0.500874474546     1.419105005549     0.577724521986    12.000000000000
         C            0.828346525454     0.831805005549     0.139953521986    12.000000000000
         C            2.149489525454    -1.160035994451    -0.326480478014    12.000000000000
         H           -2.712309474546    -0.317859994451     0.829244521986     1.007825032230
         H           -3.103256474546    -0.420402994451    -0.880185478014     1.007825032230
         H           -1.874561474546    -2.401920994451    -0.126044478014     1.007825032230
         H           -0.931109474546    -1.541827994451    -1.341485478014     1.007825032230
         H           -2.425864474546     1.841512005549    -0.289860478014     1.007825032230
         H           -1.267002474546     1.167748005549    -1.424349478014     1.007825032230
         H           -0.466832474546    -1.131316994451     1.648719521986     1.007825032230
         H            0.319619525454    -2.411402994451     0.744454521986     1.007825032230
         H           -0.764269474546     1.098780005549     1.593927521986     1.007825032230
         H           -0.333439474546     2.498208005549     0.605982521986     1.007825032230
         H            1.906220525454    -1.799143994451    -1.183060478014     1.007825032230
         H            2.633894525454    -1.770084994451     0.442954521986     1.007825032230
         H            2.825047525454    -0.368206994451    -0.644654478014     1.007825032230

  Basis Set: AUG-CC-PVTZ
    Blend: AUG-CC-PVTZ
  Basis Set: (AUG-CC-PVTZ AUX)
    Blend: AUG-CC-PVTZ-JKFIT
	 Reference Energy          =    -402.1120064023516534 [Eh]
	 Singles Energy            =      -0.0000000000000000 [Eh]
	 Same-Spin Energy          =      -0.4217406729749640 [Eh]
	 Opposite-Spin Energy      =      -1.4052007456027753 [Eh]
	 Correlation Energy        =      -1.8269414185777393 [Eh]
	 Total Energy              =    -403.9389478209293998 [Eh]

	 ================> DF-SCS-MP2 Energies <==================
	-----------------------------------------------------------
	 SCS Same-Spin Scale       =       0.3333333333333333 [-]
	 SCS Opposite-Spin Scale   =       1.2000000000000000 [-]
	 SCS Same-Spin Energy      =      -0.1405802243249880 [Eh]
	 SCS Opposite-Spin Energy  =      -1.6862408947233303 [Eh]
	 SCS Correlation Energy    =      -1.8268211190483183 [Eh]
	 SCS Total Energy          =    -403.9388275213999577 [Eh]
	-----------------------------------------------------------

  Dipole Moment: [D]
     X:    -2.5410      Y:    -3.1545      Z:     0.7858     Total:     4.1261

*** Psi4 exiting successfully. Buy a developer a beer!
