                               Psi4 1.3.2 release

  ==> Input File <==

--------------------------------------------------------------------------
#psi4
#
memory 32 gb

molecule  {
0 1
  O        1.7739800     1.6003060    -0.2911220
  N        0.9906540    -0.4920130     0.2058460
  C       -2.2453388    -0.2463782    -0.1968249
  C       -1.2730330    -1.4351160    -0.3152870
  C       -1.5989250     1.1242550    -0.3956020
  C       -0.0841310    -1.3759550     0.6456410
  C       -0.4584780     1.4603760     0.5782350
  C        0.8707430     0.8730760     0.1404640
  C        2.1918860    -1.1187650    -0.3259700
  H       -2.6699130    -0.2765890     0.8297550
  H       -3.0608600    -0.3791320    -0.8796750
  H       -1.8321650    -2.3606500    -0.1255340
  H       -0.8887130    -1.5005570    -1.3409750
  H       -2.3834680     1.8827830    -0.2893500
  H       -1.2246060     1.2090190    -1.4238390
  H       -0.4244360    -1.0900460     1.6492300
  H        0.3620160    -2.3701320     0.7449650
  H       -0.7218730     1.1400510     1.5944380
  H       -0.2910430     2.5394790     0.6064930
  H        1.9486170    -1.7578730    -1.1825500
  H        2.6762910    -1.7288140     0.4434650
  H        2.8674440    -0.3269360    -0.6441440
units angstrom
no_reorient  #important for SAPT in psi4, default
symmetry c1  #important for SAPT in psi4, default
}

set PROPERTIES_ORIGIN ["COM"]
properties('MP2/aug-cc-pvtz', properties = ['dipole'])
--------------------------------------------------------------------------

    Molecular point group: c1
  Charge       = 0
  Multiplicity = 1
  Basis Set: AUG-CC-PVTZ
    Blend: AUG-CC-PVTZ
  Basis Set: (AUG-CC-PVTZ AUX)
    Blend: AUG-CC-PVTZ-JKFIT

    Orbital Energies [Eh]
    ---------------------

    Doubly Occupied:

       1A    -20.505792     2A    -15.580577     3A    -11.340018
       4A    -11.272589     5A    -11.250584     6A    -11.234645
       7A    -11.233974     8A    -11.233663     9A    -11.231203
      10A     -1.361913    11A     -1.241140    12A     -1.096372
      13A     -1.037377    14A     -0.976211    15A     -0.914332
      16A     -0.877797    17A     -0.792659    18A     -0.725379
      19A     -0.690900    20A     -0.668918    21A     -0.632777
      22A     -0.609153    23A     -0.601758    24A     -0.594131
      25A     -0.582805    26A     -0.558033    27A     -0.545258
      28A     -0.526742    29A     -0.511164    30A     -0.509397
      31A     -0.475598    32A     -0.471509    33A     -0.462839
      34A     -0.407679    35A     -0.365247

  @DF-RHF Final Energy:  -402.11146813773161

   => Energetics <=

    Nuclear Repulsion Energy =            485.9988821943629205
    One-Electron Energy =               -1509.9804291593147809
    Two-Electron Energy =                 621.8700788272201407
    Total Energy =                       -402.1114681377316629
  Basis Set: (AUG-CC-PVTZ AUX)
    Blend: AUG-CC-PVTZ-RI
    Molecular point group: c1

    Geometry (in Angstrom), charge = 0, multiplicity = 1:

       Center              X                  Y                   Z               Mass
    ------------   -----------------  -----------------  -----------------  -----------------
         O            1.731551305550     1.560759860344    -0.289359751899    15.994914619570
         N            0.948225305550    -0.531559139656     0.207608248101    14.003074004430
         C           -2.287767494450    -0.285924339656    -0.195062651899    12.000000000000
         C           -1.315461694450    -1.474662139656    -0.313524751899    12.000000000000
         C           -1.641353694450     1.084708860344    -0.393839751899    12.000000000000
         C           -0.126559694450    -1.415501139656     0.647403248101    12.000000000000
         C           -0.500906694450     1.420829860344     0.579997248101    12.000000000000
         C            0.828314305550     0.833529860344     0.142226248101    12.000000000000
         C            2.149457305550    -1.158311139656    -0.324207751899    12.000000000000
         H           -2.712341694450    -0.316135139656     0.831517248101     1.007825032230
         H           -3.103288694450    -0.418678139656    -0.877912751899     1.007825032230
         H           -1.874593694450    -2.400196139656    -0.123771751899     1.007825032230
         H           -0.931141694450    -1.540103139656    -1.339212751899     1.007825032230
         H           -2.425896694450     1.843236860344    -0.287587751899     1.007825032230
         H           -1.267034694450     1.169472860344    -1.422076751899     1.007825032230
         H           -0.466864694450    -1.129592139656     1.650992248101     1.007825032230
         H            0.319587305550    -2.409678139656     0.746727248101     1.007825032230
         H           -0.764301694450     1.100504860344     1.596200248101     1.007825032230
         H           -0.333471694450     2.499932860344     0.608255248101     1.007825032230
         H            1.906188305550    -1.797419139656    -1.180787751899     1.007825032230
         H            2.633862305550    -1.768360139656     0.445227248101     1.007825032230
         H            2.825015305550    -0.366482139656    -0.642381751899     1.007825032230

  Basis Set: AUG-CC-PVTZ
    Blend: AUG-CC-PVTZ
  Basis Set: (AUG-CC-PVTZ AUX)
    Blend: AUG-CC-PVTZ-JKFIT
	 Reference Energy          =    -402.1114681377316060 [Eh]
	 Singles Energy            =      -0.0000000000000000 [Eh]
	 Same-Spin Energy          =      -0.4216935746919651 [Eh]
	 Opposite-Spin Energy      =      -1.4051436339870704 [Eh]
	 Correlation Energy        =      -1.8268372086790357 [Eh]
	 Total Energy              =    -403.9383053464106297 [Eh]

	 ================> DF-SCS-MP2 Energies <==================
	-----------------------------------------------------------
	 SCS Same-Spin Scale       =       0.3333333333333333 [-]
	 SCS Opposite-Spin Scale   =       1.2000000000000000 [-]
	 SCS Same-Spin Energy      =      -0.1405645248973217 [Eh]
	 SCS Opposite-Spin Energy  =      -1.6861723607844845 [Eh]
	 SCS Correlation Energy    =      -1.8267368856818063 [Eh]
	 SCS Total Energy          =    -403.9382050234133885 [Eh]
	-----------------------------------------------------------

  Dipole Moment: [D]
     X:    -2.5813      Y:    -3.1008      Z:     0.7847     Total:     4.1102

*** Psi4 exiting successfully. Buy a developer a beer!
