                               Psi4 1.4a3.dev225

  ==> Input File <==

--------------------------------------------------------------------------
#psi4
#
memory 32 gb

molecule  {
0 1
  O        1.7739800     1.6003060    -0.2911220
  N        0.9906540    -0.4920130     0.2058460
  C       -2.2286800    -0.2510300    -0.1765170
  C       -1.2730330    -1.4351160    -0.3152870
  C       -1.5989250     1.1242550    -0.3956020
  C       -0.0841310    -1.3759550     0.6456410
  C       -0.4584780     1.4603760     0.5782350
  C        0.8707430     0.8730760     0.1404640
  C        2.1918860    -1.1187650    -0.3259700
  H       -2.6699130    -0.2765890     0.8297550
  H       -3.0608600    -0.3791320    -0.8796750
  H       -1.8423511    -2.3775110    -0.1220772
  H       -0.8887130    -1.5005570    -1.3409750
  H       -2.3834680     1.8827830    -0.2893500
  H       -1.2246060     1.2090190    -1.4238390
  H       -0.4244360    -1.0900460     1.6492300
  H        0.3620160    -2.3701320     0.7449650
  H       -0.7218730     1.1400510     1.5944380
  H       -0.2910430     2.5394790     0.6064930
  H        1.9486170    -1.7578730    -1.1825500
  H        2.6762910    -1.7288140     0.4434650
  H        2.8674440    -0.3269360    -0.6441440
units angstrom
no_reorient  #important for SAPT in psi4, default
symmetry c1  #important for SAPT in psi4, default
}

set PROPERTIES_ORIGIN ["COM"]
properties('MP2/aug-cc-pvtz', properties = ['dipole'])
--------------------------------------------------------------------------

    Molecular point group: c1
  Charge       = 0
  Multiplicity = 1
  Basis Set: AUG-CC-PVTZ
    Blend: AUG-CC-PVTZ
  Basis Set: (AUG-CC-PVTZ AUX)
    Blend: AUG-CC-PVTZ-JKFIT

    Orbital Energies [Eh]
    ---------------------

    Doubly Occupied:

       1A    -20.505842     2A    -15.580754     3A    -11.340066
       4A    -11.272391     5A    -11.250686     6A    -11.235833
       7A    -11.234826     8A    -11.233631     9A    -11.231708
      10A     -1.361980    11A     -1.241342    12A     -1.097433
      13A     -1.037675    14A     -0.975745    15A     -0.914032
      16A     -0.877351    17A     -0.792114    18A     -0.725396
      19A     -0.690525    20A     -0.668342    21A     -0.633276
      22A     -0.608467    23A     -0.601599    24A     -0.593797
      25A     -0.582845    26A     -0.557925    27A     -0.544534
      28A     -0.526951    29A     -0.509703    30A     -0.509147
      31A     -0.479338    32A     -0.467157    33A     -0.465086
      34A     -0.407567    35A     -0.365234

  @DF-RHF Final Energy:  -402.11152204979589

   => Energetics <=

    Nuclear Repulsion Energy =            486.1978847370264134
    One-Electron Energy =               -1510.3782186599910347
    Two-Electron Energy =                 622.0688118731686700
    Total Energy =                       -402.1115220497958944
  Basis Set: (AUG-CC-PVTZ AUX)
    Blend: AUG-CC-PVTZ-RI
    Molecular point group: c1

    Geometry (in Angstrom), charge = 0, multiplicity = 1:

       Center              X                  Y                   Z               Mass
    ------------   -----------------  -----------------  -----------------  -----------------
         O            1.730059250317     1.561332753355    -0.291304513548    15.994914619570
         N            0.946733250317    -0.530986246645     0.205663486452    14.003074004430
         C           -2.272600749683    -0.290003246645    -0.176699513548    12.000000000000
         C           -1.316953749683    -1.474089246645    -0.315469513548    12.000000000000
         C           -1.642845749683     1.085281753355    -0.395784513548    12.000000000000
         C           -0.128051749683    -1.414928246645     0.645458486452    12.000000000000
         C           -0.502398749683     1.421402753355     0.578052486452    12.000000000000
         C            0.826822250317     0.834102753355     0.140281486452    12.000000000000
         C            2.147965250317    -1.157738246645    -0.326152513548    12.000000000000
         H           -2.713833749683    -0.315562246645     0.829572486452     1.007825032230
         H           -3.104780749683    -0.418105246645    -0.879857513548     1.007825032230
         H           -1.886271849683    -2.416484246645    -0.122259713548     1.007825032230
         H           -0.932633749683    -1.539530246645    -1.341157513548     1.007825032230
         H           -2.427388749683     1.843809753355    -0.289532513548     1.007825032230
         H           -1.268526749683     1.170045753355    -1.424021513548     1.007825032230
         H           -0.468356749683    -1.129019246645     1.649047486452     1.007825032230
         H            0.318095250317    -2.409105246645     0.744782486452     1.007825032230
         H           -0.765793749683     1.101077753355     1.594255486452     1.007825032230
         H           -0.334963749683     2.500505753355     0.606310486452     1.007825032230
         H            1.904696250317    -1.796846246645    -1.182732513548     1.007825032230
         H            2.632370250317    -1.767787246645     0.443282486452     1.007825032230
         H            2.823523250317    -0.365909246645    -0.644326513548     1.007825032230

  Basis Set: AUG-CC-PVTZ
    Blend: AUG-CC-PVTZ
  Basis Set: (AUG-CC-PVTZ AUX)
    Blend: AUG-CC-PVTZ-JKFIT
	 Reference Energy          =    -402.1115220497958944 [Eh]
	 Singles Energy            =      -0.0000000000000000 [Eh]
	 Same-Spin Energy          =      -0.4217872675630673 [Eh]
	 Opposite-Spin Energy      =      -1.4053520216563720 [Eh]
	 Correlation Energy        =      -1.8271392892194394 [Eh]
	 Total Energy              =    -403.9386613390153116 [Eh]

	 ================> DF-SCS-MP2 Energies <==================
	-----------------------------------------------------------
	 SCS Same-Spin Scale       =       0.3333333333333333 [-]
	 SCS Opposite-Spin Scale   =       1.2000000000000000 [-]
	 SCS Same-Spin Energy      =      -0.1405957558543558 [Eh]
	 SCS Opposite-Spin Energy  =      -1.6864224259876464 [Eh]
	 SCS Correlation Energy    =      -1.8270181818420022 [Eh]
	 SCS Total Energy          =    -403.9385402316378872 [Eh]
	-----------------------------------------------------------

  Dipole Moment: [D]
     X:    -2.5711      Y:    -3.0880      Z:     0.7926     Total:     4.0957

*** Psi4 exiting successfully. Buy a developer a beer!
