                               Psi4 1.3.2 release

  ==> Input File <==

--------------------------------------------------------------------------
#psi4
#
memory 32 gb

molecule  {
0 1
  O        1.7739800     1.6003060    -0.2911220
  N        0.9906540    -0.4920130     0.2058460
  C       -2.2286800    -0.2510300    -0.1765170
  C       -1.2730330    -1.4351160    -0.3152870
  C       -1.5274600     1.0704673    -0.4548206
  C       -0.0841310    -1.3759550     0.6456410
  C       -0.4584780     1.4603760     0.5782350
  C        0.8707430     0.8730760     0.1404640
  C        2.1918860    -1.1187650    -0.3259700
  H       -2.6699130    -0.2765890     0.8297550
  H       -3.0608600    -0.3791320    -0.8796750
  H       -1.8321650    -2.3606500    -0.1255340
  H       -0.8887130    -1.5005570    -1.3409750
  H       -2.3834680     1.8827830    -0.2893500
  H       -1.2246060     1.2090190    -1.4238390
  H       -0.4244360    -1.0900460     1.6492300
  H        0.3620160    -2.3701320     0.7449650
  H       -0.7218730     1.1400510     1.5944380
  H       -0.2910430     2.5394790     0.6064930
  H        1.9486170    -1.7578730    -1.1825500
  H        2.6762910    -1.7288140     0.4434650
  H        2.8674440    -0.3269360    -0.6441440
units angstrom
no_reorient  #important for SAPT in psi4, default
symmetry c1  #important for SAPT in psi4, default
}

set PROPERTIES_ORIGIN ["COM"]
properties('MP2/aug-cc-pvtz', properties = ['dipole'])
--------------------------------------------------------------------------

    Molecular point group: c1
  Charge       = 0
  Multiplicity = 1
  Basis Set: AUG-CC-PVTZ
    Blend: AUG-CC-PVTZ
  Basis Set: (AUG-CC-PVTZ AUX)
    Blend: AUG-CC-PVTZ-JKFIT

    Orbital Energies [Eh]
    ---------------------

    Doubly Occupied:

       1A    -20.504810     2A    -15.580188     3A    -11.338349
       4A    -11.272190     5A    -11.250495     6A    -11.236875
       7A    -11.234942     8A    -11.232882     9A    -11.231709
      10A     -1.361397    11A     -1.241150    12A     -1.099943
      13A     -1.038582    14A     -0.975712    15A     -0.913598
      16A     -0.876554    17A     -0.797688    18A     -0.725532
      19A     -0.690308    20A     -0.668802    21A     -0.635407
      22A     -0.608598    23A     -0.605019    24A     -0.590834
      25A     -0.577567    26A     -0.559420    27A     -0.542468
      28A     -0.529554    29A     -0.517155    30A     -0.508402
      31A     -0.490853    32A     -0.470535    33A     -0.446498
      34A     -0.403705    35A     -0.365037

  @DF-RHF Final Energy:  -402.09945662609238

   => Energetics <=

    Nuclear Repulsion Energy =            487.2425188943033731
    One-Electron Energy =               -1512.4384343594972506
    Two-Electron Energy =                 623.0964588391013876
    Total Energy =                       -402.0994566260924330
  Basis Set: (AUG-CC-PVTZ AUX)
    Blend: AUG-CC-PVTZ-RI
    Molecular point group: c1

    Geometry (in Angstrom), charge = 0, multiplicity = 1:

       Center              X                  Y                   Z               Mass
    ------------   -----------------  -----------------  -----------------  -----------------
         O            1.723231179828     1.566277370791    -0.285686034743    15.994914619570
         N            0.939905179828    -0.526041629209     0.211281965257    14.003074004430
         C           -2.279428820172    -0.285058629209    -0.171081034743    12.000000000000
         C           -1.323781820172    -1.469144629209    -0.309851034743    12.000000000000
         C           -1.578208820172     1.036438670791    -0.449384634743    12.000000000000
         C           -0.134879820172    -1.409983629209     0.651076965257    12.000000000000
         C           -0.509226820172     1.426347370791     0.583670965257    12.000000000000
         C            0.819994179828     0.839047370791     0.145899965257    12.000000000000
         C            2.141137179828    -1.152793629209    -0.320534034743    12.000000000000
         H           -2.720661820172    -0.310617629209     0.835190965257     1.007825032230
         H           -3.111608820172    -0.413160629209    -0.874239034743     1.007825032230
         H           -1.882913820172    -2.394678629209    -0.120098034743     1.007825032230
         H           -0.939461820172    -1.534585629209    -1.335539034743     1.007825032230
         H           -2.434216820172     1.848754370791    -0.283914034743     1.007825032230
         H           -1.275354820172     1.174990370791    -1.418403034743     1.007825032230
         H           -0.475184820172    -1.124074629209     1.654665965257     1.007825032230
         H            0.311267179828    -2.404160629209     0.750400965257     1.007825032230
         H           -0.772621820172     1.106022370791     1.599873965257     1.007825032230
         H           -0.341791820172     2.505450370791     0.611928965257     1.007825032230
         H            1.897868179828    -1.791901629209    -1.177114034743     1.007825032230
         H            2.625542179828    -1.762842629209     0.448900965257     1.007825032230
         H            2.816695179828    -0.360964629209    -0.638708034743     1.007825032230

  Basis Set: AUG-CC-PVTZ
    Blend: AUG-CC-PVTZ
  Basis Set: (AUG-CC-PVTZ AUX)
    Blend: AUG-CC-PVTZ-JKFIT
	 Reference Energy          =    -402.0994566260923762 [Eh]
	 Singles Energy            =      -0.0000000000000000 [Eh]
	 Same-Spin Energy          =      -0.4221391090801806 [Eh]
	 Opposite-Spin Energy      =      -1.4059926687358106 [Eh]
	 Correlation Energy        =      -1.8281317778159911 [Eh]
	 Total Energy              =    -403.9275884039083735 [Eh]

	 ================> DF-SCS-MP2 Energies <==================
	-----------------------------------------------------------
	 SCS Same-Spin Scale       =       0.3333333333333333 [-]
	 SCS Opposite-Spin Scale   =       1.2000000000000000 [-]
	 SCS Same-Spin Energy      =      -0.1407130363600602 [Eh]
	 SCS Opposite-Spin Energy  =      -1.6871912024829727 [Eh]
	 SCS Correlation Energy    =      -1.8279042388430329 [Eh]
	 SCS Total Energy          =    -403.9273608649353946 [Eh]
	-----------------------------------------------------------

  Dipole Moment: [D]
     X:    -2.5621      Y:    -3.1244      Z:     0.7945     Total:     4.1179

*** Psi4 exiting successfully. Buy a developer a beer!
