                               Psi4 1.4a3.dev225

  ==> Input File <==

--------------------------------------------------------------------------
#psi4
#
memory 32 gb

molecule  {
0 1
  O        1.7739800     1.6003060    -0.2911220
  N        0.9906540    -0.4920130     0.2058460
  C       -2.2286800    -0.2510300    -0.1765170
  C       -1.2730330    -1.4351160    -0.3152870
  C       -1.5989250     1.1242550    -0.3956020
  C       -0.0841310    -1.3759550     0.6456410
  C       -0.4584780     1.4603760     0.5782350
  C        0.8707430     0.8730760     0.1404640
  C        2.1918860    -1.1187650    -0.3259700
  H       -2.6699130    -0.2765890     0.8297550
  H       -3.0608600    -0.3791320    -0.8796750
  H       -1.8321650    -2.3606500    -0.1255340
  H       -0.8887130    -1.5005570    -1.3409750
  H       -2.3834680     1.8827830    -0.2893500
  H       -1.2246060     1.2090190    -1.4238390
  H       -0.4182351    -1.0952557     1.6309432
  H        0.3620160    -2.3701320     0.7449650
  H       -0.7218730     1.1400510     1.5944380
  H       -0.2910430     2.5394790     0.6064930
  H        1.9486170    -1.7578730    -1.1825500
  H        2.6762910    -1.7288140     0.4434650
  H        2.8674440    -0.3269360    -0.6441440
units angstrom
no_reorient  #important for SAPT in psi4, default
symmetry c1  #important for SAPT in psi4, default
}

set PROPERTIES_ORIGIN ["COM"]
properties('MP2/aug-cc-pvtz', properties = ['dipole'])
--------------------------------------------------------------------------

    Molecular point group: c1
  Charge       = 0
  Multiplicity = 1
  Basis Set: AUG-CC-PVTZ
    Blend: AUG-CC-PVTZ
  Basis Set: (AUG-CC-PVTZ AUX)
    Blend: AUG-CC-PVTZ-JKFIT

    Orbital Energies [Eh]
    ---------------------

    Doubly Occupied:

       1A    -20.505606     2A    -15.580332     3A    -11.339858
       4A    -11.269783     5A    -11.250430     6A    -11.234671
       7A    -11.233564     8A    -11.233168     9A    -11.231494
      10A     -1.361755    11A     -1.241184    12A     -1.097605
      13A     -1.038462    14A     -0.976050    15A     -0.914174
      16A     -0.878463    17A     -0.792848    18A     -0.726779
      19A     -0.690738    20A     -0.668712    21A     -0.633412
      22A     -0.608460    23A     -0.601965    24A     -0.594479
      25A     -0.583599    26A     -0.558661    27A     -0.544366
      28A     -0.527087    29A     -0.510819    30A     -0.509023
      31A     -0.479439    32A     -0.467386    33A     -0.465424
      34A     -0.407390    35A     -0.365123

  @DF-RHF Final Energy:  -402.11217171486476

   => Energetics <=

    Nuclear Repulsion Energy =            486.4007163645298988
    One-Electron Energy =               -1510.7811639502708658
    Two-Electron Energy =                 622.2682758708762094
    Total Energy =                       -402.1121717148647576
  Basis Set: (AUG-CC-PVTZ AUX)
    Blend: AUG-CC-PVTZ-RI
    Molecular point group: c1

    Geometry (in Angstrom), charge = 0, multiplicity = 1:

       Center              X                  Y                   Z               Mass
    ------------   -----------------  -----------------  -----------------  -----------------
         O            1.729929311167     1.561240365486    -0.291132099751    15.994914619570
         N            0.946603311167    -0.531078634514     0.205835900249    14.003074004430
         C           -2.272730688833    -0.290095634514    -0.176527099751    12.000000000000
         C           -1.317083688833    -1.474181634514    -0.315297099751    12.000000000000
         C           -1.642975688833     1.085189365486    -0.395612099751    12.000000000000
         C           -0.128181688833    -1.415020634514     0.645630900249    12.000000000000
         C           -0.502528688833     1.421310365486     0.578224900249    12.000000000000
         C            0.826692311167     0.834010365486     0.140453900249    12.000000000000
         C            2.147835311167    -1.157830634514    -0.325980099751    12.000000000000
         H           -2.713963688833    -0.315654634514     0.829744900249     1.007825032230
         H           -3.104910688833    -0.418197634514    -0.879685099751     1.007825032230
         H           -1.876215688833    -2.399715634514    -0.125544099751     1.007825032230
         H           -0.932763688833    -1.539622634514    -1.340985099751     1.007825032230
         H           -2.427518688833     1.843717365486    -0.289360099751     1.007825032230
         H           -1.268656688833     1.169953365486    -1.423849099751     1.007825032230
         H           -0.462285788833    -1.134321334514     1.630933100249     1.007825032230
         H            0.317965311167    -2.409197634514     0.744954900249     1.007825032230
         H           -0.765923688833     1.100985365486     1.594427900249     1.007825032230
         H           -0.335093688833     2.500413365486     0.606482900249     1.007825032230
         H            1.904566311167    -1.796938634514    -1.182560099751     1.007825032230
         H            2.632240311167    -1.767879634514     0.443454900249     1.007825032230
         H            2.823393311167    -0.366001634514    -0.644154099751     1.007825032230

  Basis Set: AUG-CC-PVTZ
    Blend: AUG-CC-PVTZ
  Basis Set: (AUG-CC-PVTZ AUX)
    Blend: AUG-CC-PVTZ-JKFIT
	 Reference Energy          =    -402.1121717148647576 [Eh]
	 Singles Energy            =      -0.0000000000000000 [Eh]
	 Same-Spin Energy          =      -0.4217416934001256 [Eh]
	 Opposite-Spin Energy      =      -1.4050550095608816 [Eh]
	 Correlation Energy        =      -1.8267967029610073 [Eh]
	 Total Energy              =    -403.9389684178257767 [Eh]

	 ================> DF-SCS-MP2 Energies <==================
	-----------------------------------------------------------
	 SCS Same-Spin Scale       =       0.3333333333333333 [-]
	 SCS Opposite-Spin Scale   =       1.2000000000000000 [-]
	 SCS Same-Spin Energy      =      -0.1405805644667085 [Eh]
	 SCS Opposite-Spin Energy  =      -1.6860660114730579 [Eh]
	 SCS Correlation Energy    =      -1.8266465759397665 [Eh]
	 SCS Total Energy          =    -403.9388182908045337 [Eh]
	-----------------------------------------------------------

  Dipole Moment: [D]
     X:    -2.5860      Y:    -3.1061      Z:     0.8057     Total:     4.1212

*** Psi4 exiting successfully. Buy a developer a beer!
