                               Psi4 1.3.2 release

  ==> Input File <==

--------------------------------------------------------------------------
#psi4
#
memory 32 gb

molecule  {
0 1
  O        1.7739800     1.6003060    -0.2911220
  N        0.9929941    -0.5180727     0.1621377
  C       -2.2286800    -0.2510300    -0.1765170
  C       -1.2730330    -1.4351160    -0.3152870
  C       -1.5989250     1.1242550    -0.3956020
  C       -0.0841310    -1.3759550     0.6456410
  C       -0.4584780     1.4603760     0.5782350
  C        0.8707430     0.8730760     0.1404640
  C        2.1918860    -1.1187650    -0.3259700
  H       -2.6699130    -0.2765890     0.8297550
  H       -3.0608600    -0.3791320    -0.8796750
  H       -1.8321650    -2.3606500    -0.1255340
  H       -0.8887130    -1.5005570    -1.3409750
  H       -2.3834680     1.8827830    -0.2893500
  H       -1.2246060     1.2090190    -1.4238390
  H       -0.4244360    -1.0900460     1.6492300
  H        0.3620160    -2.3701320     0.7449650
  H       -0.7218730     1.1400510     1.5944380
  H       -0.2910430     2.5394790     0.6064930
  H        1.9486170    -1.7578730    -1.1825500
  H        2.6762910    -1.7288140     0.4434650
  H        2.8674440    -0.3269360    -0.6441440
units angstrom
no_reorient  #important for SAPT in psi4, default
symmetry c1  #important for SAPT in psi4, default
}

set PROPERTIES_ORIGIN ["COM"]
properties('MP2/aug-cc-pvtz', properties = ['dipole'])
--------------------------------------------------------------------------

    Molecular point group: c1
  Charge       = 0
  Multiplicity = 1
  Basis Set: AUG-CC-PVTZ
    Blend: AUG-CC-PVTZ
  Basis Set: (AUG-CC-PVTZ AUX)
    Blend: AUG-CC-PVTZ-JKFIT

    Orbital Energies [Eh]
    ---------------------

    Doubly Occupied:

       1A    -20.509546     2A    -15.578217     3A    -11.343539
       4A    -11.271205     5A    -11.247199     6A    -11.235893
       7A    -11.235120     8A    -11.232206     9A    -11.231357
      10A     -1.362723    11A     -1.241517    12A     -1.098532
      13A     -1.037332    14A     -0.977534    15A     -0.908529
      16A     -0.877561    17A     -0.791957    18A     -0.727103
      19A     -0.691456    20A     -0.668864    21A     -0.633508
      22A     -0.608730    23A     -0.602458    24A     -0.594950
      25A     -0.583183    26A     -0.559066    27A     -0.548041
      28A     -0.522807    29A     -0.512051    30A     -0.506892
      31A     -0.479451    32A     -0.468377    33A     -0.465150
      34A     -0.409629    35A     -0.361838

  @DF-RHF Final Energy:  -402.10977625055727

   => Energetics <=

    Nuclear Repulsion Energy =            486.2225585230384013
    One-Electron Energy =               -1510.4176271235203330
    Two-Electron Energy =                 622.0852923499247709
    Total Energy =                       -402.1097762505572746
  Basis Set: (AUG-CC-PVTZ AUX)
    Blend: AUG-CC-PVTZ-RI
    Molecular point group: c1

    Geometry (in Angstrom), charge = 0, multiplicity = 1:

       Center              X                  Y                   Z               Mass
    ------------   -----------------  -----------------  -----------------  -----------------
         O            1.729720662616     1.564070155028    -0.286461588340    15.994914619570
         N            0.948734762616    -0.554308544972     0.166798111660    14.003074004430
         C           -2.272939337384    -0.287265844972    -0.171856588340    12.000000000000
         C           -1.317292337384    -1.471351844972    -0.310626588340    12.000000000000
         C           -1.643184337384     1.088019155028    -0.390941588340    12.000000000000
         C           -0.128390337384    -1.412190844972     0.650301411660    12.000000000000
         C           -0.502737337384     1.424140155028     0.582895411660    12.000000000000
         C            0.826483662616     0.836840155028     0.145124411660    12.000000000000
         C            2.147626662616    -1.155000844972    -0.321309588340    12.000000000000
         H           -2.714172337384    -0.312824844972     0.834415411660     1.007825032230
         H           -3.105119337384    -0.415367844972    -0.875014588340     1.007825032230
         H           -1.876424337384    -2.396885844972    -0.120873588340     1.007825032230
         H           -0.932972337384    -1.536792844972    -1.336314588340     1.007825032230
         H           -2.427727337384     1.846547155028    -0.284689588340     1.007825032230
         H           -1.268865337384     1.172783155028    -1.419178588340     1.007825032230
         H           -0.468695337384    -1.126281844972     1.653890411660     1.007825032230
         H            0.317756662616    -2.406367844972     0.749625411660     1.007825032230
         H           -0.766132337384     1.103815155028     1.599098411660     1.007825032230
         H           -0.335302337384     2.503243155028     0.611153411660     1.007825032230
         H            1.904357662616    -1.794108844972    -1.177889588340     1.007825032230
         H            2.632031662616    -1.765049844972     0.448125411660     1.007825032230
         H            2.823184662616    -0.363171844972    -0.639483588340     1.007825032230

  Basis Set: AUG-CC-PVTZ
    Blend: AUG-CC-PVTZ
  Basis Set: (AUG-CC-PVTZ AUX)
    Blend: AUG-CC-PVTZ-JKFIT
	 Reference Energy          =    -402.1097762505572746 [Eh]
	 Singles Energy            =      -0.0000000000000000 [Eh]
	 Same-Spin Energy          =      -0.4220613939648334 [Eh]
	 Opposite-Spin Energy      =      -1.4055805671357664 [Eh]
	 Correlation Energy        =      -1.8276419611005998 [Eh]
	 Total Energy              =    -403.9374182116578709 [Eh]

	 ================> DF-SCS-MP2 Energies <==================
	-----------------------------------------------------------
	 SCS Same-Spin Scale       =       0.3333333333333333 [-]
	 SCS Opposite-Spin Scale   =       1.2000000000000000 [-]
	 SCS Same-Spin Energy      =      -0.1406871313216111 [Eh]
	 SCS Opposite-Spin Energy  =      -1.6866966805629195 [Eh]
	 SCS Correlation Energy    =      -1.8273838118845307 [Eh]
	 SCS Total Energy          =    -403.9371600624418193 [Eh]
	-----------------------------------------------------------

  Dipole Moment: [D]
     X:    -2.5899      Y:    -2.9389      Z:     0.8495     Total:     4.0083

*** Psi4 exiting successfully. Buy a developer a beer!
