                               Psi4 1.3.2 release

  ==> Input File <==

--------------------------------------------------------------------------
#psi4
#
memory 32 gb

molecule  {
0 1
  O        1.7739800     1.6003060    -0.2911220
  N        0.9906540    -0.4920130     0.2058460
  C       -2.2286800    -0.2510300    -0.1765170
  C       -1.2730330    -1.4351160    -0.3152870
  C       -1.5989250     1.1242550    -0.3956020
  C       -0.0841310    -1.3759550     0.6456410
  C       -0.4584780     1.4603760     0.5782350
  C        0.8744311     0.8488168     0.1874131
  C        2.1918860    -1.1187650    -0.3259700
  H       -2.6699130    -0.2765890     0.8297550
  H       -3.0608600    -0.3791320    -0.8796750
  H       -1.8321650    -2.3606500    -0.1255340
  H       -0.8887130    -1.5005570    -1.3409750
  H       -2.3834680     1.8827830    -0.2893500
  H       -1.2246060     1.2090190    -1.4238390
  H       -0.4244360    -1.0900460     1.6492300
  H        0.3620160    -2.3701320     0.7449650
  H       -0.7218730     1.1400510     1.5944380
  H       -0.2910430     2.5394790     0.6064930
  H        1.9486170    -1.7578730    -1.1825500
  H        2.6762910    -1.7288140     0.4434650
  H        2.8674440    -0.3269360    -0.6441440
units angstrom
no_reorient  #important for SAPT in psi4, default
symmetry c1  #important for SAPT in psi4, default
}

set PROPERTIES_ORIGIN ["COM"]
properties('MP2/aug-cc-pvtz', properties = ['dipole'])
--------------------------------------------------------------------------

    Molecular point group: c1
  Charge       = 0
  Multiplicity = 1
  Basis Set: AUG-CC-PVTZ
    Blend: AUG-CC-PVTZ
  Basis Set: (AUG-CC-PVTZ AUX)
    Blend: AUG-CC-PVTZ-JKFIT

    Orbital Energies [Eh]
    ---------------------

    Doubly Occupied:

       1A    -20.498436     2A    -15.586507     3A    -11.339236
       4A    -11.274855     5A    -11.253372     6A    -11.235160
       7A    -11.235092     8A    -11.234001     9A    -11.232246
      10A     -1.347177    11A     -1.243637    12A     -1.098637
      13A     -1.039125    14A     -0.978815    15A     -0.920706
      16A     -0.879456    17A     -0.794109    18A     -0.728333
      19A     -0.689285    20A     -0.668911    21A     -0.635262
      22A     -0.609812    23A     -0.600289    24A     -0.595090
      25A     -0.580480    26A     -0.559066    27A     -0.542298
      28A     -0.527985    29A     -0.508293    30A     -0.507480
      31A     -0.480043    32A     -0.467310    33A     -0.463834
      34A     -0.402933    35A     -0.366218

  @DF-RHF Final Energy:  -402.10815625616885

   => Energetics <=

    Nuclear Repulsion Energy =            486.2700259583606908
    One-Electron Energy =               -1510.5093847564712632
    Two-Electron Energy =                 622.1312025419416614
    Total Energy =                       -402.1081562561688543
  Basis Set: (AUG-CC-PVTZ AUX)
    Blend: AUG-CC-PVTZ-RI
    Molecular point group: c1

    Geometry (in Angstrom), charge = 0, multiplicity = 1:

       Center              X                  Y                   Z               Mass
    ------------   -----------------  -----------------  -----------------  -----------------
         O            1.729630272117     1.563489465227    -0.295709758317    15.994914619570
         N            0.946304272117    -0.528829534773     0.201258241683    14.003074004430
         C           -2.273029727883    -0.287846534773    -0.181104758317    12.000000000000
         C           -1.317382727883    -1.471932534773    -0.319874758317    12.000000000000
         C           -1.643274727883     1.087438465227    -0.400189758317    12.000000000000
         C           -0.128480727883    -1.412771534773     0.641053241683    12.000000000000
         C           -0.502827727883     1.423559465227     0.573647241683    12.000000000000
         C            0.830081372117     0.812000265227     0.182825341683    12.000000000000
         C            2.147536272117    -1.155581534773    -0.330557758317    12.000000000000
         H           -2.714262727883    -0.313405534773     0.825167241683     1.007825032230
         H           -3.105209727883    -0.415948534773    -0.884262758317     1.007825032230
         H           -1.876514727883    -2.397466534773    -0.130121758317     1.007825032230
         H           -0.933062727883    -1.537373534773    -1.345562758317     1.007825032230
         H           -2.427817727883     1.845966465227    -0.293937758317     1.007825032230
         H           -1.268955727883     1.172202465227    -1.428426758317     1.007825032230
         H           -0.468785727883    -1.126862534773     1.644642241683     1.007825032230
         H            0.317666272117    -2.406948534773     0.740377241683     1.007825032230
         H           -0.766222727883     1.103234465227     1.589850241683     1.007825032230
         H           -0.335392727883     2.502662465227     0.601905241683     1.007825032230
         H            1.904267272117    -1.794689534773    -1.187137758317     1.007825032230
         H            2.631941272117    -1.765630534773     0.438877241683     1.007825032230
         H            2.823094272117    -0.363752534773    -0.648731758317     1.007825032230

  Basis Set: AUG-CC-PVTZ
    Blend: AUG-CC-PVTZ
  Basis Set: (AUG-CC-PVTZ AUX)
    Blend: AUG-CC-PVTZ-JKFIT
	 Reference Energy          =    -402.1081562561688543 [Eh]
	 Singles Energy            =      -0.0000000000000000 [Eh]
	 Same-Spin Energy          =      -0.4222855184297836 [Eh]
	 Opposite-Spin Energy      =      -1.4062802089503537 [Eh]
	 Correlation Energy        =      -1.8285657273801372 [Eh]
	 Total Energy              =    -403.9367219835489777 [Eh]

	 ================> DF-SCS-MP2 Energies <==================
	-----------------------------------------------------------
	 SCS Same-Spin Scale       =       0.3333333333333333 [-]
	 SCS Opposite-Spin Scale   =       1.2000000000000000 [-]
	 SCS Same-Spin Energy      =      -0.1407618394765945 [Eh]
	 SCS Opposite-Spin Energy  =      -1.6875362507404243 [Eh]
	 SCS Correlation Energy    =      -1.8282980902170189 [Eh]
	 SCS Total Energy          =    -403.9364543463858581 [Eh]
	-----------------------------------------------------------

  Dipole Moment: [D]
     X:    -2.6571      Y:    -3.3715      Z:     0.8449     Total:     4.3751

*** Psi4 exiting successfully. Buy a developer a beer!
