                               Psi4 1.3.2 release

  ==> Input File <==

--------------------------------------------------------------------------
#psi4
#
memory 32 gb

molecule  {
0 1
  O        1.7739800     1.6003060    -0.2911220
  N        0.9906540    -0.4920130     0.2058460
  C       -2.2085888    -0.2344472    -0.1822168
  C       -1.2730330    -1.4351160    -0.3152870
  C       -1.5989250     1.1242550    -0.3956020
  C       -0.0841310    -1.3759550     0.6456410
  C       -0.4584780     1.4603760     0.5782350
  C        0.8707430     0.8730760     0.1404640
  C        2.1918860    -1.1187650    -0.3259700
  H       -2.6699130    -0.2765890     0.8297550
  H       -3.0608600    -0.3791320    -0.8796750
  H       -1.8321650    -2.3606500    -0.1255340
  H       -0.8887130    -1.5005570    -1.3409750
  H       -2.3834680     1.8827830    -0.2893500
  H       -1.2246060     1.2090190    -1.4238390
  H       -0.4244360    -1.0900460     1.6492300
  H        0.3620160    -2.3701320     0.7449650
  H       -0.7218730     1.1400510     1.5944380
  H       -0.2910430     2.5394790     0.6064930
  H        1.9486170    -1.7578730    -1.1825500
  H        2.6762910    -1.7288140     0.4434650
  H        2.8674440    -0.3269360    -0.6441440
units angstrom
no_reorient  #important for SAPT in psi4, default
symmetry c1  #important for SAPT in psi4, default
}

set PROPERTIES_ORIGIN ["COM"]
properties('MP2/aug-cc-pvtz', properties = ['dipole'])
--------------------------------------------------------------------------

    Molecular point group: c1
  Charge       = 0
  Multiplicity = 1
  Basis Set: AUG-CC-PVTZ
    Blend: AUG-CC-PVTZ
  Basis Set: (AUG-CC-PVTZ AUX)
    Blend: AUG-CC-PVTZ-JKFIT

    Orbital Energies [Eh]
    ---------------------

    Doubly Occupied:

       1A    -20.505809     2A    -15.580690     3A    -11.340084
       4A    -11.272013     5A    -11.250628     6A    -11.234211
       7A    -11.233757     8A    -11.233494     9A    -11.232673
      10A     -1.361964    11A     -1.241338    12A     -1.100235
      13A     -1.038396    14A     -0.976380    15A     -0.913515
      16A     -0.879674    17A     -0.790491    18A     -0.725410
      19A     -0.691025    20A     -0.669495    21A     -0.632906
      22A     -0.608243    23A     -0.603432    24A     -0.594056
      25A     -0.583733    26A     -0.557900    27A     -0.545107
      28A     -0.527463    29A     -0.509945    30A     -0.508191
      31A     -0.478201    32A     -0.469886    33A     -0.463307
      34A     -0.407581    35A     -0.365107

  @DF-RHF Final Energy:  -402.11098002230585

   => Energetics <=

    Nuclear Repulsion Energy =            486.6898204168225561
    One-Electron Energy =               -1511.3489203253800497
    Two-Electron Energy =                 622.5481198862515839
    Total Energy =                       -402.1109800223058528
  Basis Set: (AUG-CC-PVTZ AUX)
    Blend: AUG-CC-PVTZ-RI
    Molecular point group: c1

    Geometry (in Angstrom), charge = 0, multiplicity = 1:

       Center              X                  Y                   Z               Mass
    ------------   -----------------  -----------------  -----------------  -----------------
         O            1.728081588853     1.559633406197    -0.290738961925    15.994914619570
         N            0.944755588853    -0.532685593803     0.206229038075    14.003074004430
         C           -2.254487211147    -0.275119793803    -0.181833761925    12.000000000000
         C           -1.318931411147    -1.475788593803    -0.314903961925    12.000000000000
         C           -1.644823411147     1.083582406197    -0.395218961925    12.000000000000
         C           -0.130029411147    -1.416627593803     0.646024038075    12.000000000000
         C           -0.504376411147     1.419703406197     0.578618038075    12.000000000000
         C            0.824844588853     0.832403406197     0.140847038075    12.000000000000
         C            2.145987588853    -1.159437593803    -0.325586961925    12.000000000000
         H           -2.715811411147    -0.317261593803     0.830138038075     1.007825032230
         H           -3.106758411147    -0.419804593803    -0.879291961925     1.007825032230
         H           -1.878063411147    -2.401322593803    -0.125150961925     1.007825032230
         H           -0.934611411147    -1.541229593803    -1.340591961925     1.007825032230
         H           -2.429366411147     1.842110406197    -0.288966961925     1.007825032230
         H           -1.270504411147     1.168346406197    -1.423455961925     1.007825032230
         H           -0.470334411147    -1.130718593803     1.649613038075     1.007825032230
         H            0.316117588853    -2.410804593803     0.745348038075     1.007825032230
         H           -0.767771411147     1.099378406197     1.594821038075     1.007825032230
         H           -0.336941411147     2.498806406197     0.606876038075     1.007825032230
         H            1.902718588853    -1.798545593803    -1.182166961925     1.007825032230
         H            2.630392588853    -1.769486593803     0.443848038075     1.007825032230
         H            2.821545588853    -0.367608593803    -0.643760961925     1.007825032230

  Basis Set: AUG-CC-PVTZ
    Blend: AUG-CC-PVTZ
  Basis Set: (AUG-CC-PVTZ AUX)
    Blend: AUG-CC-PVTZ-JKFIT
	 Reference Energy          =    -402.1109800223058528 [Eh]
	 Singles Energy            =      -0.0000000000000000 [Eh]
	 Same-Spin Energy          =      -0.4219861136965619 [Eh]
	 Opposite-Spin Energy      =      -1.4054515178191145 [Eh]
	 Correlation Energy        =      -1.8274376315156764 [Eh]
	 Total Energy              =    -403.9384176538215456 [Eh]

	 ================> DF-SCS-MP2 Energies <==================
	-----------------------------------------------------------
	 SCS Same-Spin Scale       =       0.3333333333333333 [-]
	 SCS Opposite-Spin Scale   =       1.2000000000000000 [-]
	 SCS Same-Spin Energy      =      -0.1406620378988540 [Eh]
	 SCS Opposite-Spin Energy  =      -1.6865418213829373 [Eh]
	 SCS Correlation Energy    =      -1.8272038592817912 [Eh]
	 SCS Total Energy          =    -403.9381838815876336 [Eh]
	-----------------------------------------------------------

  Dipole Moment: [D]
     X:    -2.5704      Y:    -3.0990      Z:     0.7872     Total:     4.1025

*** Psi4 exiting successfully. Buy a developer a beer!
