                               Psi4 1.3.2 release

  ==> Input File <==

--------------------------------------------------------------------------
#psi4
#
memory 32 gb

molecule  {
0 1
  O        1.7739800     1.6003060    -0.2911220
  N        0.9906540    -0.4920130     0.2058460
  C       -2.3255800    -0.2168892    -0.2991485
  C       -1.2730330    -1.4351160    -0.3152870
  C       -1.5989250     1.1242550    -0.3956020
  C       -0.0841310    -1.3759550     0.6456410
  C       -0.4584780     1.4603760     0.5782350
  C        0.8707430     0.8730760     0.1404640
  C        2.1918860    -1.1187650    -0.3259700
  H       -2.6699130    -0.2765890     0.8297550
  H       -3.0608600    -0.3791320    -0.8796750
  H       -1.8321650    -2.3606500    -0.1255340
  H       -0.8887130    -1.5005570    -1.3409750
  H       -2.3834680     1.8827830    -0.2893500
  H       -1.2246060     1.2090190    -1.4238390
  H       -0.4244360    -1.0900460     1.6492300
  H        0.3620160    -2.3701320     0.7449650
  H       -0.7218730     1.1400510     1.5944380
  H       -0.2910430     2.5394790     0.6064930
  H        1.9486170    -1.7578730    -1.1825500
  H        2.6762910    -1.7288140     0.4434650
  H        2.8674440    -0.3269360    -0.6441440
units angstrom
no_reorient  #important for SAPT in psi4, default
symmetry c1  #important for SAPT in psi4, default
}

set PROPERTIES_ORIGIN ["COM"]
properties('MP2/aug-cc-pvtz', properties = ['dipole'])
--------------------------------------------------------------------------

    Molecular point group: c1
  Charge       = 0
  Multiplicity = 1
  Basis Set: AUG-CC-PVTZ
    Blend: AUG-CC-PVTZ
  Basis Set: (AUG-CC-PVTZ AUX)
    Blend: AUG-CC-PVTZ-JKFIT

    Orbital Energies [Eh]
    ---------------------

    Doubly Occupied:

       1A    -20.506593     2A    -15.580953     3A    -11.340862
       4A    -11.274742     5A    -11.250811     6A    -11.237617
       7A    -11.236138     8A    -11.235573     9A    -11.232543
      10A     -1.362621    11A     -1.241309    12A     -1.092090
      13A     -1.034237    14A     -0.980335    15A     -0.917651
      16A     -0.875932    17A     -0.799761    18A     -0.726096
      19A     -0.692676    20A     -0.670750    21A     -0.630527
      22A     -0.621338    23A     -0.600091    24A     -0.589424
      25A     -0.581335    26A     -0.556754    27A     -0.550856
      28A     -0.526001    29A     -0.522105    30A     -0.507993
      31A     -0.486121    32A     -0.459104    33A     -0.441654
      34A     -0.408948    35A     -0.366032

  @DF-RHF Final Energy:  -402.08073972662555

   => Energetics <=

    Nuclear Repulsion Energy =            484.5318578199834292
    One-Electron Energy =               -1506.9500524873067206
    Two-Electron Energy =                 620.3374549406977394
    Total Energy =                       -402.0807397266255521
  Basis Set: (AUG-CC-PVTZ AUX)
    Blend: AUG-CC-PVTZ-RI
    Molecular point group: c1

    Geometry (in Angstrom), charge = 0, multiplicity = 1:

       Center              X                  Y                   Z               Mass
    ------------   -----------------  -----------------  -----------------  -----------------
         O            1.739127203004     1.557975684135    -0.279698965411    15.994914619570
         N            0.955801203004    -0.534343315865     0.217269034589    14.003074004430
         C           -2.360432796996    -0.259219515865    -0.287725465411    12.000000000000
         C           -1.307885796996    -1.477446315865    -0.303863965411    12.000000000000
         C           -1.633777796996     1.081924684135    -0.384178965411    12.000000000000
         C           -0.118983796996    -1.418285315865     0.657064034589    12.000000000000
         C           -0.493330796996     1.418045684135     0.589658034589    12.000000000000
         C            0.835890203004     0.830745684135     0.151887034589    12.000000000000
         C            2.157033203004    -1.161095315865    -0.314546965411    12.000000000000
         H           -2.704765796996    -0.318919315865     0.841178034589     1.007825032230
         H           -3.095712796996    -0.421462315865    -0.868251965411     1.007825032230
         H           -1.867017796996    -2.402980315865    -0.114110965411     1.007825032230
         H           -0.923565796996    -1.542887315865    -1.329551965411     1.007825032230
         H           -2.418320796996     1.840452684135    -0.277926965411     1.007825032230
         H           -1.259458796996     1.166688684135    -1.412415965411     1.007825032230
         H           -0.459288796996    -1.132376315865     1.660653034589     1.007825032230
         H            0.327163203004    -2.412462315865     0.756388034589     1.007825032230
         H           -0.756725796996     1.097720684135     1.605861034589     1.007825032230
         H           -0.325895796996     2.497148684135     0.617916034589     1.007825032230
         H            1.913764203004    -1.800203315865    -1.171126965411     1.007825032230
         H            2.641438203004    -1.771144315865     0.454888034589     1.007825032230
         H            2.832591203004    -0.369266315865    -0.632720965411     1.007825032230

  Basis Set: AUG-CC-PVTZ
    Blend: AUG-CC-PVTZ
  Basis Set: (AUG-CC-PVTZ AUX)
    Blend: AUG-CC-PVTZ-JKFIT
	 Reference Energy          =    -402.0807397266255521 [Eh]
	 Singles Energy            =      -0.0000000000000000 [Eh]
	 Same-Spin Energy          =      -0.4217729943412144 [Eh]
	 Opposite-Spin Energy      =      -1.4062623864770847 [Eh]
	 Correlation Energy        =      -1.8280353808182990 [Eh]
	 Total Energy              =    -403.9087751074438302 [Eh]

	 ================> DF-SCS-MP2 Energies <==================
	-----------------------------------------------------------
	 SCS Same-Spin Scale       =       0.3333333333333333 [-]
	 SCS Opposite-Spin Scale   =       1.2000000000000000 [-]
	 SCS Same-Spin Energy      =      -0.1405909981137381 [Eh]
	 SCS Opposite-Spin Energy  =      -1.6875148637725015 [Eh]
	 SCS Correlation Energy    =      -1.8281058618862396 [Eh]
	 SCS Total Energy          =    -403.9088455885117810 [Eh]
	-----------------------------------------------------------

  Dipole Moment: [D]
     X:    -2.5347      Y:    -3.0737      Z:     0.7473     Total:     4.0534

*** Psi4 exiting successfully. Buy a developer a beer!
