                               Psi4 1.3.2 release

  ==> Input File <==

--------------------------------------------------------------------------
#psi4
#
memory 32 gb

molecule  {
0 1
  O        1.7739800     1.6003060    -0.2911220
  N        0.9906540    -0.4920130     0.2058460
  C       -2.2286800    -0.2510300    -0.1765170
  C       -1.3356944    -1.4068830    -0.2335649
  C       -1.5989250     1.1242550    -0.3956020
  C       -0.0841310    -1.3759550     0.6456410
  C       -0.4584780     1.4603760     0.5782350
  C        0.8707430     0.8730760     0.1404640
  C        2.1918860    -1.1187650    -0.3259700
  H       -2.6699130    -0.2765890     0.8297550
  H       -3.0608600    -0.3791320    -0.8796750
  H       -1.8321650    -2.3606500    -0.1255340
  H       -0.8887130    -1.5005570    -1.3409750
  H       -2.3834680     1.8827830    -0.2893500
  H       -1.2246060     1.2090190    -1.4238390
  H       -0.4244360    -1.0900460     1.6492300
  H        0.3620160    -2.3701320     0.7449650
  H       -0.7218730     1.1400510     1.5944380
  H       -0.2910430     2.5394790     0.6064930
  H        1.9486170    -1.7578730    -1.1825500
  H        2.6762910    -1.7288140     0.4434650
  H        2.8674440    -0.3269360    -0.6441440
units angstrom
no_reorient  #important for SAPT in psi4, default
symmetry c1  #important for SAPT in psi4, default
}

set PROPERTIES_ORIGIN ["COM"]
properties('MP2/aug-cc-pvtz', properties = ['dipole'])
--------------------------------------------------------------------------

    Molecular point group: c1
  Charge       = 0
  Multiplicity = 1
  Basis Set: AUG-CC-PVTZ
    Blend: AUG-CC-PVTZ
  Basis Set: (AUG-CC-PVTZ AUX)
    Blend: AUG-CC-PVTZ-JKFIT

    Orbital Energies [Eh]
    ---------------------

    Doubly Occupied:

       1A    -20.506325     2A    -15.581655     3A    -11.340571
       4A    -11.273575     5A    -11.250756     6A    -11.238505
       7A    -11.236287     8A    -11.234392     9A    -11.229768
      10A     -1.362367    11A     -1.241522    12A     -1.105409
      13A     -1.040659    14A     -0.977788    15A     -0.916846
      16A     -0.879461    17A     -0.788706    18A     -0.725144
      19A     -0.692099    20A     -0.672760    21A     -0.632757
      22A     -0.613548    23A     -0.600827    24A     -0.596993
      25A     -0.584962    26A     -0.557660    27A     -0.547443
      28A     -0.528256    29A     -0.514160    30A     -0.502179
      31A     -0.479353    32A     -0.468533    33A     -0.455291
      34A     -0.408084    35A     -0.365204

  @DF-RHF Final Energy:  -402.09995685399031

   => Energetics <=

    Nuclear Repulsion Energy =            486.6727647924287794
    One-Electron Energy =               -1511.2457548224010679
    Two-Electron Energy =                 622.4730331759819819
    Total Energy =                       -402.0999568539903066
  Basis Set: (AUG-CC-PVTZ AUX)
    Blend: AUG-CC-PVTZ-RI
    Molecular point group: c1

    Geometry (in Angstrom), charge = 0, multiplicity = 1:

       Center              X                  Y                   Z               Mass
    ------------   -----------------  -----------------  -----------------  -----------------
         O            1.735894597776     1.558533463518    -0.298992818418    15.994914619570
         N            0.952568597776    -0.533785536482     0.197975181582    14.003074004430
         C           -2.266765402224    -0.292802536482    -0.184387818418    12.000000000000
         C           -1.373779802224    -1.448655536482    -0.241435718418    12.000000000000
         C           -1.637010402224     1.082482463518    -0.403472818418    12.000000000000
         C           -0.122216402224    -1.417727536482     0.637770181582    12.000000000000
         C           -0.496563402224     1.418603463518     0.570364181582    12.000000000000
         C            0.832657597776     0.831303463518     0.132593181582    12.000000000000
         C            2.153800597776    -1.160537536482    -0.333840818418    12.000000000000
         H           -2.707998402224    -0.318361536482     0.821884181582     1.007825032230
         H           -3.098945402224    -0.420904536482    -0.887545818418     1.007825032230
         H           -1.870250402224    -2.402422536482    -0.133404818418     1.007825032230
         H           -0.926798402224    -1.542329536482    -1.348845818418     1.007825032230
         H           -2.421553402224     1.841010463518    -0.297220818418     1.007825032230
         H           -1.262691402224     1.167246463518    -1.431709818418     1.007825032230
         H           -0.462521402224    -1.131818536482     1.641359181582     1.007825032230
         H            0.323930597776    -2.411904536482     0.737094181582     1.007825032230
         H           -0.759958402224     1.098278463518     1.586567181582     1.007825032230
         H           -0.329128402224     2.497706463518     0.598622181582     1.007825032230
         H            1.910531597776    -1.799645536482    -1.190420818418     1.007825032230
         H            2.638205597776    -1.770586536482     0.435594181582     1.007825032230
         H            2.829358597776    -0.368708536482    -0.652014818418     1.007825032230

  Basis Set: AUG-CC-PVTZ
    Blend: AUG-CC-PVTZ
  Basis Set: (AUG-CC-PVTZ AUX)
    Blend: AUG-CC-PVTZ-JKFIT
	 Reference Energy          =    -402.0999568539903066 [Eh]
	 Singles Energy            =      -0.0000000000000000 [Eh]
	 Same-Spin Energy          =      -0.4225360950786208 [Eh]
	 Opposite-Spin Energy      =      -1.4062746504144532 [Eh]
	 Correlation Energy        =      -1.8288107454930740 [Eh]
	 Total Energy              =    -403.9287675994833648 [Eh]

	 ================> DF-SCS-MP2 Energies <==================
	-----------------------------------------------------------
	 SCS Same-Spin Scale       =       0.3333333333333333 [-]
	 SCS Opposite-Spin Scale   =       1.2000000000000000 [-]
	 SCS Same-Spin Energy      =      -0.1408453650262069 [Eh]
	 SCS Opposite-Spin Energy  =      -1.6875295804973438 [Eh]
	 SCS Correlation Energy    =      -1.8283749455235507 [Eh]
	 SCS Total Energy          =    -403.9283317995138418 [Eh]
	-----------------------------------------------------------

  Dipole Moment: [D]
     X:    -2.6094      Y:    -3.0701      Z:     0.8353     Total:     4.1149

*** Psi4 exiting successfully. Buy a developer a beer!
