                               Psi4 1.3.2 release

  ==> Input File <==

--------------------------------------------------------------------------
#psi4
#
memory 32 gb

molecule  {
0 1
  O        1.7739800     1.6003060    -0.2911220
  N        0.9906540    -0.4920130     0.2058460
  C       -2.2286800    -0.2510300    -0.1765170
  C       -1.2730330    -1.4351160    -0.3152870
  C       -1.5989250     1.1242550    -0.3956020
  C       -0.0841310    -1.3759550     0.6456410
  C       -0.4584780     1.4603760     0.5782350
  C        0.8707430     0.8730760     0.1404640
  C        2.1918860    -1.1187650    -0.3259700
  H       -2.6699130    -0.2765890     0.8297550
  H       -3.0608600    -0.3791320    -0.8796750
  H       -1.8321650    -2.3606500    -0.1255340
  H       -0.8887130    -1.5005570    -1.3409750
  H       -2.3119138     1.8136015    -0.2990407
  H       -1.2246060     1.2090190    -1.4238390
  H       -0.4244360    -1.0900460     1.6492300
  H        0.3620160    -2.3701320     0.7449650
  H       -0.7218730     1.1400510     1.5944380
  H       -0.2910430     2.5394790     0.6064930
  H        1.9486170    -1.7578730    -1.1825500
  H        2.6762910    -1.7288140     0.4434650
  H        2.8674440    -0.3269360    -0.6441440
units angstrom
no_reorient  #important for SAPT in psi4, default
symmetry c1  #important for SAPT in psi4, default
}

set PROPERTIES_ORIGIN ["COM"]
properties('MP2/aug-cc-pvtz', properties = ['dipole'])
--------------------------------------------------------------------------

    Molecular point group: c1
  Charge       = 0
  Multiplicity = 1
  Basis Set: AUG-CC-PVTZ
    Blend: AUG-CC-PVTZ
  Basis Set: (AUG-CC-PVTZ AUX)
    Blend: AUG-CC-PVTZ-JKFIT

    Orbital Energies [Eh]
    ---------------------

    Doubly Occupied:

       1A    -20.505148     2A    -15.580044     3A    -11.339377
       4A    -11.271766     5A    -11.250214     6A    -11.232887
       7A    -11.232771     8A    -11.230862     9A    -11.222001
      10A     -1.361324    11A     -1.240684    12A     -1.099782
      13A     -1.038964    14A     -0.976395    15A     -0.913834
      16A     -0.883179    17A     -0.796112    18A     -0.724960
      19A     -0.691231    20A     -0.670253    21A     -0.632829
      22A     -0.612283    23A     -0.601472    24A     -0.599083
      25A     -0.583939    26A     -0.557899    27A     -0.544790
      28A     -0.526752    29A     -0.510374    30A     -0.508664
      31A     -0.479594    32A     -0.469932    33A     -0.466302
      34A     -0.407381    35A     -0.364663

  @DF-RHF Final Energy:  -402.10643760998289

   => Energetics <=

    Nuclear Repulsion Energy =            486.8563824640554571
    One-Electron Energy =               -1511.6701565608298097
    Two-Electron Energy =                 622.7073364867914052
    Total Energy =                       -402.1064376099828905
  Basis Set: (AUG-CC-PVTZ AUX)
    Blend: AUG-CC-PVTZ-RI
    Molecular point group: c1

    Geometry (in Angstrom), charge = 0, multiplicity = 1:

       Center              X                  Y                   Z               Mass
    ------------   -----------------  -----------------  -----------------  -----------------
         O            1.729411098422     1.561747623758    -0.291200261704    15.994914619570
         N            0.946085098422    -0.530571376242     0.205767738296    14.003074004430
         C           -2.273248901578    -0.289588376242    -0.176595261704    12.000000000000
         C           -1.317601901578    -1.473674376242    -0.315365261704    12.000000000000
         C           -1.643493901578     1.085696623758    -0.395680261704    12.000000000000
         C           -0.128699901578    -1.414513376242     0.645562738296    12.000000000000
         C           -0.503046901578     1.421817623758     0.578156738296    12.000000000000
         C            0.826174098422     0.834517623758     0.140385738296    12.000000000000
         C            2.147317098422    -1.157323376242    -0.326048261704    12.000000000000
         H           -2.714481901578    -0.315147376242     0.829676738296     1.007825032230
         H           -3.105428901578    -0.417690376242    -0.879753261704     1.007825032230
         H           -1.876733901578    -2.399208376242    -0.125612261704     1.007825032230
         H           -0.933281901578    -1.539115376242    -1.341053261704     1.007825032230
         H           -2.356482701578     1.775043123758    -0.299118961704     1.007825032230
         H           -1.269174901578     1.170460623758    -1.423917261704     1.007825032230
         H           -0.469004901578    -1.128604376242     1.649151738296     1.007825032230
         H            0.317447098422    -2.408690376242     0.744886738296     1.007825032230
         H           -0.766441901578     1.101492623758     1.594359738296     1.007825032230
         H           -0.335611901578     2.500920623758     0.606414738296     1.007825032230
         H            1.904048098422    -1.796431376242    -1.182628261704     1.007825032230
         H            2.631722098422    -1.767372376242     0.443386738296     1.007825032230
         H            2.822875098422    -0.365494376242    -0.644222261704     1.007825032230

  Basis Set: AUG-CC-PVTZ
    Blend: AUG-CC-PVTZ
  Basis Set: (AUG-CC-PVTZ AUX)
    Blend: AUG-CC-PVTZ-JKFIT
	 Reference Energy          =    -402.1064376099828905 [Eh]
	 Singles Energy            =      -0.0000000000000000 [Eh]
	 Same-Spin Energy          =      -0.4217482439074214 [Eh]
	 Opposite-Spin Energy      =      -1.4046072069868685 [Eh]
	 Correlation Energy        =      -1.8263554508942899 [Eh]
	 Total Energy              =    -403.9327930608772022 [Eh]

	 ================> DF-SCS-MP2 Energies <==================
	-----------------------------------------------------------
	 SCS Same-Spin Scale       =       0.3333333333333333 [-]
	 SCS Opposite-Spin Scale   =       1.2000000000000000 [-]
	 SCS Same-Spin Energy      =      -0.1405827479691404 [Eh]
	 SCS Opposite-Spin Energy  =      -1.6855286483842422 [Eh]
	 SCS Correlation Energy    =      -1.8261113963533826 [Eh]
	 SCS Total Energy          =    -403.9325490063362736 [Eh]
	-----------------------------------------------------------

  Dipole Moment: [D]
     X:    -2.6302      Y:    -3.0554      Z:     0.7877     Total:     4.1078

*** Psi4 exiting successfully. Buy a developer a beer!
