                               Psi4 1.3.2 release

  ==> Input File <==

--------------------------------------------------------------------------
#psi4
#
memory 32 gb

molecule  {
0 1
  O        1.7739800     1.6003060    -0.2911220
  N        0.9906540    -0.4920130     0.2058460
  C       -2.2286800    -0.2510300    -0.1765170
  C       -1.2730330    -1.4351160    -0.3152870
  C       -1.5989250     1.1242550    -0.3956020
  C       -0.1114603    -1.3349051     0.6584087
  C       -0.4584780     1.4603760     0.5782350
  C        0.8707430     0.8730760     0.1404640
  C        2.1918860    -1.1187650    -0.3259700
  H       -2.6699130    -0.2765890     0.8297550
  H       -3.0608600    -0.3791320    -0.8796750
  H       -1.8321650    -2.3606500    -0.1255340
  H       -0.8887130    -1.5005570    -1.3409750
  H       -2.3834680     1.8827830    -0.2893500
  H       -1.2246060     1.2090190    -1.4238390
  H       -0.4244360    -1.0900460     1.6492300
  H        0.3620160    -2.3701320     0.7449650
  H       -0.7218730     1.1400510     1.5944380
  H       -0.2910430     2.5394790     0.6064930
  H        1.9486170    -1.7578730    -1.1825500
  H        2.6762910    -1.7288140     0.4434650
  H        2.8674440    -0.3269360    -0.6441440
units angstrom
no_reorient  #important for SAPT in psi4, default
symmetry c1  #important for SAPT in psi4, default
}

set PROPERTIES_ORIGIN ["COM"]
properties('MP2/aug-cc-pvtz', properties = ['dipole'])
--------------------------------------------------------------------------

    Molecular point group: c1
  Charge       = 0
  Multiplicity = 1
  Basis Set: AUG-CC-PVTZ
    Blend: AUG-CC-PVTZ
  Basis Set: (AUG-CC-PVTZ AUX)
    Blend: AUG-CC-PVTZ-JKFIT

    Orbital Energies [Eh]
    ---------------------

    Doubly Occupied:

       1A    -20.505309     2A    -15.580845     3A    -11.338922
       4A    -11.272823     5A    -11.251338     6A    -11.234784
       7A    -11.233676     8A    -11.233126     9A    -11.230802
      10A     -1.361639    11A     -1.241307    12A     -1.098746
      13A     -1.038524    14A     -0.976785    15A     -0.911901
      16A     -0.877719    17A     -0.793258    18A     -0.727761
      19A     -0.691263    20A     -0.666858    21A     -0.634221
      22A     -0.608422    23A     -0.602114    24A     -0.593873
      25A     -0.577202    26A     -0.560833    27A     -0.544263
      28A     -0.528550    29A     -0.513627    30A     -0.507117
      31A     -0.479936    32A     -0.468309    33A     -0.460350
      34A     -0.406689    35A     -0.366396

  @DF-RHF Final Energy:  -402.10879403694611

   => Energetics <=

    Nuclear Repulsion Energy =            486.7054102810807876
    One-Electron Energy =               -1511.3898334182031249
    Two-Electron Energy =                 622.5756291001763429
    Total Energy =                       -402.1087940369460512
  Basis Set: (AUG-CC-PVTZ AUX)
    Blend: AUG-CC-PVTZ-RI
    Molecular point group: c1

    Geometry (in Angstrom), charge = 0, multiplicity = 1:

       Center              X                  Y                   Z               Mass
    ------------   -----------------  -----------------  -----------------  -----------------
         O            1.732558750775     1.557323367955    -0.292482553574    15.994914619570
         N            0.949232750775    -0.534995632045     0.204485446426    14.003074004430
         C           -2.270101249225    -0.294012632045    -0.177877553574    12.000000000000
         C           -1.314454249225    -1.478098632045    -0.316647553574    12.000000000000
         C           -1.640346249225     1.081272367955    -0.396962553574    12.000000000000
         C           -0.152881549225    -1.377887732045     0.657048146426    12.000000000000
         C           -0.499899249225     1.417393367955     0.576874446426    12.000000000000
         C            0.829321750775     0.830093367955     0.139103446426    12.000000000000
         C            2.150464750775    -1.161747632045    -0.327330553574    12.000000000000
         H           -2.711334249225    -0.319571632045     0.828394446426     1.007825032230
         H           -3.102281249225    -0.422114632045    -0.881035553574     1.007825032230
         H           -1.873586249225    -2.403632632045    -0.126894553574     1.007825032230
         H           -0.930134249225    -1.543539632045    -1.342335553574     1.007825032230
         H           -2.424889249225     1.839800367955    -0.290710553574     1.007825032230
         H           -1.266027249225     1.166036367955    -1.425199553574     1.007825032230
         H           -0.465857249225    -1.133028632045     1.647869446426     1.007825032230
         H            0.320594750775    -2.413114632045     0.743604446426     1.007825032230
         H           -0.763294249225     1.097068367955     1.593077446426     1.007825032230
         H           -0.332464249225     2.496496367955     0.605132446426     1.007825032230
         H            1.907195750775    -1.800855632045    -1.183910553574     1.007825032230
         H            2.634869750775    -1.771796632045     0.442104446426     1.007825032230
         H            2.826022750775    -0.369918632045    -0.645504553574     1.007825032230

  Basis Set: AUG-CC-PVTZ
    Blend: AUG-CC-PVTZ
  Basis Set: (AUG-CC-PVTZ AUX)
    Blend: AUG-CC-PVTZ-JKFIT
	 Reference Energy          =    -402.1087940369461080 [Eh]
	 Singles Energy            =      -0.0000000000000000 [Eh]
	 Same-Spin Energy          =      -0.4219901794006552 [Eh]
	 Opposite-Spin Energy      =      -1.4055804464640267 [Eh]
	 Correlation Energy        =      -1.8275706258646820 [Eh]
	 Total Energy              =    -403.9363646628107745 [Eh]

	 ================> DF-SCS-MP2 Energies <==================
	-----------------------------------------------------------
	 SCS Same-Spin Scale       =       0.3333333333333333 [-]
	 SCS Opposite-Spin Scale   =       1.2000000000000000 [-]
	 SCS Same-Spin Energy      =      -0.1406633931335517 [Eh]
	 SCS Opposite-Spin Energy  =      -1.6866965357568320 [Eh]
	 SCS Correlation Energy    =      -1.8273599288903837 [Eh]
	 SCS Total Energy          =    -403.9361539658364677 [Eh]
	-----------------------------------------------------------

  Dipole Moment: [D]
     X:    -2.5881      Y:    -3.0773      Z:     0.7975     Total:     4.0993

*** Psi4 exiting successfully. Buy a developer a beer!
