                               Psi4 1.3.2 release

  ==> Input File <==

--------------------------------------------------------------------------
#psi4
#
memory 32 gb

molecule  {
0 1
  O        1.7739800     1.6003060    -0.2911220
  N        0.9906540    -0.4920130     0.2058460
  C       -2.2286800    -0.2510300    -0.1765170
  C       -1.2730330    -1.4351160    -0.3152870
  C       -1.5989250     1.1242550    -0.3956020
  C       -0.0841310    -1.3759550     0.6456410
  C       -0.4584780     1.4603760     0.5782350
  C        0.9437423     0.9318505     0.1055834
  C        2.1918860    -1.1187650    -0.3259700
  H       -2.6699130    -0.2765890     0.8297550
  H       -3.0608600    -0.3791320    -0.8796750
  H       -1.8321650    -2.3606500    -0.1255340
  H       -0.8887130    -1.5005570    -1.3409750
  H       -2.3834680     1.8827830    -0.2893500
  H       -1.2246060     1.2090190    -1.4238390
  H       -0.4244360    -1.0900460     1.6492300
  H        0.3620160    -2.3701320     0.7449650
  H       -0.7218730     1.1400510     1.5944380
  H       -0.2910430     2.5394790     0.6064930
  H        1.9486170    -1.7578730    -1.1825500
  H        2.6762910    -1.7288140     0.4434650
  H        2.8674440    -0.3269360    -0.6441440
units angstrom
no_reorient  #important for SAPT in psi4, default
symmetry c1  #important for SAPT in psi4, default
}

set PROPERTIES_ORIGIN ["COM"]
properties('MP2/aug-cc-pvtz', properties = ['dipole'])
--------------------------------------------------------------------------

    Molecular point group: c1
  Charge       = 0
  Multiplicity = 1
  Basis Set: AUG-CC-PVTZ
    Blend: AUG-CC-PVTZ
  Basis Set: (AUG-CC-PVTZ AUX)
    Blend: AUG-CC-PVTZ-JKFIT

    Orbital Energies [Eh]
    ---------------------

    Doubly Occupied:

       1A    -20.527340     2A    -15.564949     3A    -11.338180
       4A    -11.266713     5A    -11.243902     6A    -11.231361
       7A    -11.229854     8A    -11.228219     9A    -11.227557
      10A     -1.434633    11A     -1.229831    12A     -1.090935
      13A     -1.029171    14A     -0.965535    15A     -0.897818
      16A     -0.871112    17A     -0.786913    18A     -0.720538
      19A     -0.696183    20A     -0.669003    21A     -0.636112
      22A     -0.616167    23A     -0.603159    24A     -0.591236
      25A     -0.580338    26A     -0.561290    27A     -0.554153
      28A     -0.533228    29A     -0.519155    30A     -0.507646
      31A     -0.475448    32A     -0.470775    33A     -0.460991
      34A     -0.404142    35A     -0.360324

  @DF-RHF Final Energy:  -402.10068406750236

   => Energetics <=

    Nuclear Repulsion Energy =            486.1042037115850576
    One-Electron Energy =               -1510.1619485501114468
    Two-Electron Energy =                 621.9570607710239756
    Total Energy =                       -402.1006840675023568
  Basis Set: (AUG-CC-PVTZ AUX)
    Blend: AUG-CC-PVTZ-RI
    Molecular point group: c1

    Geometry (in Angstrom), charge = 0, multiplicity = 1:

       Center              X                  Y                   Z               Mass
    ------------   -----------------  -----------------  -----------------  -----------------
         O            1.723086320337     1.555649916511    -0.287983884130    15.994914619570
         N            0.939760320337    -0.536669083489     0.208984115870    14.003074004430
         C           -2.279573679663    -0.295686083489    -0.173378884130    12.000000000000
         C           -1.323926679663    -1.479772083489    -0.312148884130    12.000000000000
         C           -1.649818679663     1.079598916511    -0.392463884130    12.000000000000
         C           -0.135024679663    -1.420611083489     0.648779115870    12.000000000000
         C           -0.509371679663     1.415719916511     0.581373115870    12.000000000000
         C            0.892848620337     0.887194416511     0.108721515870    12.000000000000
         C            2.140992320337    -1.163421083489    -0.322831884130    12.000000000000
         H           -2.720806679663    -0.321245083489     0.832893115870     1.007825032230
         H           -3.111753679663    -0.423788083489    -0.876536884130     1.007825032230
         H           -1.883058679663    -2.405306083489    -0.122395884130     1.007825032230
         H           -0.939606679663    -1.545213083489    -1.337836884130     1.007825032230
         H           -2.434361679663     1.838126916511    -0.286211884130     1.007825032230
         H           -1.275499679663     1.164362916511    -1.420700884130     1.007825032230
         H           -0.475329679663    -1.134702083489     1.652368115870     1.007825032230
         H            0.311122320337    -2.414788083489     0.748103115870     1.007825032230
         H           -0.772766679663     1.095394916511     1.597576115870     1.007825032230
         H           -0.341936679663     2.494822916511     0.609631115870     1.007825032230
         H            1.897723320337    -1.802529083489    -1.179411884130     1.007825032230
         H            2.625397320337    -1.773470083489     0.446603115870     1.007825032230
         H            2.816550320337    -0.371592083489    -0.641005884130     1.007825032230

  Basis Set: AUG-CC-PVTZ
    Blend: AUG-CC-PVTZ
  Basis Set: (AUG-CC-PVTZ AUX)
    Blend: AUG-CC-PVTZ-JKFIT
	 Reference Energy          =    -402.1006840675023568 [Eh]
	 Singles Energy            =      -0.0000000000000000 [Eh]
	 Same-Spin Energy          =      -0.4198512544661050 [Eh]
	 Opposite-Spin Energy      =      -1.4015040455852170 [Eh]
	 Correlation Energy        =      -1.8213553000513221 [Eh]
	 Total Energy              =    -403.9220393675536798 [Eh]

	 ================> DF-SCS-MP2 Energies <==================
	-----------------------------------------------------------
	 SCS Same-Spin Scale       =       0.3333333333333333 [-]
	 SCS Opposite-Spin Scale   =       1.2000000000000000 [-]
	 SCS Same-Spin Energy      =      -0.1399504181553683 [Eh]
	 SCS Opposite-Spin Energy  =      -1.6818048547022604 [Eh]
	 SCS Correlation Energy    =      -1.8217552728576287 [Eh]
	 SCS Total Energy          =    -403.9224393403599720 [Eh]
	-----------------------------------------------------------

  Dipole Moment: [D]
     X:    -2.1218      Y:    -2.4050      Z:     0.6130     Total:     3.2652

*** Psi4 exiting successfully. Buy a developer a beer!
