                               Psi4 1.3.2 release

  ==> Input File <==

--------------------------------------------------------------------------
#psi4
#
memory 32 gb

molecule  {
0 1
  O        1.7739800     1.6003060    -0.2911220
  N        0.9906540    -0.4920130     0.2058460
  C       -2.2286800    -0.2510300    -0.1765170
  C       -1.2104879    -1.5126120    -0.3243692
  C       -1.5989250     1.1242550    -0.3956020
  C       -0.0841310    -1.3759550     0.6456410
  C       -0.4584780     1.4603760     0.5782350
  C        0.8707430     0.8730760     0.1404640
  C        2.1918860    -1.1187650    -0.3259700
  H       -2.6699130    -0.2765890     0.8297550
  H       -3.0608600    -0.3791320    -0.8796750
  H       -1.8321650    -2.3606500    -0.1255340
  H       -0.8887130    -1.5005570    -1.3409750
  H       -2.3834680     1.8827830    -0.2893500
  H       -1.2246060     1.2090190    -1.4238390
  H       -0.4244360    -1.0900460     1.6492300
  H        0.3620160    -2.3701320     0.7449650
  H       -0.7218730     1.1400510     1.5944380
  H       -0.2910430     2.5394790     0.6064930
  H        1.9486170    -1.7578730    -1.1825500
  H        2.6762910    -1.7288140     0.4434650
  H        2.8674440    -0.3269360    -0.6441440
units angstrom
no_reorient  #important for SAPT in psi4, default
symmetry c1  #important for SAPT in psi4, default
}

set PROPERTIES_ORIGIN ["COM"]
properties('MP2/aug-cc-pvtz', properties = ['dipole'])
--------------------------------------------------------------------------

    Molecular point group: c1
  Charge       = 0
  Multiplicity = 1
  Basis Set: AUG-CC-PVTZ
    Blend: AUG-CC-PVTZ
  Basis Set: (AUG-CC-PVTZ AUX)
    Blend: AUG-CC-PVTZ-JKFIT

    Orbital Energies [Eh]
    ---------------------

    Doubly Occupied:

       1A    -20.505806     2A    -15.581200     3A    -11.340052
       4A    -11.270850     5A    -11.250727     6A    -11.234573
       7A    -11.233965     8A    -11.233031     9A    -11.231416
      10A     -1.361999    11A     -1.242083    12A     -1.090456
      13A     -1.040688    14A     -0.974265    15A     -0.912360
      16A     -0.877623    17A     -0.794383    18A     -0.726872
      19A     -0.690618    20A     -0.668264    21A     -0.635556
      22A     -0.605141    23A     -0.600894    24A     -0.592164
      25A     -0.584471    26A     -0.563376    27A     -0.545128
      28A     -0.530992    29A     -0.515132    30A     -0.507480
      31A     -0.482522    32A     -0.470476    33A     -0.441505
      34A     -0.407511    35A     -0.367789

  @DF-RHF Final Energy:  -402.10428308227836

   => Energetics <=

    Nuclear Repulsion Energy =            485.6803963391481602
    One-Electron Energy =               -1509.3466222843035212
    Two-Electron Energy =                 621.5619428628770038
    Total Energy =                       -402.1042830822783571
  Basis Set: (AUG-CC-PVTZ AUX)
    Blend: AUG-CC-PVTZ-RI
    Molecular point group: c1

    Geometry (in Angstrom), charge = 0, multiplicity = 1:

       Center              X                  Y                   Z               Mass
    ------------   -----------------  -----------------  -----------------  -----------------
         O            1.724073343800     1.568515767645    -0.290419615810    15.994914619570
         N            0.940747343800    -0.523803232355     0.206548384190    14.003074004430
         C           -2.278586656200    -0.282820232355    -0.175814615810    12.000000000000
         C           -1.260394556200    -1.544402232355    -0.323666815810    12.000000000000
         C           -1.648831656200     1.092464767645    -0.394899615810    12.000000000000
         C           -0.134037656200    -1.407745232355     0.646343384190    12.000000000000
         C           -0.508384656200     1.428585767645     0.578937384190    12.000000000000
         C            0.820836343800     0.841285767645     0.141166384190    12.000000000000
         C            2.141979343800    -1.150555232355    -0.325267615810    12.000000000000
         H           -2.719819656200    -0.308379232355     0.830457384190     1.007825032230
         H           -3.110766656200    -0.410922232355    -0.878972615810     1.007825032230
         H           -1.882071656200    -2.392440232355    -0.124831615810     1.007825032230
         H           -0.938619656200    -1.532347232355    -1.340272615810     1.007825032230
         H           -2.433374656200     1.850992767645    -0.288647615810     1.007825032230
         H           -1.274512656200     1.177228767645    -1.423136615810     1.007825032230
         H           -0.474342656200    -1.121836232355     1.649932384190     1.007825032230
         H            0.312109343800    -2.401922232355     0.745667384190     1.007825032230
         H           -0.771779656200     1.108260767645     1.595140384190     1.007825032230
         H           -0.340949656200     2.507688767645     0.607195384190     1.007825032230
         H            1.898710343800    -1.789663232355    -1.181847615810     1.007825032230
         H            2.626384343800    -1.760604232355     0.444167384190     1.007825032230
         H            2.817537343800    -0.358726232355    -0.643441615810     1.007825032230

  Basis Set: AUG-CC-PVTZ
    Blend: AUG-CC-PVTZ
  Basis Set: (AUG-CC-PVTZ AUX)
    Blend: AUG-CC-PVTZ-JKFIT
	 Reference Energy          =    -402.1042830822783571 [Eh]
	 Singles Energy            =      -0.0000000000000000 [Eh]
	 Same-Spin Energy          =      -0.4216998619373564 [Eh]
	 Opposite-Spin Energy      =      -1.4054515444573243 [Eh]
	 Correlation Energy        =      -1.8271514063946808 [Eh]
	 Total Energy              =    -403.9314344886730623 [Eh]

	 ================> DF-SCS-MP2 Energies <==================
	-----------------------------------------------------------
	 SCS Same-Spin Scale       =       0.3333333333333333 [-]
	 SCS Opposite-Spin Scale   =       1.2000000000000000 [-]
	 SCS Same-Spin Energy      =      -0.1405666206457855 [Eh]
	 SCS Opposite-Spin Energy  =      -1.6865418533487893 [Eh]
	 SCS Correlation Energy    =      -1.8271084739945747 [Eh]
	 SCS Total Energy          =    -403.9313915562729562 [Eh]
	-----------------------------------------------------------

  Dipole Moment: [D]
     X:    -2.5677      Y:    -3.1174      Z:     0.7844     Total:     4.1141

*** Psi4 exiting successfully. Buy a developer a beer!
