                               Psi4 1.3.2 release

  ==> Input File <==

--------------------------------------------------------------------------
#psi4
#
memory 32 gb

molecule  {
0 1
  O        1.7739800     1.6003060    -0.2911220
  N        0.9757964    -0.4204160     0.3399696
  C       -2.2286800    -0.2510300    -0.1765170
  C       -1.2730330    -1.4351160    -0.3152870
  C       -1.5989250     1.1242550    -0.3956020
  C       -0.0841310    -1.3759550     0.6456410
  C       -0.4584780     1.4603760     0.5782350
  C        0.8707430     0.8730760     0.1404640
  C        2.1918860    -1.1187650    -0.3259700
  H       -2.6699130    -0.2765890     0.8297550
  H       -3.0608600    -0.3791320    -0.8796750
  H       -1.8321650    -2.3606500    -0.1255340
  H       -0.8887130    -1.5005570    -1.3409750
  H       -2.3834680     1.8827830    -0.2893500
  H       -1.2246060     1.2090190    -1.4238390
  H       -0.4244360    -1.0900460     1.6492300
  H        0.3620160    -2.3701320     0.7449650
  H       -0.7218730     1.1400510     1.5944380
  H       -0.2910430     2.5394790     0.6064930
  H        1.9486170    -1.7578730    -1.1825500
  H        2.6762910    -1.7288140     0.4434650
  H        2.8674440    -0.3269360    -0.6441440
units angstrom
no_reorient  #important for SAPT in psi4, default
symmetry c1  #important for SAPT in psi4, default
}

set PROPERTIES_ORIGIN ["COM"]
properties('MP2/aug-cc-pvtz', properties = ['dipole'])
--------------------------------------------------------------------------

    Molecular point group: c1
  Charge       = 0
  Multiplicity = 1
  Basis Set: AUG-CC-PVTZ
    Blend: AUG-CC-PVTZ
  Basis Set: (AUG-CC-PVTZ AUX)
    Blend: AUG-CC-PVTZ-JKFIT

    Orbital Energies [Eh]
    ---------------------

    Doubly Occupied:

       1A    -20.498685     2A    -15.586589     3A    -11.331075
       4A    -11.275032     5A    -11.259979     6A    -11.236790
       7A    -11.232845     8A    -11.231620     9A    -11.227583
      10A     -1.361318    11A     -1.242083    12A     -1.095147
      13A     -1.041288    14A     -0.968426    15A     -0.925729
      16A     -0.880550    17A     -0.793907    18A     -0.718612
      19A     -0.688192    20A     -0.669005    21A     -0.633269
      22A     -0.608394    23A     -0.601752    24A     -0.591469
      25A     -0.583887    26A     -0.558277    27A     -0.538722
      28A     -0.532858    29A     -0.514222    30A     -0.497272
      31A     -0.478549    32A     -0.465945    33A     -0.463661
      34A     -0.401854    35A     -0.374782

  @DF-RHF Final Energy:  -402.09969614486795

   => Energetics <=

    Nuclear Repulsion Energy =            486.2983078526559666
    One-Electron Energy =               -1510.5772711267361501
    Two-Electron Energy =                 622.1792671292121213
    Total Energy =                       -402.0996961448679485
  Basis Set: (AUG-CC-PVTZ AUX)
    Blend: AUG-CC-PVTZ-RI
    Molecular point group: c1

    Geometry (in Angstrom), charge = 0, multiplicity = 1:

       Center              X                  Y                   Z               Mass
    ------------   -----------------  -----------------  -----------------  -----------------
         O            1.731615400677     1.553310933361    -0.306054026253    15.994914619570
         N            0.933431800677    -0.467411066639     0.325037573747    14.003074004430
         C           -2.271044599323    -0.298025066639    -0.191449026253    12.000000000000
         C           -1.315397599323    -1.482111066639    -0.330219026253    12.000000000000
         C           -1.641289599323     1.077259933361    -0.410534026253    12.000000000000
         C           -0.126495599323    -1.422950066639     0.630708973747    12.000000000000
         C           -0.500842599323     1.413380933361     0.563302973747    12.000000000000
         C            0.828378400677     0.826080933361     0.125531973747    12.000000000000
         C            2.149521400677    -1.165760066639    -0.340902026253    12.000000000000
         H           -2.712277599323    -0.323584066639     0.814822973747     1.007825032230
         H           -3.103224599323    -0.426127066639    -0.894607026253     1.007825032230
         H           -1.874529599323    -2.407645066639    -0.140466026253     1.007825032230
         H           -0.931077599323    -1.547552066639    -1.355907026253     1.007825032230
         H           -2.425832599323     1.835787933361    -0.304282026253     1.007825032230
         H           -1.266970599323     1.162023933361    -1.438771026253     1.007825032230
         H           -0.466800599323    -1.137041066639     1.634297973747     1.007825032230
         H            0.319651400677    -2.417127066639     0.730032973747     1.007825032230
         H           -0.764237599323     1.093055933361     1.579505973747     1.007825032230
         H           -0.333407599323     2.492483933361     0.591560973747     1.007825032230
         H            1.906252400677    -1.804868066639    -1.197482026253     1.007825032230
         H            2.633926400677    -1.775809066639     0.428532973747     1.007825032230
         H            2.825079400677    -0.373931066639    -0.659076026253     1.007825032230

  Basis Set: AUG-CC-PVTZ
    Blend: AUG-CC-PVTZ
  Basis Set: (AUG-CC-PVTZ AUX)
    Blend: AUG-CC-PVTZ-JKFIT
	 Reference Energy          =    -402.0996961448679485 [Eh]
	 Singles Energy            =      -0.0000000000000000 [Eh]
	 Same-Spin Energy          =      -0.4216839607054829 [Eh]
	 Opposite-Spin Energy      =      -1.4058264059256249 [Eh]
	 Correlation Energy        =      -1.8275103666311079 [Eh]
	 Total Energy              =    -403.9272065114990369 [Eh]

	 ================> DF-SCS-MP2 Energies <==================
	-----------------------------------------------------------
	 SCS Same-Spin Scale       =       0.3333333333333333 [-]
	 SCS Opposite-Spin Scale   =       1.2000000000000000 [-]
	 SCS Same-Spin Energy      =      -0.1405613202351609 [Eh]
	 SCS Opposite-Spin Energy  =      -1.6869916871107498 [Eh]
	 SCS Correlation Energy    =      -1.8275530073459108 [Eh]
	 SCS Total Energy          =    -403.9272491522138466 [Eh]
	-----------------------------------------------------------

  Dipole Moment: [D]
     X:    -2.5487      Y:    -3.4595      Z:     0.6206     Total:     4.3416

*** Psi4 exiting successfully. Buy a developer a beer!
