                               Psi4 1.3.2 release

  ==> Input File <==

--------------------------------------------------------------------------
#psi4
#
memory 32 gb

molecule  {
0 1
  O        1.6954223     1.7004803    -0.2673020
  N        0.9906540    -0.4920130     0.2058460
  C       -2.2286800    -0.2510300    -0.1765170
  C       -1.2730330    -1.4351160    -0.3152870
  C       -1.5989250     1.1242550    -0.3956020
  C       -0.0841310    -1.3759550     0.6456410
  C       -0.4584780     1.4603760     0.5782350
  C        0.8707430     0.8730760     0.1404640
  C        2.1918860    -1.1187650    -0.3259700
  H       -2.6699130    -0.2765890     0.8297550
  H       -3.0608600    -0.3791320    -0.8796750
  H       -1.8321650    -2.3606500    -0.1255340
  H       -0.8887130    -1.5005570    -1.3409750
  H       -2.3834680     1.8827830    -0.2893500
  H       -1.2246060     1.2090190    -1.4238390
  H       -0.4244360    -1.0900460     1.6492300
  H        0.3620160    -2.3701320     0.7449650
  H       -0.7218730     1.1400510     1.5944380
  H       -0.2910430     2.5394790     0.6064930
  H        1.9486170    -1.7578730    -1.1825500
  H        2.6762910    -1.7288140     0.4434650
  H        2.8674440    -0.3269360    -0.6441440
units angstrom
no_reorient  #important for SAPT in psi4, default
symmetry c1  #important for SAPT in psi4, default
}

set PROPERTIES_ORIGIN ["COM"]
properties('MP2/aug-cc-pvtz', properties = ['dipole'])
--------------------------------------------------------------------------

    Molecular point group: c1
  Charge       = 0
  Multiplicity = 1
  Basis Set: AUG-CC-PVTZ
    Blend: AUG-CC-PVTZ
  Basis Set: (AUG-CC-PVTZ AUX)
    Blend: AUG-CC-PVTZ-JKFIT

    Orbital Energies [Eh]
    ---------------------

    Doubly Occupied:

       1A    -20.507133     2A    -15.586475     3A    -11.339915
       4A    -11.275041     5A    -11.255627     6A    -11.234099
       7A    -11.231399     8A    -11.230301     9A    -11.226684
      10A     -1.360659    11A     -1.247893    12A     -1.096118
      13A     -1.036199    14A     -0.976706    15A     -0.916050
      16A     -0.877509    17A     -0.791622    18A     -0.728025
      19A     -0.688941    20A     -0.668848    21A     -0.635005
      22A     -0.609001    23A     -0.601615    24A     -0.593890
      25A     -0.582403    26A     -0.559788    27A     -0.544608
      28A     -0.530678    29A     -0.511035    30A     -0.509168
      31A     -0.478522    32A     -0.465144    33A     -0.463771
      34A     -0.402753    35A     -0.369748

  @DF-RHF Final Energy:  -402.10874642763463

   => Energetics <=

    Nuclear Repulsion Energy =            485.9681246449819128
    One-Electron Energy =               -1509.8889951616042708
    Two-Electron Energy =                 621.8121240889877299
    Total Energy =                       -402.1087464276346282
  Basis Set: (AUG-CC-PVTZ AUX)
    Blend: AUG-CC-PVTZ-RI
    Molecular point group: c1

    Geometry (in Angstrom), charge = 0, multiplicity = 1:

       Center              X                  Y                   Z               Mass
    ------------   -----------------  -----------------  -----------------  -----------------
         O            1.661306905955     1.648766880605    -0.270454740661    15.994914619570
         N            0.956538605955    -0.543726419395     0.202693259339    14.003074004430
         C           -2.262795394045    -0.302743419395    -0.179669740661    12.000000000000
         C           -1.307148394045    -1.486829419395    -0.318439740661    12.000000000000
         C           -1.633040394045     1.072541580605    -0.398754740661    12.000000000000
         C           -0.118246394045    -1.427668419395     0.642488259339    12.000000000000
         C           -0.492593394045     1.408662580605     0.575082259339    12.000000000000
         C            0.836627605955     0.821362580605     0.137311259339    12.000000000000
         C            2.157770605955    -1.170478419395    -0.329122740661    12.000000000000
         H           -2.704028394045    -0.328302419395     0.826602259339     1.007825032230
         H           -3.094975394045    -0.430845419395    -0.882827740661     1.007825032230
         H           -1.866280394045    -2.412363419395    -0.128686740661     1.007825032230
         H           -0.922828394045    -1.552270419395    -1.344127740661     1.007825032230
         H           -2.417583394045     1.831069580605    -0.292502740661     1.007825032230
         H           -1.258721394045     1.157305580605    -1.426991740661     1.007825032230
         H           -0.458551394045    -1.141759419395     1.646077259339     1.007825032230
         H            0.327900605955    -2.421845419395     0.741812259339     1.007825032230
         H           -0.755988394045     1.088337580605     1.591285259339     1.007825032230
         H           -0.325158394045     2.487765580605     0.603340259339     1.007825032230
         H            1.914501605955    -1.809586419395    -1.185702740661     1.007825032230
         H            2.642175605955    -1.780527419395     0.440312259339     1.007825032230
         H            2.833328605955    -0.378649419395    -0.647296740661     1.007825032230

  Basis Set: AUG-CC-PVTZ
    Blend: AUG-CC-PVTZ
  Basis Set: (AUG-CC-PVTZ AUX)
    Blend: AUG-CC-PVTZ-JKFIT
	 Reference Energy          =    -402.1087464276346282 [Eh]
	 Singles Energy            =      -0.0000000000000000 [Eh]
	 Same-Spin Energy          =      -0.4216693502888409 [Eh]
	 Opposite-Spin Energy      =      -1.4054002251625353 [Eh]
	 Correlation Energy        =      -1.8270695754513762 [Eh]
	 Total Energy              =    -403.9358160030860176 [Eh]

	 ================> DF-SCS-MP2 Energies <==================
	-----------------------------------------------------------
	 SCS Same-Spin Scale       =       0.3333333333333333 [-]
	 SCS Opposite-Spin Scale   =       1.2000000000000000 [-]
	 SCS Same-Spin Energy      =      -0.1405564500962803 [Eh]
	 SCS Opposite-Spin Energy  =      -1.6864802701950423 [Eh]
	 SCS Correlation Energy    =      -1.8270367202913227 [Eh]
	 SCS Total Energy          =    -403.9357831479259744 [Eh]
	-----------------------------------------------------------

  Dipole Moment: [D]
     X:    -2.3377      Y:    -3.3950      Z:     0.7354     Total:     4.1871

*** Psi4 exiting successfully. Buy a developer a beer!
