                               Psi4 1.3.2 release

  ==> Input File <==

--------------------------------------------------------------------------
#psi4
#
memory 32 gb

molecule  {
0 1
  O        1.7739800     1.6003060    -0.2911220
  N        0.9906540    -0.4920130     0.2058460
  C       -2.1974175    -0.2315180    -0.1379650
  C       -1.2730330    -1.4351160    -0.3152870
  C       -1.5989250     1.1242550    -0.3956020
  C       -0.0841310    -1.3759550     0.6456410
  C       -0.4584780     1.4603760     0.5782350
  C        0.8707430     0.8730760     0.1404640
  C        2.1918860    -1.1187650    -0.3259700
  H       -2.6699130    -0.2765890     0.8297550
  H       -3.0608600    -0.3791320    -0.8796750
  H       -1.8321650    -2.3606500    -0.1255340
  H       -0.8887130    -1.5005570    -1.3409750
  H       -2.3834680     1.8827830    -0.2893500
  H       -1.2246060     1.2090190    -1.4238390
  H       -0.4244360    -1.0900460     1.6492300
  H        0.3620160    -2.3701320     0.7449650
  H       -0.7218730     1.1400510     1.5944380
  H       -0.2910430     2.5394790     0.6064930
  H        1.9486170    -1.7578730    -1.1825500
  H        2.6762910    -1.7288140     0.4434650
  H        2.8674440    -0.3269360    -0.6441440
units angstrom
no_reorient  #important for SAPT in psi4, default
symmetry c1  #important for SAPT in psi4, default
}

set PROPERTIES_ORIGIN ["COM"]
properties('MP2/aug-cc-pvtz', properties = ['dipole'])
--------------------------------------------------------------------------

    Molecular point group: c1
  Charge       = 0
  Multiplicity = 1
  Basis Set: AUG-CC-PVTZ
    Blend: AUG-CC-PVTZ
  Basis Set: (AUG-CC-PVTZ AUX)
    Blend: AUG-CC-PVTZ-JKFIT

    Orbital Energies [Eh]
    ---------------------

    Doubly Occupied:

       1A    -20.505685     2A    -15.580614     3A    -11.339947
       4A    -11.271326     5A    -11.250598     6A    -11.234319
       7A    -11.233939     8A    -11.232878     9A    -11.232721
      10A     -1.361859    11A     -1.241302    12A     -1.100921
      13A     -1.038576    14A     -0.975720    15A     -0.912840
      16A     -0.879222    17A     -0.793035    18A     -0.724957
      19A     -0.690555    20A     -0.668905    21A     -0.633917
      22A     -0.608051    23A     -0.604001    24A     -0.592666
      25A     -0.584051    26A     -0.558530    27A     -0.543532
      28A     -0.527834    29A     -0.510627    30A     -0.505926
      31A     -0.487098    32A     -0.470094    33A     -0.456277
      34A     -0.407221    35A     -0.364772

  @DF-RHF Final Energy:  -402.10859240207560

   => Energetics <=

    Nuclear Repulsion Energy =            486.9246876436091043
    One-Electron Energy =               -1511.8175322400134064
    Two-Electron Energy =                 622.7842521943287011
    Total Energy =                       -402.1085924020756011
  Basis Set: (AUG-CC-PVTZ AUX)
    Blend: AUG-CC-PVTZ-RI
    Molecular point group: c1

    Geometry (in Angstrom), charge = 0, multiplicity = 1:

       Center              X                  Y                   Z               Mass
    ------------   -----------------  -----------------  -----------------  -----------------
         O            1.727026861067     1.559356848533    -0.294916954016    15.994914619570
         N            0.943700861067    -0.532962151467     0.202051045984    14.003074004430
         C           -2.244370638933    -0.272467151467    -0.141759954016    12.000000000000
         C           -1.319986138933    -1.476065151467    -0.319081954016    12.000000000000
         C           -1.645878138933     1.083305848533    -0.399396954016    12.000000000000
         C           -0.131084138933    -1.416904151467     0.641846045984    12.000000000000
         C           -0.505431138933     1.419426848533     0.574440045984    12.000000000000
         C            0.823789861067     0.832126848533     0.136669045984    12.000000000000
         C            2.144932861067    -1.159714151467    -0.329764954016    12.000000000000
         H           -2.716866138933    -0.317538151467     0.825960045984     1.007825032230
         H           -3.107813138933    -0.420081151467    -0.883469954016     1.007825032230
         H           -1.879118138933    -2.401599151467    -0.129328954016     1.007825032230
         H           -0.935666138933    -1.541506151467    -1.344769954016     1.007825032230
         H           -2.430421138933     1.841833848533    -0.293144954016     1.007825032230
         H           -1.271559138933     1.168069848533    -1.427633954016     1.007825032230
         H           -0.471389138933    -1.130995151467     1.645435045984     1.007825032230
         H            0.315062861067    -2.411081151467     0.741170045984     1.007825032230
         H           -0.768826138933     1.099101848533     1.590643045984     1.007825032230
         H           -0.337996138933     2.498529848533     0.602698045984     1.007825032230
         H            1.901663861067    -1.798822151467    -1.186344954016     1.007825032230
         H            2.629337861067    -1.769763151467     0.439670045984     1.007825032230
         H            2.820490861067    -0.367885151467    -0.647938954016     1.007825032230

  Basis Set: AUG-CC-PVTZ
    Blend: AUG-CC-PVTZ
  Basis Set: (AUG-CC-PVTZ AUX)
    Blend: AUG-CC-PVTZ-JKFIT
	 Reference Energy          =    -402.1085924020756011 [Eh]
	 Singles Energy            =      -0.0000000000000000 [Eh]
	 Same-Spin Energy          =      -0.4220651702841457 [Eh]
	 Opposite-Spin Energy      =      -1.4056322960788026 [Eh]
	 Correlation Energy        =      -1.8276974663629484 [Eh]
	 Total Energy              =    -403.9362898684385641 [Eh]

	 ================> DF-SCS-MP2 Energies <==================
	-----------------------------------------------------------
	 SCS Same-Spin Scale       =       0.3333333333333333 [-]
	 SCS Opposite-Spin Scale   =       1.2000000000000000 [-]
	 SCS Same-Spin Energy      =      -0.1406883900947152 [Eh]
	 SCS Opposite-Spin Energy  =      -1.6867587552945631 [Eh]
	 SCS Correlation Energy    =      -1.8274471453892782 [Eh]
	 SCS Total Energy          =    -403.9360395474648726 [Eh]
	-----------------------------------------------------------

  Dipole Moment: [D]
     X:    -2.5682      Y:    -3.0987      Z:     0.8116     Total:     4.1056

*** Psi4 exiting successfully. Buy a developer a beer!
