                               Psi4 1.4a3.dev225

  ==> Input File <==

--------------------------------------------------------------------------
#psi4
#
memory 32 gb

molecule  {
0 1
  O        1.7739800     1.6003060    -0.2911220
  N        0.9906540    -0.4920130     0.2058460
  C       -2.2286800    -0.2510300    -0.1765170
  C       -1.2730330    -1.4351160    -0.3152870
  C       -1.5989250     1.1242550    -0.3956020
  C       -0.0988598    -1.3880685     0.6516679
  C       -0.4584780     1.4603760     0.5782350
  C        0.8707430     0.8730760     0.1404640
  C        2.1918860    -1.1187650    -0.3259700
  H       -2.6699130    -0.2765890     0.8297550
  H       -3.0608600    -0.3791320    -0.8796750
  H       -1.8321650    -2.3606500    -0.1255340
  H       -0.8887130    -1.5005570    -1.3409750
  H       -2.3834680     1.8827830    -0.2893500
  H       -1.2246060     1.2090190    -1.4238390
  H       -0.4244360    -1.0900460     1.6492300
  H        0.3620160    -2.3701320     0.7449650
  H       -0.7218730     1.1400510     1.5944380
  H       -0.2910430     2.5394790     0.6064930
  H        1.9486170    -1.7578730    -1.1825500
  H        2.6762910    -1.7288140     0.4434650
  H        2.8674440    -0.3269360    -0.6441440
units angstrom
no_reorient  #important for SAPT in psi4, default
symmetry c1  #important for SAPT in psi4, default
}

set PROPERTIES_ORIGIN ["COM"]
properties('MP2/aug-cc-pvtz', properties = ['dipole'])
--------------------------------------------------------------------------

    Molecular point group: c1
  Charge       = 0
  Multiplicity = 1
  Basis Set: AUG-CC-PVTZ
    Blend: AUG-CC-PVTZ
  Basis Set: (AUG-CC-PVTZ AUX)
    Blend: AUG-CC-PVTZ-JKFIT

    Orbital Energies [Eh]
    ---------------------

    Doubly Occupied:

       1A    -20.504774     2A    -15.579850     3A    -11.339061
       4A    -11.272649     5A    -11.249951     6A    -11.234639
       7A    -11.233740     8A    -11.233237     9A    -11.231906
      10A     -1.360656    11A     -1.237016    12A     -1.098013
      13A     -1.039255    14A     -0.975143    15A     -0.913799
      16A     -0.877111    17A     -0.792821    18A     -0.723821
      19A     -0.689888    20A     -0.668251    21A     -0.632212
      22A     -0.609010    23A     -0.601671    24A     -0.593960
      25A     -0.583885    26A     -0.558856    27A     -0.544512
      28A     -0.526413    29A     -0.509526    30A     -0.508905
      31A     -0.479816    32A     -0.467375    33A     -0.466031
      34A     -0.406723    35A     -0.365101

  @DF-RHF Final Energy:  -402.11170808469581

   => Energetics <=

    Nuclear Repulsion Energy =            486.0252511197160175
    One-Electron Energy =               -1510.0547633329304062
    Two-Electron Energy =                 621.9178041285184690
    Total Energy =                       -402.1117080846958061
  Basis Set: (AUG-CC-PVTZ AUX)
    Blend: AUG-CC-PVTZ-RI
    Molecular point group: c1

    Geometry (in Angstrom), charge = 0, multiplicity = 1:

       Center              X                  Y                   Z               Mass
    ------------   -----------------  -----------------  -----------------  -----------------
         O            1.731369086415     1.562342740381    -0.291846127280    15.994914619570
         N            0.948043086415    -0.529976259619     0.205121872720    14.003074004430
         C           -2.271290913585    -0.288993259619    -0.177241127280    12.000000000000
         C           -1.315643913585    -1.473079259619    -0.316011127280    12.000000000000
         C           -1.641535913585     1.086291740381    -0.396326127280    12.000000000000
         C           -0.141470713585    -1.426031759619     0.650943772720    12.000000000000
         C           -0.501088913585     1.422412740381     0.577510872720    12.000000000000
         C            0.828132086415     0.835112740381     0.139739872720    12.000000000000
         C            2.149275086415    -1.156728259619    -0.326694127280    12.000000000000
         H           -2.712523913585    -0.314552259619     0.829030872720     1.007825032230
         H           -3.103470913585    -0.417095259619    -0.880399127280     1.007825032230
         H           -1.874775913585    -2.398613259619    -0.126258127280     1.007825032230
         H           -0.931323913585    -1.538520259619    -1.341699127280     1.007825032230
         H           -2.426078913585     1.844819740381    -0.290074127280     1.007825032230
         H           -1.267216913585     1.171055740381    -1.424563127280     1.007825032230
         H           -0.467046913585    -1.128009259619     1.648505872720     1.007825032230
         H            0.319405086415    -2.408095259619     0.744240872720     1.007825032230
         H           -0.764483913585     1.102087740381     1.593713872720     1.007825032230
         H           -0.333653913585     2.501515740381     0.605768872720     1.007825032230
         H            1.906006086415    -1.795836259619    -1.183274127280     1.007825032230
         H            2.633680086415    -1.766777259619     0.442740872720     1.007825032230
         H            2.824833086415    -0.364899259619    -0.644868127280     1.007825032230

  Basis Set: AUG-CC-PVTZ
    Blend: AUG-CC-PVTZ
  Basis Set: (AUG-CC-PVTZ AUX)
    Blend: AUG-CC-PVTZ-JKFIT
	 Reference Energy          =    -402.1117080846958061 [Eh]
	 Singles Energy            =      -0.0000000000000000 [Eh]
	 Same-Spin Energy          =      -0.4217107186997214 [Eh]
	 Opposite-Spin Energy      =      -1.4052373913212479 [Eh]
	 Correlation Energy        =      -1.8269481100209695 [Eh]
	 Total Energy              =    -403.9386561947167706 [Eh]

	 ================> DF-SCS-MP2 Energies <==================
	-----------------------------------------------------------
	 SCS Same-Spin Scale       =       0.3333333333333333 [-]
	 SCS Opposite-Spin Scale   =       1.2000000000000000 [-]
	 SCS Same-Spin Energy      =      -0.1405702395665738 [Eh]
	 SCS Opposite-Spin Energy  =      -1.6862848695854975 [Eh]
	 SCS Correlation Energy    =      -1.8268551091520713 [Eh]
	 SCS Total Energy          =    -403.9385631938478696 [Eh]
	-----------------------------------------------------------

  Dipole Moment: [D]
     X:    -2.6259      Y:    -3.1427      Z:     0.8069     Total:     4.1741

*** Psi4 exiting successfully. Buy a developer a beer!
