                               Psi4 1.3.2 release

  ==> Input File <==

--------------------------------------------------------------------------
#psi4
#
memory 32 gb

molecule  {
0 1
  O        1.7739800     1.6003060    -0.2911220
  N        0.9906540    -0.4920130     0.2058460
  C       -2.1808355    -0.2731947    -0.1846213
  C       -1.2730330    -1.4351160    -0.3152870
  C       -1.5989250     1.1242550    -0.3956020
  C       -0.0841310    -1.3759550     0.6456410
  C       -0.4584780     1.4603760     0.5782350
  C        0.8707430     0.8730760     0.1404640
  C        2.1918860    -1.1187650    -0.3259700
  H       -2.6699130    -0.2765890     0.8297550
  H       -3.0608600    -0.3791320    -0.8796750
  H       -1.8321650    -2.3606500    -0.1255340
  H       -0.8887130    -1.5005570    -1.3409750
  H       -2.3834680     1.8827830    -0.2893500
  H       -1.2246060     1.2090190    -1.4238390
  H       -0.4244360    -1.0900460     1.6492300
  H        0.3620160    -2.3701320     0.7449650
  H       -0.7218730     1.1400510     1.5944380
  H       -0.2910430     2.5394790     0.6064930
  H        1.9486170    -1.7578730    -1.1825500
  H        2.6762910    -1.7288140     0.4434650
  H        2.8674440    -0.3269360    -0.6441440
units angstrom
no_reorient  #important for SAPT in psi4, default
symmetry c1  #important for SAPT in psi4, default
}

set PROPERTIES_ORIGIN ["COM"]
properties('MP2/aug-cc-pvtz', properties = ['dipole'])
--------------------------------------------------------------------------

    Molecular point group: c1
  Charge       = 0
  Multiplicity = 1
  Basis Set: AUG-CC-PVTZ
    Blend: AUG-CC-PVTZ
  Basis Set: (AUG-CC-PVTZ AUX)
    Blend: AUG-CC-PVTZ-JKFIT

    Orbital Energies [Eh]
    ---------------------

    Doubly Occupied:

       1A    -20.505813     2A    -15.580952     3A    -11.340091
       4A    -11.272347     5A    -11.250813     6A    -11.235429
       7A    -11.234211     8A    -11.233093     9A    -11.232118
      10A     -1.361997    11A     -1.241775    12A     -1.102022
      13A     -1.041284    14A     -0.974964    15A     -0.914116
      16A     -0.880649    17A     -0.788592    18A     -0.726067
      19A     -0.690914    20A     -0.670441    21A     -0.633207
      22A     -0.610784    23A     -0.603047    24A     -0.593159
      25A     -0.584397    26A     -0.558267    27A     -0.544663
      28A     -0.528345    29A     -0.510157    30A     -0.507292
      31A     -0.479294    32A     -0.469818    33A     -0.460672
      34A     -0.407264    35A     -0.365222

  @DF-RHF Final Energy:  -402.10840223853694

   => Energetics <=

    Nuclear Repulsion Energy =            487.0978056216109167
    One-Electron Energy =               -1512.1458635934959602
    Two-Electron Energy =                 622.9396557333481041
    Total Energy =                       -402.1084022385369963
  Basis Set: (AUG-CC-PVTZ AUX)
    Blend: AUG-CC-PVTZ-RI
    Molecular point group: c1

    Geometry (in Angstrom), charge = 0, multiplicity = 1:

       Center              X                  Y                   Z               Mass
    ------------   -----------------  -----------------  -----------------  -----------------
         O            1.725461287128     1.563291714978    -0.290511943319    15.994914619570
         N            0.942135287128    -0.529027285022     0.206456056681    14.003074004430
         C           -2.229354212872    -0.310208985022    -0.184011243319    12.000000000000
         C           -1.321551712872    -1.472130285022    -0.314676943319    12.000000000000
         C           -1.647443712872     1.087240714978    -0.394991943319    12.000000000000
         C           -0.132649712872    -1.412969285022     0.646251056681    12.000000000000
         C           -0.506996712872     1.423361714978     0.578845056681    12.000000000000
         C            0.822224287128     0.836061714978     0.141074056681    12.000000000000
         C            2.143367287128    -1.155779285022    -0.325359943319    12.000000000000
         H           -2.718431712872    -0.313603285022     0.830365056681     1.007825032230
         H           -3.109378712872    -0.416146285022    -0.879064943319     1.007825032230
         H           -1.880683712872    -2.397664285022    -0.124923943319     1.007825032230
         H           -0.937231712872    -1.537571285022    -1.340364943319     1.007825032230
         H           -2.431986712872     1.845768714978    -0.288739943319     1.007825032230
         H           -1.273124712872     1.172004714978    -1.423228943319     1.007825032230
         H           -0.472954712872    -1.127060285022     1.649840056681     1.007825032230
         H            0.313497287128    -2.407146285022     0.745575056681     1.007825032230
         H           -0.770391712872     1.103036714978     1.595048056681     1.007825032230
         H           -0.339561712872     2.502464714978     0.607103056681     1.007825032230
         H            1.900098287128    -1.794887285022    -1.181939943319     1.007825032230
         H            2.627772287128    -1.765828285022     0.444075056681     1.007825032230
         H            2.818925287128    -0.363950285022    -0.643533943319     1.007825032230

  Basis Set: AUG-CC-PVTZ
    Blend: AUG-CC-PVTZ
  Basis Set: (AUG-CC-PVTZ AUX)
    Blend: AUG-CC-PVTZ-JKFIT
	 Reference Energy          =    -402.1084022385369394 [Eh]
	 Singles Energy            =      -0.0000000000000000 [Eh]
	 Same-Spin Energy          =      -0.4222340085571531 [Eh]
	 Opposite-Spin Energy      =      -1.4057635462634372 [Eh]
	 Correlation Energy        =      -1.8279975548205902 [Eh]
	 Total Energy              =    -403.9363997933575092 [Eh]

	 ================> DF-SCS-MP2 Energies <==================
	-----------------------------------------------------------
	 SCS Same-Spin Scale       =       0.3333333333333333 [-]
	 SCS Opposite-Spin Scale   =       1.2000000000000000 [-]
	 SCS Same-Spin Energy      =      -0.1407446695190510 [Eh]
	 SCS Opposite-Spin Energy  =      -1.6869162555161246 [Eh]
	 SCS Correlation Energy    =      -1.8276609250351756 [Eh]
	 SCS Total Energy          =    -403.9360631635721006 [Eh]
	-----------------------------------------------------------

  Dipole Moment: [D]
     X:    -2.5535      Y:    -3.1116      Z:     0.7819     Total:     4.1005

*** Psi4 exiting successfully. Buy a developer a beer!
