                               Psi4 1.3.2 release

  ==> Input File <==

--------------------------------------------------------------------------
#psi4
#
memory 32 gb

molecule  {
0 1
  N       -1.5932770    -0.7762670    -0.0000010
  N       -1.2433830     1.4240120     0.0000010
  N        0.9927230    -1.4534560     0.0000030
  C       -0.6561680     0.2207960     0.0000070
  C        0.7646462    -0.1168499    -0.1499980
  C        1.7974510     0.8476430     0.0000020
  C       -2.8387770    -0.2049930    -0.0000090
  C       -2.5875250     1.1588080    -0.0000060
  C        3.1063280     0.3562510    -0.0000040
  C        1.5337640     2.3273650     0.0000030
  C       -4.1038310    -0.9929000     0.0000030
  C        3.3549510    -1.0153620    -0.0000030
  C        2.2635760    -1.8809290    -0.0000010
  H       -1.3380790    -1.7591850     0.0000060
  H       -3.3182890     1.9585790    -0.0000140
  H        3.9358980     1.0613790    -0.0000050
  H        0.9464400     2.6235720    -0.8719580
  H        0.9464450     2.6235710     0.8719680
  H        2.4827640     2.8719440     0.0000020
  H       -4.1845960    -1.6320300    -0.8856740
  H       -4.1845630    -1.6320460     0.8856710
  H       -4.9567250    -0.3101180     0.0000250
  H        4.3696920    -1.4037000    -0.0000080
  H        2.4020820    -2.9609650     0.0000010
units angstrom
no_reorient  #important for SAPT in psi4, default
symmetry c1  #important for SAPT in psi4, default
}

set PROPERTIES_ORIGIN ["COM"]
properties('MP2/aug-cc-pvtz', properties = ['dipole'])
--------------------------------------------------------------------------

    Molecular point group: c1
  Charge       = 0
  Multiplicity = 1
  Basis Set: AUG-CC-PVTZ
    Blend: AUG-CC-PVTZ
  Basis Set: (AUG-CC-PVTZ AUX)
    Blend: AUG-CC-PVTZ-JKFIT

    Orbital Energies [Eh]
    ---------------------

    Doubly Occupied:

       1A    -15.606904     2A    -15.574208     3A    -15.543295
       4A    -11.293665     5A    -11.291041     6A    -11.276902
       7A    -11.264781     8A    -11.256409     9A    -11.254739
      10A    -11.244419    11A    -11.237357    12A    -11.234255
      13A    -11.215798    14A     -1.334453    15A     -1.256387
      16A     -1.159963    17A     -1.098341    18A     -1.072082
      19A     -1.028723    20A     -0.956547    21A     -0.928834
      22A     -0.864551    23A     -0.833957    24A     -0.804209
      25A     -0.778056    26A     -0.725752    27A     -0.675611
      28A     -0.660279    29A     -0.629335    30A     -0.616709
      31A     -0.594368    32A     -0.579474    33A     -0.574792
      34A     -0.564332    35A     -0.560980    36A     -0.552252
      37A     -0.547643    38A     -0.544147    39A     -0.522585
      40A     -0.506678    41A     -0.433112    42A     -0.424443
      43A     -0.393982    44A     -0.385492    45A     -0.354290
      46A     -0.278777

  @DF-RHF Final Energy:  -548.61823310060913

   => Energetics <=

    Nuclear Repulsion Energy =            741.0394737245404713
    One-Electron Energy =               -2214.2455942863339260
    Two-Electron Energy =                 924.5878874611842093
    Total Energy =                       -548.6182331006091317
  Basis Set: (AUG-CC-PVTZ AUX)
    Blend: AUG-CC-PVTZ-RI
    Molecular point group: c1

    Geometry (in Angstrom), charge = 0, multiplicity = 1:

       Center              X                  Y                   Z               Mass
    ------------   -----------------  -----------------  -----------------  -----------------
         N           -1.609860817958    -0.767992918025     0.010397987775    14.003074004430
         N           -1.259966817958     1.432286081975     0.010399987775    14.003074004430
         N            0.976139182042    -1.445181918025     0.010401987775    14.003074004430
         C           -0.672751817958     0.229070081975     0.010405987775    12.000000000000
         C            0.748062382042    -0.108575818025    -0.139599012225    12.000000000000
         C            1.780867182042     0.855917081975     0.010400987775    12.000000000000
         C           -2.855360817958    -0.196718918025     0.010389987775    12.000000000000
         C           -2.604108817958     1.167082081975     0.010392987775    12.000000000000
         C            3.089744182042     0.364525081975     0.010394987775    12.000000000000
         C            1.517180182042     2.335639081975     0.010401987775    12.000000000000
         C           -4.120414817958    -0.984625918025     0.010401987775    12.000000000000
         C            3.338367182042    -1.007087918025     0.010395987775    12.000000000000
         C            2.246992182042    -1.872654918025     0.010397987775    12.000000000000
         H           -1.354662817958    -1.750910918025     0.010404987775     1.007825032230
         H           -3.334872817958     1.966853081975     0.010384987775     1.007825032230
         H            3.919314182042     1.069653081975     0.010393987775     1.007825032230
         H            0.929856182042     2.631846081975    -0.861559012225     1.007825032230
         H            0.929861182042     2.631845081975     0.882366987775     1.007825032230
         H            2.466180182042     2.880218081975     0.010400987775     1.007825032230
         H           -4.201179817958    -1.623755918025    -0.875275012225     1.007825032230
         H           -4.201146817958    -1.623771918025     0.896069987775     1.007825032230
         H           -4.973308817958    -0.301843918025     0.010423987775     1.007825032230
         H            4.353108182042    -1.395425918025     0.010390987775     1.007825032230
         H            2.385498182042    -2.952690918025     0.010399987775     1.007825032230

  Basis Set: AUG-CC-PVTZ
    Blend: AUG-CC-PVTZ
  Basis Set: (AUG-CC-PVTZ AUX)
    Blend: AUG-CC-PVTZ-JKFIT
	 Reference Energy          =    -548.6182331006091317 [Eh]
	 Singles Energy            =      -0.0000000000000000 [Eh]
	 Same-Spin Energy          =      -0.6120455125357838 [Eh]
	 Opposite-Spin Energy      =      -1.8794286875495430 [Eh]
	 Correlation Energy        =      -2.4914742000853267 [Eh]
	 Total Energy              =    -551.1097073006944811 [Eh]

	 ================> DF-SCS-MP2 Energies <==================
	-----------------------------------------------------------
	 SCS Same-Spin Scale       =       0.3333333333333333 [-]
	 SCS Opposite-Spin Scale   =       1.2000000000000000 [-]
	 SCS Same-Spin Energy      =      -0.2040151708452612 [Eh]
	 SCS Opposite-Spin Energy  =      -2.2553144250594515 [Eh]
	 SCS Correlation Energy    =      -2.4593295959047126 [Eh]
	 SCS Total Energy          =    -551.0775626965138372 [Eh]
	-----------------------------------------------------------

  Dipole Moment: [D]
     X:     0.2049      Y:    -1.7572      Z:    -0.0594     Total:     1.7701

*** Psi4 exiting successfully. Buy a developer a beer!
