                               Psi4 1.3.2 release

  ==> Input File <==

--------------------------------------------------------------------------
#psi4
#
memory 32 gb

molecule  {
0 1
  N       -1.5932770    -0.7762670    -0.0000010
  N       -1.2433830     1.4240120     0.0000010
  N        0.9927230    -1.4534560     0.0000030
  C       -0.6561680     0.2207960     0.0000070
  C        0.7646460    -0.1168500     0.0000020
  C        1.7974507     0.8476430    -0.1499980
  C       -2.8387770    -0.2049930    -0.0000090
  C       -2.5875250     1.1588080    -0.0000060
  C        3.1063280     0.3562510    -0.0000040
  C        1.5337640     2.3273650     0.0000030
  C       -4.1038310    -0.9929000     0.0000030
  C        3.3549510    -1.0153620    -0.0000030
  C        2.2635760    -1.8809290    -0.0000010
  H       -1.3380790    -1.7591850     0.0000060
  H       -3.3182890     1.9585790    -0.0000140
  H        3.9358980     1.0613790    -0.0000050
  H        0.9464400     2.6235720    -0.8719580
  H        0.9464450     2.6235710     0.8719680
  H        2.4827640     2.8719440     0.0000020
  H       -4.1845960    -1.6320300    -0.8856740
  H       -4.1845630    -1.6320460     0.8856710
  H       -4.9567250    -0.3101180     0.0000250
  H        4.3696920    -1.4037000    -0.0000080
  H        2.4020820    -2.9609650     0.0000010
units angstrom
no_reorient  #important for SAPT in psi4, default
symmetry c1  #important for SAPT in psi4, default
}

set PROPERTIES_ORIGIN ["COM"]
properties('MP2/aug-cc-pvtz', properties = ['dipole'])
--------------------------------------------------------------------------

    Molecular point group: c1
  Charge       = 0
  Multiplicity = 1
  Basis Set: AUG-CC-PVTZ
    Blend: AUG-CC-PVTZ
  Basis Set: (AUG-CC-PVTZ AUX)
    Blend: AUG-CC-PVTZ-JKFIT

    Orbital Energies [Eh]
    ---------------------

    Doubly Occupied:

       1A    -15.607866     2A    -15.572257     3A    -15.544443
       4A    -11.293455     5A    -11.291121     6A    -11.278056
       7A    -11.265691     8A    -11.257913     9A    -11.254004
      10A    -11.242793    11A    -11.237915    12A    -11.234946
      13A    -11.215411    14A     -1.335390    15A     -1.257916
      16A     -1.160758    17A     -1.096871    18A     -1.072828
      19A     -1.028977    20A     -0.956196    21A     -0.928811
      22A     -0.864253    23A     -0.835044    24A     -0.804786
      25A     -0.778756    26A     -0.727351    27A     -0.675883
      28A     -0.659612    29A     -0.629196    30A     -0.617840
      31A     -0.594296    32A     -0.578853    33A     -0.575044
      34A     -0.565269    35A     -0.561300    36A     -0.553207
      37A     -0.546152    38A     -0.544495    39A     -0.523299
      40A     -0.503344    41A     -0.433263    42A     -0.424235
      43A     -0.394371    44A     -0.385378    45A     -0.354620
      46A     -0.279531

  @DF-RHF Final Energy:  -548.61861604971489

   => Energetics <=

    Nuclear Repulsion Energy =            741.0871133562444584
    One-Electron Energy =               -2214.3254643637133086
    Two-Electron Energy =                 924.6197349577538489
    Total Energy =                       -548.6186160497148876
  Basis Set: (AUG-CC-PVTZ AUX)
    Blend: AUG-CC-PVTZ-RI
    Molecular point group: c1

    Geometry (in Angstrom), charge = 0, multiplicity = 1:

       Center              X                  Y                   Z               Mass
    ------------   -----------------  -----------------  -----------------  -----------------
         N           -1.609860783295    -0.767992911092     0.010397987775    14.003074004430
         N           -1.259966783295     1.432286088908     0.010399987775    14.003074004430
         N            0.976139216705    -1.445181911092     0.010401987775    14.003074004430
         C           -0.672751783295     0.229070088908     0.010405987775    12.000000000000
         C            0.748062216705    -0.108575911092     0.010400987775    12.000000000000
         C            1.780866916705     0.855917088908    -0.139599012225    12.000000000000
         C           -2.855360783295    -0.196718911092     0.010389987775    12.000000000000
         C           -2.604108783295     1.167082088908     0.010392987775    12.000000000000
         C            3.089744216705     0.364525088908     0.010394987775    12.000000000000
         C            1.517180216705     2.335639088908     0.010401987775    12.000000000000
         C           -4.120414783295    -0.984625911092     0.010401987775    12.000000000000
         C            3.338367216705    -1.007087911092     0.010395987775    12.000000000000
         C            2.246992216705    -1.872654911092     0.010397987775    12.000000000000
         H           -1.354662783295    -1.750910911092     0.010404987775     1.007825032230
         H           -3.334872783295     1.966853088908     0.010384987775     1.007825032230
         H            3.919314216705     1.069653088908     0.010393987775     1.007825032230
         H            0.929856216705     2.631846088908    -0.861559012225     1.007825032230
         H            0.929861216705     2.631845088908     0.882366987775     1.007825032230
         H            2.466180216705     2.880218088908     0.010400987775     1.007825032230
         H           -4.201179783295    -1.623755911092    -0.875275012225     1.007825032230
         H           -4.201146783295    -1.623771911092     0.896069987775     1.007825032230
         H           -4.973308783295    -0.301843911092     0.010423987775     1.007825032230
         H            4.353108216705    -1.395425911092     0.010390987775     1.007825032230
         H            2.385498216705    -2.952690911092     0.010399987775     1.007825032230

  Basis Set: AUG-CC-PVTZ
    Blend: AUG-CC-PVTZ
  Basis Set: (AUG-CC-PVTZ AUX)
    Blend: AUG-CC-PVTZ-JKFIT
	 Reference Energy          =    -548.6186160497148876 [Eh]
	 Singles Energy            =      -0.0000000000000000 [Eh]
	 Same-Spin Energy          =      -0.6119062474148764 [Eh]
	 Opposite-Spin Energy      =      -1.8792036304265338 [Eh]
	 Correlation Energy        =      -2.4911098778414100 [Eh]
	 Total Energy              =    -551.1097259275562692 [Eh]

	 ================> DF-SCS-MP2 Energies <==================
	-----------------------------------------------------------
	 SCS Same-Spin Scale       =       0.3333333333333333 [-]
	 SCS Opposite-Spin Scale   =       1.2000000000000000 [-]
	 SCS Same-Spin Energy      =      -0.2039687491382921 [Eh]
	 SCS Opposite-Spin Energy  =      -2.2550443565118403 [Eh]
	 SCS Correlation Energy    =      -2.4590131056501323 [Eh]
	 SCS Total Energy          =    -551.0776291553650026 [Eh]
	-----------------------------------------------------------

  Dipole Moment: [D]
     X:     0.1373      Y:    -1.7970      Z:     0.0178     Total:     1.8023

*** Psi4 exiting successfully. Buy a developer a beer!
