                               Psi4 1.3.2 release

  ==> Input File <==

--------------------------------------------------------------------------
#psi4
#
memory 32 gb

molecule  {
0 1
  N       -1.5932770    -0.7762670    -0.0000010
  N       -1.2433830     1.4240120     0.0000010
  N        0.9927230    -1.4534560     0.0000030
  C       -0.6561680     0.2207960     0.0000070
  C        0.7646460    -0.1168500     0.0000020
  C        1.7974508     0.8476430    -0.0999980
  C       -2.8387770    -0.2049930    -0.0000090
  C       -2.5875250     1.1588080    -0.0000060
  C        3.1063280     0.3562510    -0.0000040
  C        1.5337640     2.3273650     0.0000030
  C       -4.1038310    -0.9929000     0.0000030
  C        3.3549510    -1.0153620    -0.0000030
  C        2.2635760    -1.8809290    -0.0000010
  H       -1.3380790    -1.7591850     0.0000060
  H       -3.3182890     1.9585790    -0.0000140
  H        3.9358980     1.0613790    -0.0000050
  H        0.9464400     2.6235720    -0.8719580
  H        0.9464450     2.6235710     0.8719680
  H        2.4827640     2.8719440     0.0000020
  H       -4.1845960    -1.6320300    -0.8856740
  H       -4.1845630    -1.6320460     0.8856710
  H       -4.9567250    -0.3101180     0.0000250
  H        4.3696920    -1.4037000    -0.0000080
  H        2.4020820    -2.9609650     0.0000010
units angstrom
no_reorient  #important for SAPT in psi4, default
symmetry c1  #important for SAPT in psi4, default
}

set PROPERTIES_ORIGIN ["COM"]
properties('MP2/aug-cc-pvtz', properties = ['dipole'])
--------------------------------------------------------------------------

    Molecular point group: c1
  Charge       = 0
  Multiplicity = 1
  Basis Set: AUG-CC-PVTZ
    Blend: AUG-CC-PVTZ
  Basis Set: (AUG-CC-PVTZ AUX)
    Blend: AUG-CC-PVTZ-JKFIT

    Orbital Energies [Eh]
    ---------------------

    Doubly Occupied:

       1A    -15.607688     2A    -15.572463     3A    -15.544232
       4A    -11.293393     5A    -11.290154     6A    -11.277532
       7A    -11.265484     8A    -11.257022     9A    -11.253273
      10A    -11.243058    11A    -11.237793    12A    -11.234795
      13A    -11.215463    14A     -1.335251    15A     -1.258006
      16A     -1.160637    17A     -1.097809    18A     -1.072923
      19A     -1.029039    20A     -0.956582    21A     -0.929117
      22A     -0.864702    23A     -0.835508    24A     -0.804766
      25A     -0.778786    26A     -0.727268    27A     -0.676093
      28A     -0.660289    29A     -0.629047    30A     -0.617874
      31A     -0.594268    32A     -0.579311    33A     -0.575117
      34A     -0.565061    35A     -0.561291    36A     -0.552896
      37A     -0.547194    38A     -0.544772    39A     -0.523073
      40A     -0.505677    41A     -0.433318    42A     -0.424235
      43A     -0.394399    44A     -0.385995    45A     -0.354883
      46A     -0.279345

  @DF-RHF Final Energy:  -548.62325127126780

   => Energetics <=

    Nuclear Repulsion Energy =            741.2550446576035483
    One-Electron Energy =               -2214.6628310136306936
    Two-Electron Energy =                 924.7845350847593409
    Total Energy =                       -548.6232512712678044
  Basis Set: (AUG-CC-PVTZ AUX)
    Blend: AUG-CC-PVTZ-RI
    Molecular point group: c1

    Geometry (in Angstrom), charge = 0, multiplicity = 1:

       Center              X                  Y                   Z               Mass
    ------------   -----------------  -----------------  -----------------  -----------------
         N           -1.609860790228    -0.767992911092     0.006931689099    14.003074004430
         N           -1.259966790228     1.432286088908     0.006933689099    14.003074004430
         N            0.976139209772    -1.445181911092     0.006935689099    14.003074004430
         C           -0.672751790228     0.229070088908     0.006939689099    12.000000000000
         C            0.748062209772    -0.108575911092     0.006934689099    12.000000000000
         C            1.780867009772     0.855917088908    -0.093065310901    12.000000000000
         C           -2.855360790228    -0.196718911092     0.006923689099    12.000000000000
         C           -2.604108790228     1.167082088908     0.006926689099    12.000000000000
         C            3.089744209772     0.364525088908     0.006928689099    12.000000000000
         C            1.517180209772     2.335639088908     0.006935689099    12.000000000000
         C           -4.120414790228    -0.984625911092     0.006935689099    12.000000000000
         C            3.338367209772    -1.007087911092     0.006929689099    12.000000000000
         C            2.246992209772    -1.872654911092     0.006931689099    12.000000000000
         H           -1.354662790228    -1.750910911092     0.006938689099     1.007825032230
         H           -3.334872790228     1.966853088908     0.006918689099     1.007825032230
         H            3.919314209772     1.069653088908     0.006927689099     1.007825032230
         H            0.929856209772     2.631846088908    -0.865025310901     1.007825032230
         H            0.929861209772     2.631845088908     0.878900689099     1.007825032230
         H            2.466180209772     2.880218088908     0.006934689099     1.007825032230
         H           -4.201179790228    -1.623755911092    -0.878741310901     1.007825032230
         H           -4.201146790228    -1.623771911092     0.892603689099     1.007825032230
         H           -4.973308790228    -0.301843911092     0.006957689099     1.007825032230
         H            4.353108209772    -1.395425911092     0.006924689099     1.007825032230
         H            2.385498209772    -2.952690911092     0.006933689099     1.007825032230

  Basis Set: AUG-CC-PVTZ
    Blend: AUG-CC-PVTZ
  Basis Set: (AUG-CC-PVTZ AUX)
    Blend: AUG-CC-PVTZ-JKFIT
	 Reference Energy          =    -548.6232512712678044 [Eh]
	 Singles Energy            =      -0.0000000000000000 [Eh]
	 Same-Spin Energy          =      -0.6117447421826693 [Eh]
	 Opposite-Spin Energy      =      -1.8787968430405262 [Eh]
	 Correlation Energy        =      -2.4905415852231956 [Eh]
	 Total Energy              =    -551.1137928564910453 [Eh]

	 ================> DF-SCS-MP2 Energies <==================
	-----------------------------------------------------------
	 SCS Same-Spin Scale       =       0.3333333333333333 [-]
	 SCS Opposite-Spin Scale   =       1.2000000000000000 [-]
	 SCS Same-Spin Energy      =      -0.2039149140608897 [Eh]
	 SCS Opposite-Spin Energy  =      -2.2545562116486315 [Eh]
	 SCS Correlation Energy    =      -2.4584711257095213 [Eh]
	 SCS Total Energy          =    -551.0817223969772840 [Eh]
	-----------------------------------------------------------

  Dipole Moment: [D]
     X:     0.1479      Y:    -1.7732      Z:     0.0114     Total:     1.7794

*** Psi4 exiting successfully. Buy a developer a beer!
