                               Psi4 1.3.2 release

  ==> Input File <==

--------------------------------------------------------------------------
#psi4
#
memory 32 gb

molecule  {
0 1
  N       -1.5932770    -0.7762670    -0.0000010
  N       -1.2433830     1.4240120     0.0000010
  N        0.9927230    -1.4534560     0.0000030
  C       -0.6561680     0.2207960     0.0000070
  C        0.7646462    -0.1168499    -0.1999980
  C        1.7974510     0.8476430     0.0000020
  C       -2.8387770    -0.2049930    -0.0000090
  C       -2.5875250     1.1588080    -0.0000060
  C        3.1063280     0.3562510    -0.0000040
  C        1.5337640     2.3273650     0.0000030
  C       -4.1038310    -0.9929000     0.0000030
  C        3.3549510    -1.0153620    -0.0000030
  C        2.2635760    -1.8809290    -0.0000010
  H       -1.3380790    -1.7591850     0.0000060
  H       -3.3182890     1.9585790    -0.0000140
  H        3.9358980     1.0613790    -0.0000050
  H        0.9464400     2.6235720    -0.8719580
  H        0.9464450     2.6235710     0.8719680
  H        2.4827640     2.8719440     0.0000020
  H       -4.1845960    -1.6320300    -0.8856740
  H       -4.1845630    -1.6320460     0.8856710
  H       -4.9567250    -0.3101180     0.0000250
  H        4.3696920    -1.4037000    -0.0000080
  H        2.4020820    -2.9609650     0.0000010
units angstrom
no_reorient  #important for SAPT in psi4, default
symmetry c1  #important for SAPT in psi4, default
}

set PROPERTIES_ORIGIN ["COM"]
properties('MP2/aug-cc-pvtz', properties = ['dipole'])
--------------------------------------------------------------------------

    Molecular point group: c1
  Charge       = 0
  Multiplicity = 1
  Basis Set: AUG-CC-PVTZ
    Blend: AUG-CC-PVTZ
  Basis Set: (AUG-CC-PVTZ AUX)
    Blend: AUG-CC-PVTZ-JKFIT

    Orbital Energies [Eh]
    ---------------------

    Doubly Occupied:

       1A    -15.606403     2A    -15.575406     3A    -15.542695
       4A    -11.293897     5A    -11.292245     6A    -11.276748
       7A    -11.264356     8A    -11.257091     9A    -11.255751
      10A    -11.245343    11A    -11.237090    12A    -11.233924
      13A    -11.216038    14A     -1.333915    15A     -1.255093
      16A     -1.159508    17A     -1.098194    18A     -1.071374
      19A     -1.028442    20A     -0.956274    21A     -0.928429
      22A     -0.864163    23A     -0.832522    24A     -0.803781
      25A     -0.777481    26A     -0.724645    27A     -0.675131
      28A     -0.659818    29A     -0.629613    30A     -0.615858
      31A     -0.594437    32A     -0.579354    33A     -0.574483
      34A     -0.563905    35A     -0.560751    36A     -0.552062
      37A     -0.547183    38A     -0.543514    39A     -0.522459
      40A     -0.505859    41A     -0.432930    42A     -0.424554
      43A     -0.393624    44A     -0.384772    45A     -0.353680
      46A     -0.278459

  @DF-RHF Final Energy:  -548.61144902485080

   => Energetics <=

    Nuclear Repulsion Energy =            740.7698501650098706
    One-Electron Energy =               -2213.7160877621195141
    Two-Electron Energy =                 924.3347885722589581
    Total Energy =                       -548.6114490248507991
  Basis Set: (AUG-CC-PVTZ AUX)
    Blend: AUG-CC-PVTZ-RI
    Molecular point group: c1

    Geometry (in Angstrom), charge = 0, multiplicity = 1:

       Center              X                  Y                   Z               Mass
    ------------   -----------------  -----------------  -----------------  -----------------
         N           -1.609860817958    -0.767992918025     0.013864286450    14.003074004430
         N           -1.259966817958     1.432286081975     0.013866286450    14.003074004430
         N            0.976139182042    -1.445181918025     0.013868286450    14.003074004430
         C           -0.672751817958     0.229070081975     0.013872286450    12.000000000000
         C            0.748062382042    -0.108575818025    -0.186132713550    12.000000000000
         C            1.780867182042     0.855917081975     0.013867286450    12.000000000000
         C           -2.855360817958    -0.196718918025     0.013856286450    12.000000000000
         C           -2.604108817958     1.167082081975     0.013859286450    12.000000000000
         C            3.089744182042     0.364525081975     0.013861286450    12.000000000000
         C            1.517180182042     2.335639081975     0.013868286450    12.000000000000
         C           -4.120414817958    -0.984625918025     0.013868286450    12.000000000000
         C            3.338367182042    -1.007087918025     0.013862286450    12.000000000000
         C            2.246992182042    -1.872654918025     0.013864286450    12.000000000000
         H           -1.354662817958    -1.750910918025     0.013871286450     1.007825032230
         H           -3.334872817958     1.966853081975     0.013851286450     1.007825032230
         H            3.919314182042     1.069653081975     0.013860286450     1.007825032230
         H            0.929856182042     2.631846081975    -0.858092713550     1.007825032230
         H            0.929861182042     2.631845081975     0.885833286450     1.007825032230
         H            2.466180182042     2.880218081975     0.013867286450     1.007825032230
         H           -4.201179817958    -1.623755918025    -0.871808713550     1.007825032230
         H           -4.201146817958    -1.623771918025     0.899536286450     1.007825032230
         H           -4.973308817958    -0.301843918025     0.013890286450     1.007825032230
         H            4.353108182042    -1.395425918025     0.013857286450     1.007825032230
         H            2.385498182042    -2.952690918025     0.013866286450     1.007825032230

  Basis Set: AUG-CC-PVTZ
    Blend: AUG-CC-PVTZ
  Basis Set: (AUG-CC-PVTZ AUX)
    Blend: AUG-CC-PVTZ-JKFIT
	 Reference Energy          =    -548.6114490248507991 [Eh]
	 Singles Energy            =      -0.0000000000000000 [Eh]
	 Same-Spin Energy          =      -0.6123797025068516 [Eh]
	 Opposite-Spin Energy      =      -1.8802795334017790 [Eh]
	 Correlation Energy        =      -2.4926592359086306 [Eh]
	 Total Energy              =    -551.1041082607594035 [Eh]

	 ================> DF-SCS-MP2 Energies <==================
	-----------------------------------------------------------
	 SCS Same-Spin Scale       =       0.3333333333333333 [-]
	 SCS Opposite-Spin Scale   =       1.2000000000000000 [-]
	 SCS Same-Spin Energy      =      -0.2041265675022839 [Eh]
	 SCS Opposite-Spin Energy  =      -2.2563354400821347 [Eh]
	 SCS Correlation Energy    =      -2.4604620075844186 [Eh]
	 SCS Total Energy          =    -551.0719110324351959 [Eh]
	-----------------------------------------------------------

  Dipole Moment: [D]
     X:     0.2425      Y:    -1.7597      Z:    -0.0774     Total:     1.7780

*** Psi4 exiting successfully. Buy a developer a beer!
