                               Psi4 1.3.2 release

  ==> Input File <==

--------------------------------------------------------------------------
#psi4
#
memory 32 gb

molecule  {
0 1
  N       -1.5932770    -0.7762670    -0.0000010
  N       -1.2433830     1.4240120     0.0000010
  N        0.9927230    -1.4534560     0.0000030
  C       -0.6561680     0.2207960     0.0000070
  C        0.7646461    -0.1168499    -0.0999980
  C        1.7974510     0.8476430     0.0000020
  C       -2.8387770    -0.2049930    -0.0000090
  C       -2.5875250     1.1588080    -0.0000060
  C        3.1063280     0.3562510    -0.0000040
  C        1.5337640     2.3273650     0.0000030
  C       -4.1038310    -0.9929000     0.0000030
  C        3.3549510    -1.0153620    -0.0000030
  C        2.2635760    -1.8809290    -0.0000010
  H       -1.3380790    -1.7591850     0.0000060
  H       -3.3182890     1.9585790    -0.0000140
  H        3.9358980     1.0613790    -0.0000050
  H        0.9464400     2.6235720    -0.8719580
  H        0.9464450     2.6235710     0.8719680
  H        2.4827640     2.8719440     0.0000020
  H       -4.1845960    -1.6320300    -0.8856740
  H       -4.1845630    -1.6320460     0.8856710
  H       -4.9567250    -0.3101180     0.0000250
  H        4.3696920    -1.4037000    -0.0000080
  H        2.4020820    -2.9609650     0.0000010
units angstrom
no_reorient  #important for SAPT in psi4, default
symmetry c1  #important for SAPT in psi4, default
}

set PROPERTIES_ORIGIN ["COM"]
properties('MP2/aug-cc-pvtz', properties = ['dipole'])
--------------------------------------------------------------------------

    Molecular point group: c1
  Charge       = 0
  Multiplicity = 1
  Basis Set: AUG-CC-PVTZ
    Blend: AUG-CC-PVTZ
  Basis Set: (AUG-CC-PVTZ AUX)
    Blend: AUG-CC-PVTZ-JKFIT

    Orbital Energies [Eh]
    ---------------------

    Doubly Occupied:

       1A    -15.607262     2A    -15.573338     3A    -15.543723
       4A    -11.293495     5A    -11.290127     6A    -11.277020
       7A    -11.265082     8A    -11.256318     9A    -11.253620
      10A    -11.243778    11A    -11.237547    12A    -11.234489
      13A    -11.215629    14A     -1.334836    15A     -1.257326
      16A     -1.160286    17A     -1.098461    18A     -1.072591
      19A     -1.028925    20A     -0.956744    21A     -0.929126
      22A     -0.864840    23A     -0.835014    24A     -0.804512
      25A     -0.778473    26A     -0.726556    27A     -0.675977
      28A     -0.660588    29A     -0.629115    30A     -0.617359
      31A     -0.594296    32A     -0.579590    33A     -0.575007
      34A     -0.564634    35A     -0.561143    36A     -0.552364
      37A     -0.548046    38A     -0.544562    39A     -0.522700
      40A     -0.507217    41A     -0.433250    42A     -0.424332
      43A     -0.394236    44A     -0.386035    45A     -0.354737
      46A     -0.279010

  @DF-RHF Final Energy:  -548.62308048590262

   => Energetics <=

    Nuclear Repulsion Energy =            741.2337737473646939
    One-Electron Energy =               -2214.6270796760668418
    Two-Electron Energy =                 924.7702254427995285
    Total Energy =                       -548.6230804859026193
  Basis Set: (AUG-CC-PVTZ AUX)
    Blend: AUG-CC-PVTZ-RI
    Molecular point group: c1

    Geometry (in Angstrom), charge = 0, multiplicity = 1:

       Center              X                  Y                   Z               Mass
    ------------   -----------------  -----------------  -----------------  -----------------
         N           -1.609860811026    -0.767992918025     0.006931689099    14.003074004430
         N           -1.259966811026     1.432286081975     0.006933689099    14.003074004430
         N            0.976139188974    -1.445181918025     0.006935689099    14.003074004430
         C           -0.672751811026     0.229070081975     0.006939689099    12.000000000000
         C            0.748062288974    -0.108575818025    -0.093065310901    12.000000000000
         C            1.780867188974     0.855917081975     0.006934689099    12.000000000000
         C           -2.855360811026    -0.196718918025     0.006923689099    12.000000000000
         C           -2.604108811026     1.167082081975     0.006926689099    12.000000000000
         C            3.089744188974     0.364525081975     0.006928689099    12.000000000000
         C            1.517180188974     2.335639081975     0.006935689099    12.000000000000
         C           -4.120414811026    -0.984625918025     0.006935689099    12.000000000000
         C            3.338367188974    -1.007087918025     0.006929689099    12.000000000000
         C            2.246992188974    -1.872654918025     0.006931689099    12.000000000000
         H           -1.354662811026    -1.750910918025     0.006938689099     1.007825032230
         H           -3.334872811026     1.966853081975     0.006918689099     1.007825032230
         H            3.919314188974     1.069653081975     0.006927689099     1.007825032230
         H            0.929856188974     2.631846081975    -0.865025310901     1.007825032230
         H            0.929861188974     2.631845081975     0.878900689099     1.007825032230
         H            2.466180188974     2.880218081975     0.006934689099     1.007825032230
         H           -4.201179811026    -1.623755918025    -0.878741310901     1.007825032230
         H           -4.201146811026    -1.623771918025     0.892603689099     1.007825032230
         H           -4.973308811026    -0.301843918025     0.006957689099     1.007825032230
         H            4.353108188974    -1.395425918025     0.006924689099     1.007825032230
         H            2.385498188974    -2.952690918025     0.006933689099     1.007825032230

  Basis Set: AUG-CC-PVTZ
    Blend: AUG-CC-PVTZ
  Basis Set: (AUG-CC-PVTZ AUX)
    Blend: AUG-CC-PVTZ-JKFIT
	 Reference Energy          =    -548.6230804859026193 [Eh]
	 Singles Energy            =      -0.0000000000000000 [Eh]
	 Same-Spin Energy          =      -0.6118065207278651 [Eh]
	 Opposite-Spin Energy      =      -1.8788776616066807 [Eh]
	 Correlation Energy        =      -2.4906841823345456 [Eh]
	 Total Energy              =    -551.1137646682371951 [Eh]

	 ================> DF-SCS-MP2 Energies <==================
	-----------------------------------------------------------
	 SCS Same-Spin Scale       =       0.3333333333333333 [-]
	 SCS Opposite-Spin Scale   =       1.2000000000000000 [-]
	 SCS Same-Spin Energy      =      -0.2039355069092884 [Eh]
	 SCS Opposite-Spin Energy  =      -2.2546531939280166 [Eh]
	 SCS Correlation Energy    =      -2.4585887008373049 [Eh]
	 SCS Total Energy          =    -551.0816691867398731 [Eh]
	-----------------------------------------------------------

  Dipole Moment: [D]
     X:     0.1778      Y:    -1.7554      Z:    -0.0403     Total:     1.7649

*** Psi4 exiting successfully. Buy a developer a beer!
