                               Psi4 1.3.2 release

  ==> Input File <==

--------------------------------------------------------------------------
#psi4
#
memory 32 gb

molecule  {
0 1
  N       -1.5932770    -0.7762670    -0.0000010
  N       -1.2433830     1.4240120     0.0000010
  N        0.9927230    -1.4534560     0.0000030
  C       -0.6561680     0.2207960     0.0000070
  C        0.7646460    -0.1168500     0.0000020
  C        1.7974510     0.8476430     0.0000020
  C       -2.8387770    -0.2049930    -0.0000090
  C       -2.5875250     1.1588080    -0.0000060
  C        3.1063280     0.3562510    -0.0000040
  C        1.5337640     2.3273650     0.0000030
  C       -4.1038307    -0.9928992     0.2500030
  C        3.3549510    -1.0153620    -0.0000030
  C        2.2635760    -1.8809290    -0.0000010
  H       -1.3380790    -1.7591850     0.0000060
  H       -3.3182890     1.9585790    -0.0000140
  H        3.9358980     1.0613790    -0.0000050
  H        0.9464400     2.6235720    -0.8719580
  H        0.9464450     2.6235710     0.8719680
  H        2.4827640     2.8719440     0.0000020
  H       -4.1845960    -1.6320300    -0.8856740
  H       -4.1845630    -1.6320460     0.8856710
  H       -4.9567250    -0.3101180     0.0000250
  H        4.3696920    -1.4037000    -0.0000080
  H        2.4020820    -2.9609650     0.0000010
units angstrom
no_reorient  #important for SAPT in psi4, default
symmetry c1  #important for SAPT in psi4, default
}

set PROPERTIES_ORIGIN ["COM"]
properties('MP2/aug-cc-pvtz', properties = ['dipole'])
--------------------------------------------------------------------------

    Molecular point group: c1
  Charge       = 0
  Multiplicity = 1
  Basis Set: AUG-CC-PVTZ
    Blend: AUG-CC-PVTZ
  Basis Set: (AUG-CC-PVTZ AUX)
    Blend: AUG-CC-PVTZ-JKFIT

    Orbital Energies [Eh]
    ---------------------

    Doubly Occupied:

       1A    -15.607931     2A    -15.573227     3A    -15.545250
       4A    -11.294659     5A    -11.289912     6A    -11.277583
       7A    -11.270038     8A    -11.256797     9A    -11.253299
      10A    -11.246757    11A    -11.243850    12A    -11.236546
      13A    -11.216055    14A     -1.336130    15A     -1.258657
      16A     -1.161429    17A     -1.099117    18A     -1.073536
      19A     -1.030079    20A     -0.959926    21A     -0.933234
      22A     -0.867833    23A     -0.836476    24A     -0.805954
      25A     -0.779625    26A     -0.733316    27A     -0.680325
      28A     -0.669928    29A     -0.643654    30A     -0.617120
      31A     -0.603398    32A     -0.591342    33A     -0.574448
      34A     -0.569156    35A     -0.565181    36A     -0.548562
      37A     -0.544733    38A     -0.525815    39A     -0.508355
      40A     -0.491077    41A     -0.433774    42A     -0.424761
      43A     -0.394302    44A     -0.386570    45A     -0.354951
      46A     -0.278626

  @DF-RHF Final Energy:  -548.56145757999229

   => Energetics <=

    Nuclear Repulsion Energy =            741.1526306261839636
    One-Electron Energy =               -2214.2415933530728580
    Two-Electron Energy =                 924.5275051468966012
    Total Energy =                       -548.5614575799922932
  Basis Set: (AUG-CC-PVTZ AUX)
    Blend: AUG-CC-PVTZ-RI
    Molecular point group: c1

    Geometry (in Angstrom), charge = 0, multiplicity = 1:

       Center              X                  Y                   Z               Mass
    ------------   -----------------  -----------------  -----------------  -----------------
         N           -1.609860824891    -0.767992966553    -0.017332401629    14.003074004430
         N           -1.259966824891     1.432286033447    -0.017330401629    14.003074004430
         N            0.976139175109    -1.445181966553    -0.017328401629    14.003074004430
         C           -0.672751824891     0.229070033447    -0.017324401629    12.000000000000
         C            0.748062175109    -0.108575966553    -0.017329401629    12.000000000000
         C            1.780867175109     0.855917033447    -0.017329401629    12.000000000000
         C           -2.855360824891    -0.196718966553    -0.017340401629    12.000000000000
         C           -2.604108824891     1.167082033447    -0.017337401629    12.000000000000
         C            3.089744175109     0.364525033447    -0.017335401629    12.000000000000
         C            1.517180175109     2.335639033447    -0.017328401629    12.000000000000
         C           -4.120414524891    -0.984625166553     0.232671598371    12.000000000000
         C            3.338367175109    -1.007087966553    -0.017334401629    12.000000000000
         C            2.246992175109    -1.872654966553    -0.017332401629    12.000000000000
         H           -1.354662824891    -1.750910966553    -0.017325401629     1.007825032230
         H           -3.334872824891     1.966853033447    -0.017345401629     1.007825032230
         H            3.919314175109     1.069653033447    -0.017336401629     1.007825032230
         H            0.929856175109     2.631846033447    -0.889289401629     1.007825032230
         H            0.929861175109     2.631845033447     0.854636598371     1.007825032230
         H            2.466180175109     2.880218033447    -0.017329401629     1.007825032230
         H           -4.201179824891    -1.623755966553    -0.903005401629     1.007825032230
         H           -4.201146824891    -1.623771966553     0.868339598371     1.007825032230
         H           -4.973308824891    -0.301843966553    -0.017306401629     1.007825032230
         H            4.353108175109    -1.395425966553    -0.017339401629     1.007825032230
         H            2.385498175109    -2.952690966553    -0.017330401629     1.007825032230

  Basis Set: AUG-CC-PVTZ
    Blend: AUG-CC-PVTZ
  Basis Set: (AUG-CC-PVTZ AUX)
    Blend: AUG-CC-PVTZ-JKFIT
	 Reference Energy          =    -548.5614575799922932 [Eh]
	 Singles Energy            =      -0.0000000000000000 [Eh]
	 Same-Spin Energy          =      -0.6123757867190988 [Eh]
	 Opposite-Spin Energy      =      -1.8812236130226103 [Eh]
	 Correlation Energy        =      -2.4935993997417092 [Eh]
	 Total Energy              =    -551.0550569797339904 [Eh]

	 ================> DF-SCS-MP2 Energies <==================
	-----------------------------------------------------------
	 SCS Same-Spin Scale       =       0.3333333333333333 [-]
	 SCS Opposite-Spin Scale   =       1.2000000000000000 [-]
	 SCS Same-Spin Energy      =      -0.2041252622396996 [Eh]
	 SCS Opposite-Spin Energy  =      -2.2574683356271321 [Eh]
	 SCS Correlation Energy    =      -2.4615935978668317 [Eh]
	 SCS Total Energy          =    -551.0230511778590881 [Eh]
	-----------------------------------------------------------

  Dipole Moment: [D]
     X:     0.2536      Y:    -1.6551      Z:     0.1536     Total:     1.6814

*** Psi4 exiting successfully. Buy a developer a beer!
