                               Psi4 1.3.2 release

  ==> Input File <==

--------------------------------------------------------------------------
#psi4
#
memory 32 gb

molecule  {
0 1
  N       -1.5932770    -0.7762670    -0.0000010
  N       -1.2433830     1.4240120     0.0000010
  N        0.9927230    -1.4534560     0.0000030
  C       -0.6561680     0.2207960     0.0000070
  C        0.7646460    -0.1168500     0.0000020
  C        1.7974510     0.8476430     0.0000020
  C       -2.8387770    -0.2049930    -0.0000090
  C       -2.5875250     1.1588080    -0.0000060
  C        3.1063280     0.3562510    -0.0000040
  C        1.5337640     2.3273650     0.0000030
  C       -4.1038307    -0.9928993     0.2000030
  C        3.3549510    -1.0153620    -0.0000030
  C        2.2635760    -1.8809290    -0.0000010
  H       -1.3380790    -1.7591850     0.0000060
  H       -3.3182890     1.9585790    -0.0000140
  H        3.9358980     1.0613790    -0.0000050
  H        0.9464400     2.6235720    -0.8719580
  H        0.9464450     2.6235710     0.8719680
  H        2.4827640     2.8719440     0.0000020
  H       -4.1845960    -1.6320300    -0.8856740
  H       -4.1845630    -1.6320460     0.8856710
  H       -4.9567250    -0.3101180     0.0000250
  H        4.3696920    -1.4037000    -0.0000080
  H        2.4020820    -2.9609650     0.0000010
units angstrom
no_reorient  #important for SAPT in psi4, default
symmetry c1  #important for SAPT in psi4, default
}

set PROPERTIES_ORIGIN ["COM"]
properties('MP2/aug-cc-pvtz', properties = ['dipole'])
--------------------------------------------------------------------------

    Molecular point group: c1
  Charge       = 0
  Multiplicity = 1
  Basis Set: AUG-CC-PVTZ
    Blend: AUG-CC-PVTZ
  Basis Set: (AUG-CC-PVTZ AUX)
    Blend: AUG-CC-PVTZ-JKFIT

    Orbital Energies [Eh]
    ---------------------

    Doubly Occupied:

       1A    -15.607793     2A    -15.573018     3A    -15.544831
       4A    -11.294198     5A    -11.289720     6A    -11.277420
       7A    -11.268372     8A    -11.256623     9A    -11.253076
      10A    -11.243648    11A    -11.243506    12A    -11.235887
      13A    -11.215859    14A     -1.335781    15A     -1.258456
      16A     -1.161116    17A     -1.098923    18A     -1.073344
      19A     -1.029676    20A     -0.958722    21A     -0.931856
      22A     -0.866859    23A     -0.836265    24A     -0.805521
      25A     -0.779309    26A     -0.730883    27A     -0.678316
      28A     -0.666860    29A     -0.640673    30A     -0.617250
      31A     -0.600445    32A     -0.590828    33A     -0.574627
      34A     -0.568712    35A     -0.564796    36A     -0.548406
      37A     -0.546917    38A     -0.526243    39A     -0.508428
      40A     -0.502102    41A     -0.433653    42A     -0.424577
      43A     -0.394343    44A     -0.386575    45A     -0.355022
      46A     -0.278849

  @DF-RHF Final Energy:  -548.58540373897540

   => Energetics <=

    Nuclear Repulsion Energy =            741.2374084786914636
    One-Electron Energy =               -2214.4890651794530640
    Two-Electron Energy =                 924.6662529617860855
    Total Energy =                       -548.5854037389754012
  Basis Set: (AUG-CC-PVTZ AUX)
    Blend: AUG-CC-PVTZ-RI
    Molecular point group: c1

    Geometry (in Angstrom), charge = 0, multiplicity = 1:

       Center              X                  Y                   Z               Mass
    ------------   -----------------  -----------------  -----------------  -----------------
         N           -1.609860824891    -0.767992959621    -0.013866102954    14.003074004430
         N           -1.259966824891     1.432286040379    -0.013864102954    14.003074004430
         N            0.976139175109    -1.445181959621    -0.013862102954    14.003074004430
         C           -0.672751824891     0.229070040379    -0.013858102954    12.000000000000
         C            0.748062175109    -0.108575959621    -0.013863102954    12.000000000000
         C            1.780867175109     0.855917040379    -0.013863102954    12.000000000000
         C           -2.855360824891    -0.196718959621    -0.013874102954    12.000000000000
         C           -2.604108824891     1.167082040379    -0.013871102954    12.000000000000
         C            3.089744175109     0.364525040379    -0.013869102954    12.000000000000
         C            1.517180175109     2.335639040379    -0.013862102954    12.000000000000
         C           -4.120414524891    -0.984625259621     0.186137897046    12.000000000000
         C            3.338367175109    -1.007087959621    -0.013868102954    12.000000000000
         C            2.246992175109    -1.872654959621    -0.013866102954    12.000000000000
         H           -1.354662824891    -1.750910959621    -0.013859102954     1.007825032230
         H           -3.334872824891     1.966853040379    -0.013879102954     1.007825032230
         H            3.919314175109     1.069653040379    -0.013870102954     1.007825032230
         H            0.929856175109     2.631846040379    -0.885823102954     1.007825032230
         H            0.929861175109     2.631845040379     0.858102897046     1.007825032230
         H            2.466180175109     2.880218040379    -0.013863102954     1.007825032230
         H           -4.201179824891    -1.623755959621    -0.899539102954     1.007825032230
         H           -4.201146824891    -1.623771959621     0.871805897046     1.007825032230
         H           -4.973308824891    -0.301843959621    -0.013840102954     1.007825032230
         H            4.353108175109    -1.395425959621    -0.013873102954     1.007825032230
         H            2.385498175109    -2.952690959621    -0.013864102954     1.007825032230

  Basis Set: AUG-CC-PVTZ
    Blend: AUG-CC-PVTZ
  Basis Set: (AUG-CC-PVTZ AUX)
    Blend: AUG-CC-PVTZ-JKFIT
	 Reference Energy          =    -548.5854037389754012 [Eh]
	 Singles Energy            =      -0.0000000000000000 [Eh]
	 Same-Spin Energy          =      -0.6120987459343222 [Eh]
	 Opposite-Spin Energy      =      -1.8802215793889054 [Eh]
	 Correlation Energy        =      -2.4923203253232278 [Eh]
	 Total Energy              =    -551.0777240642986499 [Eh]

	 ================> DF-SCS-MP2 Energies <==================
	-----------------------------------------------------------
	 SCS Same-Spin Scale       =       0.3333333333333333 [-]
	 SCS Opposite-Spin Scale   =       1.2000000000000000 [-]
	 SCS Same-Spin Energy      =      -0.2040329153114407 [Eh]
	 SCS Opposite-Spin Energy  =      -2.2562658952666865 [Eh]
	 SCS Correlation Energy    =      -2.4602988105781272 [Eh]
	 SCS Total Energy          =    -551.0457025495535390 [Eh]
	-----------------------------------------------------------

  Dipole Moment: [D]
     X:     0.2194      Y:    -1.6883      Z:     0.1280     Total:     1.7073

*** Psi4 exiting successfully. Buy a developer a beer!
