                               Psi4 1.3.2 release

  ==> Input File <==

--------------------------------------------------------------------------
#psi4
#
memory 32 gb

molecule  {
0 1
  N       -1.5932770    -0.7762670    -0.0000010
  N       -1.2433830     1.4240120     0.0000010
  N        0.9927230    -1.4534560     0.0000030
  C       -0.6561680     0.2207960     0.0000070
  C        0.7646460    -0.1168500     0.0000020
  C        1.7974510     0.8476430     0.0000020
  C       -2.8387770    -0.2049930    -0.0000090
  C       -2.5875250     1.1588080    -0.0000060
  C        3.1063280     0.3562510    -0.0000040
  C        1.5337640     2.3273650     0.0000030
  C       -4.1038308    -0.9928995     0.1500030
  C        3.3549510    -1.0153620    -0.0000030
  C        2.2635760    -1.8809290    -0.0000010
  H       -1.3380790    -1.7591850     0.0000060
  H       -3.3182890     1.9585790    -0.0000140
  H        3.9358980     1.0613790    -0.0000050
  H        0.9464400     2.6235720    -0.8719580
  H        0.9464450     2.6235710     0.8719680
  H        2.4827640     2.8719440     0.0000020
  H       -4.1845960    -1.6320300    -0.8856740
  H       -4.1845630    -1.6320460     0.8856710
  H       -4.9567250    -0.3101180     0.0000250
  H        4.3696920    -1.4037000    -0.0000080
  H        2.4020820    -2.9609650     0.0000010
units angstrom
no_reorient  #important for SAPT in psi4, default
symmetry c1  #important for SAPT in psi4, default
}

set PROPERTIES_ORIGIN ["COM"]
properties('MP2/aug-cc-pvtz', properties = ['dipole'])
--------------------------------------------------------------------------

    Molecular point group: c1
  Charge       = 0
  Multiplicity = 1
  Basis Set: AUG-CC-PVTZ
    Blend: AUG-CC-PVTZ
  Basis Set: (AUG-CC-PVTZ AUX)
    Blend: AUG-CC-PVTZ-JKFIT

    Orbital Energies [Eh]
    ---------------------

    Doubly Occupied:

       1A    -15.607686     2A    -15.572852     3A    -15.544499
       4A    -11.293832     5A    -11.289568     6A    -11.277290
       7A    -11.267051     8A    -11.256485     9A    -11.252899
      10A    -11.243487    11A    -11.240968    12A    -11.235363
      13A    -11.215702    14A     -1.335504    15A     -1.258296
      16A     -1.160868    17A     -1.098769    18A     -1.073194
      19A     -1.029399    20A     -0.957877    21A     -0.930765
      22A     -0.866085    23A     -0.836097    24A     -0.805184
      25A     -0.779081    26A     -0.729154    27A     -0.677233
      28A     -0.664046    29A     -0.636747    30A     -0.617416
      31A     -0.597314    32A     -0.589458    33A     -0.574804
      34A     -0.568110    35A     -0.564461    36A     -0.548859
      37A     -0.548067    38A     -0.527578    39A     -0.513639
      40A     -0.507529    41A     -0.433538    42A     -0.424427
      43A     -0.394382    44A     -0.386552    45A     -0.355064
      46A     -0.279010

  @DF-RHF Final Energy:  -548.60376266478795

   => Energetics <=

    Nuclear Repulsion Energy =            741.3039079606313635
    One-Electron Energy =               -2214.6829691439729686
    Two-Electron Energy =                 924.7752985185535408
    Total Energy =                       -548.6037626647879506
  Basis Set: (AUG-CC-PVTZ AUX)
    Blend: AUG-CC-PVTZ-RI
    Molecular point group: c1

    Geometry (in Angstrom), charge = 0, multiplicity = 1:

       Center              X                  Y                   Z               Mass
    ------------   -----------------  -----------------  -----------------  -----------------
         N           -1.609860817958    -0.767992945755    -0.010399804278    14.003074004430
         N           -1.259966817958     1.432286054245    -0.010397804278    14.003074004430
         N            0.976139182042    -1.445181945755    -0.010395804278    14.003074004430
         C           -0.672751817958     0.229070054245    -0.010391804278    12.000000000000
         C            0.748062182042    -0.108575945755    -0.010396804278    12.000000000000
         C            1.780867182042     0.855917054245    -0.010396804278    12.000000000000
         C           -2.855360817958    -0.196718945755    -0.010407804278    12.000000000000
         C           -2.604108817958     1.167082054245    -0.010404804278    12.000000000000
         C            3.089744182042     0.364525054245    -0.010402804278    12.000000000000
         C            1.517180182042     2.335639054245    -0.010395804278    12.000000000000
         C           -4.120414617958    -0.984625445755     0.139604195722    12.000000000000
         C            3.338367182042    -1.007087945755    -0.010401804278    12.000000000000
         C            2.246992182042    -1.872654945755    -0.010399804278    12.000000000000
         H           -1.354662817958    -1.750910945755    -0.010392804278     1.007825032230
         H           -3.334872817958     1.966853054245    -0.010412804278     1.007825032230
         H            3.919314182042     1.069653054245    -0.010403804278     1.007825032230
         H            0.929856182042     2.631846054245    -0.882356804278     1.007825032230
         H            0.929861182042     2.631845054245     0.861569195722     1.007825032230
         H            2.466180182042     2.880218054245    -0.010396804278     1.007825032230
         H           -4.201179817958    -1.623755945755    -0.896072804278     1.007825032230
         H           -4.201146817958    -1.623771945755     0.875272195722     1.007825032230
         H           -4.973308817958    -0.301843945755    -0.010373804278     1.007825032230
         H            4.353108182042    -1.395425945755    -0.010406804278     1.007825032230
         H            2.385498182042    -2.952690945755    -0.010397804278     1.007825032230

  Basis Set: AUG-CC-PVTZ
    Blend: AUG-CC-PVTZ
  Basis Set: (AUG-CC-PVTZ AUX)
    Blend: AUG-CC-PVTZ-JKFIT
	 Reference Energy          =    -548.6037626647879506 [Eh]
	 Singles Energy            =      -0.0000000000000000 [Eh]
	 Same-Spin Energy          =      -0.6118865559570170 [Eh]
	 Opposite-Spin Energy      =      -1.8794770776662046 [Eh]
	 Correlation Energy        =      -2.4913636336232217 [Eh]
	 Total Energy              =    -551.0951262984111736 [Eh]

	 ================> DF-SCS-MP2 Energies <==================
	-----------------------------------------------------------
	 SCS Same-Spin Scale       =       0.3333333333333333 [-]
	 SCS Opposite-Spin Scale   =       1.2000000000000000 [-]
	 SCS Same-Spin Energy      =      -0.2039621853190057 [Eh]
	 SCS Opposite-Spin Energy  =      -2.2553724931994457 [Eh]
	 SCS Correlation Energy    =      -2.4593346785184513 [Eh]
	 SCS Total Energy          =    -551.0630973433063673 [Eh]
	-----------------------------------------------------------

  Dipole Moment: [D]
     X:     0.1921      Y:    -1.7160      Z:     0.0988     Total:     1.7295

*** Psi4 exiting successfully. Buy a developer a beer!
