                               Psi4 1.3.2 release

  ==> Input File <==

--------------------------------------------------------------------------
#psi4
#
memory 32 gb

molecule  {
0 1
  N       -1.5932770    -0.7762670    -0.0000010
  N       -1.2433830     1.4240120     0.0000010
  N        0.9927230    -1.4534560     0.0000030
  C       -0.6561680     0.2207960     0.0000070
  C        0.7646463    -0.1168498    -0.2499980
  C        1.7974510     0.8476430     0.0000020
  C       -2.8387770    -0.2049930    -0.0000090
  C       -2.5875250     1.1588080    -0.0000060
  C        3.1063280     0.3562510    -0.0000040
  C        1.5337640     2.3273650     0.0000030
  C       -4.1038310    -0.9929000     0.0000030
  C        3.3549510    -1.0153620    -0.0000030
  C        2.2635760    -1.8809290    -0.0000010
  H       -1.3380790    -1.7591850     0.0000060
  H       -3.3182890     1.9585790    -0.0000140
  H        3.9358980     1.0613790    -0.0000050
  H        0.9464400     2.6235720    -0.8719580
  H        0.9464450     2.6235710     0.8719680
  H        2.4827640     2.8719440     0.0000020
  H       -4.1845960    -1.6320300    -0.8856740
  H       -4.1845630    -1.6320460     0.8856710
  H       -4.9567250    -0.3101180     0.0000250
  H        4.3696920    -1.4037000    -0.0000080
  H        2.4020820    -2.9609650     0.0000010
units angstrom
no_reorient  #important for SAPT in psi4, default
symmetry c1  #important for SAPT in psi4, default
}

set PROPERTIES_ORIGIN ["COM"]
properties('MP2/aug-cc-pvtz', properties = ['dipole'])
--------------------------------------------------------------------------

    Molecular point group: c1
  Charge       = 0
  Multiplicity = 1
  Basis Set: AUG-CC-PVTZ
    Blend: AUG-CC-PVTZ
  Basis Set: (AUG-CC-PVTZ AUX)
    Blend: AUG-CC-PVTZ-JKFIT

    Orbital Energies [Eh]
    ---------------------

    Doubly Occupied:

       1A    -15.605757     2A    -15.576912     3A    -15.541926
       4A    -11.294308     5A    -11.293543     6A    -11.276570
       7A    -11.263805     8A    -11.259022     9A    -11.255992
      10A    -11.246569    11A    -11.236742    12A    -11.233491
      13A    -11.216354    14A     -1.333219    15A     -1.253462
      16A     -1.158919    17A     -1.098040    18A     -1.070470
      19A     -1.028084    20A     -0.955924    21A     -0.927917
      22A     -0.863687    23A     -0.830751    24A     -0.803222
      25A     -0.776760    26A     -0.723252    27A     -0.674568
      28A     -0.659176    29A     -0.629938    30A     -0.614847
      31A     -0.594474    32A     -0.579266    33A     -0.574081
      34A     -0.563352    35A     -0.560456    36A     -0.551778
      37A     -0.546705    38A     -0.542652    39A     -0.522352
      40A     -0.504699    41A     -0.432716    42A     -0.424626
      43A     -0.393159    44A     -0.383912    45A     -0.352921
      46A     -0.278064

  @DF-RHF Final Energy:  -548.60273427150719

   => Energetics <=

    Nuclear Repulsion Energy =            740.4272167618513549
    One-Electron Energy =               -2213.0430272466919632
    Two-Electron Energy =                 924.0130762133333064
    Total Energy =                       -548.6027342715071882
  Basis Set: (AUG-CC-PVTZ AUX)
    Blend: AUG-CC-PVTZ-RI
    Molecular point group: c1

    Geometry (in Angstrom), charge = 0, multiplicity = 1:

       Center              X                  Y                   Z               Mass
    ------------   -----------------  -----------------  -----------------  -----------------
         N           -1.609860824891    -0.767992924958     0.017330585126    14.003074004430
         N           -1.259966824891     1.432286075042     0.017332585126    14.003074004430
         N            0.976139175109    -1.445181924958     0.017334585126    14.003074004430
         C           -0.672751824891     0.229070075042     0.017338585126    12.000000000000
         C            0.748062475109    -0.108575724958    -0.232666414874    12.000000000000
         C            1.780867175109     0.855917075042     0.017333585126    12.000000000000
         C           -2.855360824891    -0.196718924958     0.017322585126    12.000000000000
         C           -2.604108824891     1.167082075042     0.017325585126    12.000000000000
         C            3.089744175109     0.364525075042     0.017327585126    12.000000000000
         C            1.517180175109     2.335639075042     0.017334585126    12.000000000000
         C           -4.120414824891    -0.984625924958     0.017334585126    12.000000000000
         C            3.338367175109    -1.007087924958     0.017328585126    12.000000000000
         C            2.246992175109    -1.872654924958     0.017330585126    12.000000000000
         H           -1.354662824891    -1.750910924958     0.017337585126     1.007825032230
         H           -3.334872824891     1.966853075042     0.017317585126     1.007825032230
         H            3.919314175109     1.069653075042     0.017326585126     1.007825032230
         H            0.929856175109     2.631846075042    -0.854626414874     1.007825032230
         H            0.929861175109     2.631845075042     0.889299585126     1.007825032230
         H            2.466180175109     2.880218075042     0.017333585126     1.007825032230
         H           -4.201179824891    -1.623755924958    -0.868342414874     1.007825032230
         H           -4.201146824891    -1.623771924958     0.903002585126     1.007825032230
         H           -4.973308824891    -0.301843924958     0.017356585126     1.007825032230
         H            4.353108175109    -1.395425924958     0.017323585126     1.007825032230
         H            2.385498175109    -2.952690924958     0.017332585126     1.007825032230

  Basis Set: AUG-CC-PVTZ
    Blend: AUG-CC-PVTZ
  Basis Set: (AUG-CC-PVTZ AUX)
    Blend: AUG-CC-PVTZ-JKFIT
	 Reference Energy          =    -548.6027342715071882 [Eh]
	 Singles Energy            =      -0.0000000000000000 [Eh]
	 Same-Spin Energy          =      -0.6128045555908551 [Eh]
	 Opposite-Spin Energy      =      -1.8814257722757031 [Eh]
	 Correlation Energy        =      -2.4942303278665583 [Eh]
	 Total Energy              =    -551.0969645993737913 [Eh]

	 ================> DF-SCS-MP2 Energies <==================
	-----------------------------------------------------------
	 SCS Same-Spin Scale       =       0.3333333333333333 [-]
	 SCS Opposite-Spin Scale   =       1.2000000000000000 [-]
	 SCS Same-Spin Energy      =      -0.2042681851969517 [Eh]
	 SCS Opposite-Spin Energy  =      -2.2577109267308435 [Eh]
	 SCS Correlation Energy    =      -2.4619791119277954 [Eh]
	 SCS Total Energy          =    -551.0647133834349916 [Eh]
	-----------------------------------------------------------

  Dipole Moment: [D]
     X:     0.2905      Y:    -1.7630      Z:    -0.0940     Total:     1.7893

*** Psi4 exiting successfully. Buy a developer a beer!
