                               Psi4 1.3.2 release

  ==> Input File <==

--------------------------------------------------------------------------
#psi4
#
memory 32 gb

molecule  {
0 1
  N       -1.5932770    -0.7762670    -0.0000010
  N       -1.2433830     1.4240120     0.0000010
  N        0.9927230    -1.4534560     0.0000030
  C       -0.6561680     0.2207960     0.0000070
  C        0.7646461    -0.1168500    -0.0499980
  C        1.7974510     0.8476430     0.0000020
  C       -2.8387770    -0.2049930    -0.0000090
  C       -2.5875250     1.1588080    -0.0000060
  C        3.1063280     0.3562510    -0.0000040
  C        1.5337640     2.3273650     0.0000030
  C       -4.1038310    -0.9929000     0.0000030
  C        3.3549510    -1.0153620    -0.0000030
  C        2.2635760    -1.8809290    -0.0000010
  H       -1.3380790    -1.7591850     0.0000060
  H       -3.3182890     1.9585790    -0.0000140
  H        3.9358980     1.0613790    -0.0000050
  H        0.9464400     2.6235720    -0.8719580
  H        0.9464450     2.6235710     0.8719680
  H        2.4827640     2.8719440     0.0000020
  H       -4.1845960    -1.6320300    -0.8856740
  H       -4.1845630    -1.6320460     0.8856710
  H       -4.9567250    -0.3101180     0.0000250
  H        4.3696920    -1.4037000    -0.0000080
  H        2.4020820    -2.9609650     0.0000010
units angstrom
no_reorient  #important for SAPT in psi4, default
symmetry c1  #important for SAPT in psi4, default
}

set PROPERTIES_ORIGIN ["COM"]
properties('MP2/aug-cc-pvtz', properties = ['dipole'])
--------------------------------------------------------------------------

    Molecular point group: c1
  Charge       = 0
  Multiplicity = 1
  Basis Set: AUG-CC-PVTZ
    Blend: AUG-CC-PVTZ
  Basis Set: (AUG-CC-PVTZ AUX)
    Blend: AUG-CC-PVTZ-JKFIT

    Orbital Energies [Eh]
    ---------------------

    Doubly Occupied:

       1A    -15.607477     2A    -15.572810     3A    -15.543980
       4A    -11.293388     5A    -11.289560     6A    -11.277095
       7A    -11.265262     8A    -11.256305     9A    -11.252907
      10A    -11.243401    11A    -11.237660    12A    -11.234629
      13A    -11.215530    14A     -1.335065    15A     -1.257895
      16A     -1.160479    17A     -1.098539    18A     -1.072898
      19A     -1.029048    20A     -0.956862    21A     -0.929304
      22A     -0.865018    23A     -0.835660    24A     -0.804692
      25A     -0.778727    26A     -0.727043    27A     -0.676206
      28A     -0.660766    29A     -0.628973    30A     -0.617768
      31A     -0.594244    32A     -0.579675    33A     -0.575133
      34A     -0.564815    35A     -0.561240    36A     -0.552419
      37A     -0.548325    38A     -0.544790    39A     -0.522781
      40A     -0.507521    41A     -0.433336    42A     -0.424253
      43A     -0.394387    44A     -0.386374    45A     -0.355010
      46A     -0.279153

  @DF-RHF Final Energy:  -548.62599066259975

   => Energetics <=

    Nuclear Repulsion Energy =            741.3510487169648968
    One-Electron Energy =               -2214.8572693185192293
    Two-Electron Energy =                 924.8802299389545851
    Total Energy =                       -548.6259906625997473
  Basis Set: (AUG-CC-PVTZ AUX)
    Blend: AUG-CC-PVTZ-RI
    Molecular point group: c1

    Geometry (in Angstrom), charge = 0, multiplicity = 1:

       Center              X                  Y                   Z               Mass
    ------------   -----------------  -----------------  -----------------  -----------------
         N           -1.609860811026    -0.767992911092     0.003465390424    14.003074004430
         N           -1.259966811026     1.432286088908     0.003467390424    14.003074004430
         N            0.976139188974    -1.445181911092     0.003469390424    14.003074004430
         C           -0.672751811026     0.229070088908     0.003473390424    12.000000000000
         C            0.748062288974    -0.108575911092    -0.046531609576    12.000000000000
         C            1.780867188974     0.855917088908     0.003468390424    12.000000000000
         C           -2.855360811026    -0.196718911092     0.003457390424    12.000000000000
         C           -2.604108811026     1.167082088908     0.003460390424    12.000000000000
         C            3.089744188974     0.364525088908     0.003462390424    12.000000000000
         C            1.517180188974     2.335639088908     0.003469390424    12.000000000000
         C           -4.120414811026    -0.984625911092     0.003469390424    12.000000000000
         C            3.338367188974    -1.007087911092     0.003463390424    12.000000000000
         C            2.246992188974    -1.872654911092     0.003465390424    12.000000000000
         H           -1.354662811026    -1.750910911092     0.003472390424     1.007825032230
         H           -3.334872811026     1.966853088908     0.003452390424     1.007825032230
         H            3.919314188974     1.069653088908     0.003461390424     1.007825032230
         H            0.929856188974     2.631846088908    -0.868491609576     1.007825032230
         H            0.929861188974     2.631845088908     0.875434390424     1.007825032230
         H            2.466180188974     2.880218088908     0.003468390424     1.007825032230
         H           -4.201179811026    -1.623755911092    -0.882207609576     1.007825032230
         H           -4.201146811026    -1.623771911092     0.889137390424     1.007825032230
         H           -4.973308811026    -0.301843911092     0.003491390424     1.007825032230
         H            4.353108188974    -1.395425911092     0.003458390424     1.007825032230
         H            2.385498188974    -2.952690911092     0.003467390424     1.007825032230

  Basis Set: AUG-CC-PVTZ
    Blend: AUG-CC-PVTZ
  Basis Set: (AUG-CC-PVTZ AUX)
    Blend: AUG-CC-PVTZ-JKFIT
	 Reference Energy          =    -548.6259906625997473 [Eh]
	 Singles Energy            =      -0.0000000000000000 [Eh]
	 Same-Spin Energy          =      -0.6116650028297974 [Eh]
	 Opposite-Spin Energy      =      -1.8786272712731811 [Eh]
	 Correlation Energy        =      -2.4902922741029787 [Eh]
	 Total Energy              =    -551.1162829367027598 [Eh]

	 ================> DF-SCS-MP2 Energies <==================
	-----------------------------------------------------------
	 SCS Same-Spin Scale       =       0.3333333333333333 [-]
	 SCS Opposite-Spin Scale   =       1.2000000000000000 [-]
	 SCS Same-Spin Energy      =      -0.2038883342765991 [Eh]
	 SCS Opposite-Spin Energy  =      -2.2543527255278173 [Eh]
	 SCS Correlation Energy    =      -2.4582410598044167 [Eh]
	 SCS Total Energy          =    -551.0842317224041835 [Eh]
	-----------------------------------------------------------

  Dipole Moment: [D]
     X:     0.1616      Y:    -1.7544      Z:    -0.0203     Total:     1.7619

*** Psi4 exiting successfully. Buy a developer a beer!
