                               Psi4 1.3.2 release

  ==> Input File <==

--------------------------------------------------------------------------
#psi4
#
memory 32 gb

molecule  {
0 1
  N       -1.5932770    -0.7762670    -0.0000010
  N       -1.2433830     1.4240120     0.0000010
  N        0.9927230    -1.4534560     0.0000030
  C       -0.6561680     0.2207960     0.0000070
  C        0.7646460    -0.1168500     0.0000020
  C        1.7974510     0.8476430     0.0000020
  C       -2.8387770    -0.2049930    -0.0000090
  C       -2.5875250     1.1588080    -0.0000060
  C        3.1063280     0.3562510    -0.0000040
  C        1.5337640     2.3273650     0.0000030
  C       -4.1038309    -0.9928998     0.0500030
  C        3.3549510    -1.0153620    -0.0000030
  C        2.2635760    -1.8809290    -0.0000010
  H       -1.3380790    -1.7591850     0.0000060
  H       -3.3182890     1.9585790    -0.0000140
  H        3.9358980     1.0613790    -0.0000050
  H        0.9464400     2.6235720    -0.8719580
  H        0.9464450     2.6235710     0.8719680
  H        2.4827640     2.8719440     0.0000020
  H       -4.1845960    -1.6320300    -0.8856740
  H       -4.1845630    -1.6320460     0.8856710
  H       -4.9567250    -0.3101180     0.0000250
  H        4.3696920    -1.4037000    -0.0000080
  H        2.4020820    -2.9609650     0.0000010
units angstrom
no_reorient  #important for SAPT in psi4, default
symmetry c1  #important for SAPT in psi4, default
}

set PROPERTIES_ORIGIN ["COM"]
properties('MP2/aug-cc-pvtz', properties = ['dipole'])
--------------------------------------------------------------------------

    Molecular point group: c1
  Charge       = 0
  Multiplicity = 1
  Basis Set: AUG-CC-PVTZ
    Blend: AUG-CC-PVTZ
  Basis Set: (AUG-CC-PVTZ AUX)
    Blend: AUG-CC-PVTZ-JKFIT

    Orbital Energies [Eh]
    ---------------------

    Doubly Occupied:

       1A    -15.607564     2A    -15.572658     3A    -15.544115
       4A    -11.293405     5A    -11.289391     6A    -11.277140
       7A    -11.265516     8A    -11.256324     9A    -11.252693
      10A    -11.243301    11A    -11.238061    12A    -11.234753
      13A    -11.215521    14A     -1.335183    15A     -1.258110
      16A     -1.160580    17A     -1.098590    18A     -1.073022
      19A     -1.029121    20A     -0.957005    21A     -0.929518
      22A     -0.865190    23A     -0.835902    24A     -0.804800
      25A     -0.778841    26A     -0.727406    27A     -0.676372
      28A     -0.661135    29A     -0.629947    30A     -0.617818
      31A     -0.594407    32A     -0.581707    33A     -0.575101
      34A     -0.565481    35A     -0.563189    36A     -0.551221
      37A     -0.548153    38A     -0.540779    39A     -0.522437
      40A     -0.507632    41A     -0.433386    42A     -0.424247
      43A     -0.394431    44A     -0.386498    45A     -0.355099
      46A     -0.279181

  @DF-RHF Final Energy:  -548.62440878132338

   => Energetics <=

    Nuclear Repulsion Energy =            741.3806124837859670
    One-Electron Energy =               -2214.9061823663073483
    Two-Electron Energy =                 924.9011611011978857
    Total Energy =                       -548.6244087813233818
  Basis Set: (AUG-CC-PVTZ AUX)
    Blend: AUG-CC-PVTZ-RI
    Molecular point group: c1

    Geometry (in Angstrom), charge = 0, multiplicity = 1:

       Center              X                  Y                   Z               Mass
    ------------   -----------------  -----------------  -----------------  -----------------
         N           -1.609860811026    -0.767992924958    -0.003467206927    14.003074004430
         N           -1.259966811026     1.432286075042    -0.003465206927    14.003074004430
         N            0.976139188974    -1.445181924958    -0.003463206927    14.003074004430
         C           -0.672751811026     0.229070075042    -0.003459206927    12.000000000000
         C            0.748062188974    -0.108575924958    -0.003464206927    12.000000000000
         C            1.780867188974     0.855917075042    -0.003464206927    12.000000000000
         C           -2.855360811026    -0.196718924958    -0.003475206927    12.000000000000
         C           -2.604108811026     1.167082075042    -0.003472206927    12.000000000000
         C            3.089744188974     0.364525075042    -0.003470206927    12.000000000000
         C            1.517180188974     2.335639075042    -0.003463206927    12.000000000000
         C           -4.120414711026    -0.984625724958     0.046536793073    12.000000000000
         C            3.338367188974    -1.007087924958    -0.003469206927    12.000000000000
         C            2.246992188974    -1.872654924958    -0.003467206927    12.000000000000
         H           -1.354662811026    -1.750910924958    -0.003460206927     1.007825032230
         H           -3.334872811026     1.966853075042    -0.003480206927     1.007825032230
         H            3.919314188974     1.069653075042    -0.003471206927     1.007825032230
         H            0.929856188974     2.631846075042    -0.875424206927     1.007825032230
         H            0.929861188974     2.631845075042     0.868501793073     1.007825032230
         H            2.466180188974     2.880218075042    -0.003464206927     1.007825032230
         H           -4.201179811026    -1.623755924958    -0.889140206927     1.007825032230
         H           -4.201146811026    -1.623771924958     0.882204793073     1.007825032230
         H           -4.973308811026    -0.301843924958    -0.003441206927     1.007825032230
         H            4.353108188974    -1.395425924958    -0.003474206927     1.007825032230
         H            2.385498188974    -2.952690924958    -0.003465206927     1.007825032230

  Basis Set: AUG-CC-PVTZ
    Blend: AUG-CC-PVTZ
  Basis Set: (AUG-CC-PVTZ AUX)
    Blend: AUG-CC-PVTZ-JKFIT
	 Reference Energy          =    -548.6244087813233818 [Eh]
	 Singles Energy            =      -0.0000000000000000 [Eh]
	 Same-Spin Energy          =      -0.6116484821919439 [Eh]
	 Opposite-Spin Energy      =      -1.8786829244499403 [Eh]
	 Correlation Energy        =      -2.4903314066418840 [Eh]
	 Total Energy              =    -551.1147401879652534 [Eh]

	 ================> DF-SCS-MP2 Energies <==================
	-----------------------------------------------------------
	 SCS Same-Spin Scale       =       0.3333333333333333 [-]
	 SCS Opposite-Spin Scale   =       1.2000000000000000 [-]
	 SCS Same-Spin Energy      =      -0.2038828273973146 [Eh]
	 SCS Opposite-Spin Energy  =      -2.2544195093399284 [Eh]
	 SCS Correlation Energy    =      -2.4583023367372432 [Eh]
	 SCS Total Energy          =    -551.0827111180606153 [Eh]
	-----------------------------------------------------------

  Dipole Moment: [D]
     X:     0.1602      Y:    -1.7497      Z:     0.0340     Total:     1.7573

*** Psi4 exiting successfully. Buy a developer a beer!
