                               Psi4 1.3.2 release

  ==> Input File <==

--------------------------------------------------------------------------
#psi4
#
memory 32 gb

molecule  {
0 1
  N       -1.5932770    -0.7762670    -0.0000010
  N       -1.2433830     1.4240120     0.0000010
  N        0.9927230    -1.4534560     0.0000030
  C       -0.6561680     0.2207960     0.0000070
  C        0.7646460    -0.1168500     0.0000020
  C        1.7974505     0.8476431    -0.2499980
  C       -2.8387770    -0.2049930    -0.0000090
  C       -2.5875250     1.1588080    -0.0000060
  C        3.1063280     0.3562510    -0.0000040
  C        1.5337640     2.3273650     0.0000030
  C       -4.1038310    -0.9929000     0.0000030
  C        3.3549510    -1.0153620    -0.0000030
  C        2.2635760    -1.8809290    -0.0000010
  H       -1.3380790    -1.7591850     0.0000060
  H       -3.3182890     1.9585790    -0.0000140
  H        3.9358980     1.0613790    -0.0000050
  H        0.9464400     2.6235720    -0.8719580
  H        0.9464450     2.6235710     0.8719680
  H        2.4827640     2.8719440     0.0000020
  H       -4.1845960    -1.6320300    -0.8856740
  H       -4.1845630    -1.6320460     0.8856710
  H       -4.9567250    -0.3101180     0.0000250
  H        4.3696920    -1.4037000    -0.0000080
  H        2.4020820    -2.9609650     0.0000010
units angstrom
no_reorient  #important for SAPT in psi4, default
symmetry c1  #important for SAPT in psi4, default
}

set PROPERTIES_ORIGIN ["COM"]
properties('MP2/aug-cc-pvtz', properties = ['dipole'])
--------------------------------------------------------------------------

    Molecular point group: c1
  Charge       = 0
  Multiplicity = 1
  Basis Set: AUG-CC-PVTZ
    Blend: AUG-CC-PVTZ
  Basis Set: (AUG-CC-PVTZ AUX)
    Blend: AUG-CC-PVTZ-JKFIT

    Orbital Energies [Eh]
    ---------------------

    Doubly Occupied:

       1A    -15.608450     2A    -15.571646     3A    -15.545133
       4A    -11.294469     5A    -11.293342     6A    -11.279794
       7A    -11.266370     8A    -11.260686     9A    -11.256150
      10A    -11.241989    11A    -11.238314    12A    -11.235445
      13A    -11.215170    14A     -1.335849    15A     -1.257677
      16A     -1.161162    17A     -1.093946    18A     -1.072505
      19A     -1.028760    20A     -0.955052    21A     -0.927836
      22A     -0.862950    23A     -0.833548    24A     -0.804864
      25A     -0.778686    26A     -0.727639    27A     -0.675394
      28A     -0.657406    29A     -0.629633    30A     -0.617797
      31A     -0.594224    32A     -0.577640    33A     -0.574743
      34A     -0.565784    35A     -0.561269    36A     -0.553595
      37A     -0.545318    38A     -0.542087    39A     -0.523558
      40A     -0.496298    41A     -0.433108    42A     -0.424110
      43A     -0.394379    44A     -0.383427    45A     -0.353835
      46A     -0.280165

  @DF-RHF Final Energy:  -548.60380833835825

   => Energetics <=

    Nuclear Repulsion Energy =            740.5576736395163380
    One-Electron Energy =               -2213.2605597112374198
    Two-Electron Energy =                 924.0990777333627193
    Total Energy =                       -548.6038083383582489
  Basis Set: (AUG-CC-PVTZ AUX)
    Blend: AUG-CC-PVTZ-RI
    Molecular point group: c1

    Geometry (in Angstrom), charge = 0, multiplicity = 1:

       Center              X                  Y                   Z               Mass
    ------------   -----------------  -----------------  -----------------  -----------------
         N           -1.609860769430    -0.767992918025     0.017330585126    14.003074004430
         N           -1.259966769430     1.432286081975     0.017332585126    14.003074004430
         N            0.976139230570    -1.445181918025     0.017334585126    14.003074004430
         C           -0.672751769430     0.229070081975     0.017338585126    12.000000000000
         C            0.748062230570    -0.108575918025     0.017333585126    12.000000000000
         C            1.780866730570     0.855917181975    -0.232666414874    12.000000000000
         C           -2.855360769430    -0.196718918025     0.017322585126    12.000000000000
         C           -2.604108769430     1.167082081975     0.017325585126    12.000000000000
         C            3.089744230570     0.364525081975     0.017327585126    12.000000000000
         C            1.517180230570     2.335639081975     0.017334585126    12.000000000000
         C           -4.120414769430    -0.984625918025     0.017334585126    12.000000000000
         C            3.338367230570    -1.007087918025     0.017328585126    12.000000000000
         C            2.246992230570    -1.872654918025     0.017330585126    12.000000000000
         H           -1.354662769430    -1.750910918025     0.017337585126     1.007825032230
         H           -3.334872769430     1.966853081975     0.017317585126     1.007825032230
         H            3.919314230570     1.069653081975     0.017326585126     1.007825032230
         H            0.929856230570     2.631846081975    -0.854626414874     1.007825032230
         H            0.929861230570     2.631845081975     0.889299585126     1.007825032230
         H            2.466180230570     2.880218081975     0.017333585126     1.007825032230
         H           -4.201179769430    -1.623755918025    -0.868342414874     1.007825032230
         H           -4.201146769430    -1.623771918025     0.903002585126     1.007825032230
         H           -4.973308769430    -0.301843918025     0.017356585126     1.007825032230
         H            4.353108230570    -1.395425918025     0.017323585126     1.007825032230
         H            2.385498230570    -2.952690918025     0.017332585126     1.007825032230

  Basis Set: AUG-CC-PVTZ
    Blend: AUG-CC-PVTZ
  Basis Set: (AUG-CC-PVTZ AUX)
    Blend: AUG-CC-PVTZ-JKFIT
	 Reference Energy          =    -548.6038083383582489 [Eh]
	 Singles Energy            =      -0.0000000000000000 [Eh]
	 Same-Spin Energy          =      -0.6124207486584848 [Eh]
	 Opposite-Spin Energy      =      -1.8806914008957092 [Eh]
	 Correlation Energy        =      -2.4931121495541939 [Eh]
	 Total Energy              =    -551.0969204879124845 [Eh]

	 ================> DF-SCS-MP2 Energies <==================
	-----------------------------------------------------------
	 SCS Same-Spin Scale       =       0.3333333333333333 [-]
	 SCS Opposite-Spin Scale   =       1.2000000000000000 [-]
	 SCS Same-Spin Energy      =      -0.2041402495528283 [Eh]
	 SCS Opposite-Spin Energy  =      -2.2568296810748509 [Eh]
	 SCS Correlation Energy    =      -2.4609699306276793 [Eh]
	 SCS Total Energy          =    -551.0647782689859469 [Eh]
	-----------------------------------------------------------

  Dipole Moment: [D]
     X:     0.1026      Y:    -1.8725      Z:     0.0328     Total:     1.8756

*** Psi4 exiting successfully. Buy a developer a beer!
