                               Psi4 1.3.2 release

  ==> Input File <==

--------------------------------------------------------------------------
#psi4
#
memory 32 gb

molecule  {
0 1
  N       -1.5932770    -0.7762670    -0.0000010
  N       -1.2433830     1.4240120     0.0000010
  N        0.9927230    -1.4534560     0.0000030
  C       -0.6561680     0.2207960     0.0000070
  C        0.7646460    -0.1168500     0.0000020
  C        1.7974510     0.8476430     0.0000020
  C       -2.8387770    -0.2049930    -0.0000090
  C       -2.5875250     1.1588080    -0.0000060
  C        3.1063280     0.3562510    -0.0000040
  C        1.5337640     2.3273650     0.0000030
  C       -4.1038309    -0.9928997     0.1000030
  C        3.3549510    -1.0153620    -0.0000030
  C        2.2635760    -1.8809290    -0.0000010
  H       -1.3380790    -1.7591850     0.0000060
  H       -3.3182890     1.9585790    -0.0000140
  H        3.9358980     1.0613790    -0.0000050
  H        0.9464400     2.6235720    -0.8719580
  H        0.9464450     2.6235710     0.8719680
  H        2.4827640     2.8719440     0.0000020
  H       -4.1845960    -1.6320300    -0.8856740
  H       -4.1845630    -1.6320460     0.8856710
  H       -4.9567250    -0.3101180     0.0000250
  H        4.3696920    -1.4037000    -0.0000080
  H        2.4020820    -2.9609650     0.0000010
units angstrom
no_reorient  #important for SAPT in psi4, default
symmetry c1  #important for SAPT in psi4, default
}

set PROPERTIES_ORIGIN ["COM"]
properties('MP2/aug-cc-pvtz', properties = ['dipole'])
--------------------------------------------------------------------------

    Molecular point group: c1
  Charge       = 0
  Multiplicity = 1
  Basis Set: AUG-CC-PVTZ
    Blend: AUG-CC-PVTZ
  Basis Set: (AUG-CC-PVTZ AUX)
    Blend: AUG-CC-PVTZ-JKFIT

    Orbital Energies [Eh]
    ---------------------

    Doubly Occupied:

       1A    -15.607610     2A    -15.572731     3A    -15.544260
       4A    -11.293566     5A    -11.289458     6A    -11.277197
       7A    -11.266095     8A    -11.256385     9A    -11.252771
      10A    -11.243371    11A    -11.239152    12A    -11.234983
      13A    -11.215589    14A     -1.335304    15A     -1.258180
      16A     -1.160688    17A     -1.098657    18A     -1.073086
      19A     -1.029221    20A     -0.957321    21A     -0.929985
      22A     -0.865527    23A     -0.835976    24A     -0.804943
      25A     -0.778929    26A     -0.728031    27A     -0.676659
      28A     -0.662146    29A     -0.632793    30A     -0.617619
      31A     -0.595201    32A     -0.586085    33A     -0.574965
      34A     -0.567086    35A     -0.564112    36A     -0.550094
      37A     -0.548076    38A     -0.532491    39A     -0.520437
      40A     -0.507654    41A     -0.433445    42A     -0.424315
      43A     -0.394412    44A     -0.386521    45A     -0.355088
      46A     -0.279118

  @DF-RHF Final Energy:  -548.61671155451313

   => Energetics <=

    Nuclear Repulsion Energy =            741.3517527118872295
    One-Electron Energy =               -2214.8222694762221181
    Two-Electron Energy =                 924.8538052098217577
    Total Energy =                       -548.6167115545131310
  Basis Set: (AUG-CC-PVTZ AUX)
    Blend: AUG-CC-PVTZ-RI
    Molecular point group: c1

    Geometry (in Angstrom), charge = 0, multiplicity = 1:

       Center              X                  Y                   Z               Mass
    ------------   -----------------  -----------------  -----------------  -----------------
         N           -1.609860811026    -0.767992931890    -0.006933505603    14.003074004430
         N           -1.259966811026     1.432286068110    -0.006931505603    14.003074004430
         N            0.976139188974    -1.445181931890    -0.006929505603    14.003074004430
         C           -0.672751811026     0.229070068110    -0.006925505603    12.000000000000
         C            0.748062188974    -0.108575931890    -0.006930505603    12.000000000000
         C            1.780867188974     0.855917068110    -0.006930505603    12.000000000000
         C           -2.855360811026    -0.196718931890    -0.006941505603    12.000000000000
         C           -2.604108811026     1.167082068110    -0.006938505603    12.000000000000
         C            3.089744188974     0.364525068110    -0.006936505603    12.000000000000
         C            1.517180188974     2.335639068110    -0.006929505603    12.000000000000
         C           -4.120414711026    -0.984625631890     0.093070494397    12.000000000000
         C            3.338367188974    -1.007087931890    -0.006935505603    12.000000000000
         C            2.246992188974    -1.872654931890    -0.006933505603    12.000000000000
         H           -1.354662811026    -1.750910931890    -0.006926505603     1.007825032230
         H           -3.334872811026     1.966853068110    -0.006946505603     1.007825032230
         H            3.919314188974     1.069653068110    -0.006937505603     1.007825032230
         H            0.929856188974     2.631846068110    -0.878890505603     1.007825032230
         H            0.929861188974     2.631845068110     0.865035494397     1.007825032230
         H            2.466180188974     2.880218068110    -0.006930505603     1.007825032230
         H           -4.201179811026    -1.623755931890    -0.892606505603     1.007825032230
         H           -4.201146811026    -1.623771931890     0.878738494397     1.007825032230
         H           -4.973308811026    -0.301843931890    -0.006907505603     1.007825032230
         H            4.353108188974    -1.395425931890    -0.006940505603     1.007825032230
         H            2.385498188974    -2.952690931890    -0.006931505603     1.007825032230

  Basis Set: AUG-CC-PVTZ
    Blend: AUG-CC-PVTZ
  Basis Set: (AUG-CC-PVTZ AUX)
    Blend: AUG-CC-PVTZ-JKFIT
	 Reference Energy          =    -548.6167115545131310 [Eh]
	 Singles Energy            =      -0.0000000000000000 [Eh]
	 Same-Spin Energy          =      -0.6117370983424617 [Eh]
	 Opposite-Spin Energy      =      -1.8789716262954657 [Eh]
	 Correlation Energy        =      -2.4907087246379271 [Eh]
	 Total Energy              =    -551.1074202791510288 [Eh]

	 ================> DF-SCS-MP2 Energies <==================
	-----------------------------------------------------------
	 SCS Same-Spin Scale       =       0.3333333333333333 [-]
	 SCS Opposite-Spin Scale   =       1.2000000000000000 [-]
	 SCS Same-Spin Energy      =      -0.2039123661141539 [Eh]
	 SCS Opposite-Spin Energy  =      -2.2547659515545586 [Eh]
	 SCS Correlation Energy    =      -2.4586783176687126 [Eh]
	 SCS Total Energy          =    -551.0753898721818587 [Eh]
	-----------------------------------------------------------

  Dipole Moment: [D]
     X:     0.1722      Y:    -1.7368      Z:     0.0672     Total:     1.7466

*** Psi4 exiting successfully. Buy a developer a beer!
