                               Psi4 1.3.2 release

  ==> Input File <==

--------------------------------------------------------------------------
#psi4
#
memory 32 gb

molecule  {
0 1
  N       -1.5932770    -0.7762670    -0.0000010
  N       -1.2433830     1.4240120     0.0000010
  N        0.9927230    -1.4534560     0.0000030
  C       -0.6561680     0.2207960     0.0000070
  C        0.7646460    -0.1168500     0.0000020
  C        1.7974506     0.8476431    -0.1999980
  C       -2.8387770    -0.2049930    -0.0000090
  C       -2.5875250     1.1588080    -0.0000060
  C        3.1063280     0.3562510    -0.0000040
  C        1.5337640     2.3273650     0.0000030
  C       -4.1038310    -0.9929000     0.0000030
  C        3.3549510    -1.0153620    -0.0000030
  C        2.2635760    -1.8809290    -0.0000010
  H       -1.3380790    -1.7591850     0.0000060
  H       -3.3182890     1.9585790    -0.0000140
  H        3.9358980     1.0613790    -0.0000050
  H        0.9464400     2.6235720    -0.8719580
  H        0.9464450     2.6235710     0.8719680
  H        2.4827640     2.8719440     0.0000020
  H       -4.1845960    -1.6320300    -0.8856740
  H       -4.1845630    -1.6320460     0.8856710
  H       -4.9567250    -0.3101180     0.0000250
  H        4.3696920    -1.4037000    -0.0000080
  H        2.4020820    -2.9609650     0.0000010
units angstrom
no_reorient  #important for SAPT in psi4, default
symmetry c1  #important for SAPT in psi4, default
}

set PROPERTIES_ORIGIN ["COM"]
properties('MP2/aug-cc-pvtz', properties = ['dipole'])
--------------------------------------------------------------------------

    Molecular point group: c1
  Charge       = 0
  Multiplicity = 1
  Basis Set: AUG-CC-PVTZ
    Blend: AUG-CC-PVTZ
  Basis Set: (AUG-CC-PVTZ AUX)
    Blend: AUG-CC-PVTZ-JKFIT

    Orbital Energies [Eh]
    ---------------------

    Doubly Occupied:

       1A    -15.608119     2A    -15.571982     3A    -15.544742
       4A    -11.293603     5A    -11.292401     6A    -11.278806
       7A    -11.265984     8A    -11.259142     9A    -11.254979
      10A    -11.242434    11A    -11.238088    12A    -11.235162
      13A    -11.215319    14A     -1.335588    15A     -1.257803
      16A     -1.160932    17A     -1.095576    18A     -1.072691
      19A     -1.028886    20A     -0.955679    21A     -0.928384
      22A     -0.863659    23A     -0.834392    24A     -0.804818
      25A     -0.778721    26A     -0.727473    27A     -0.675637
      28A     -0.658652    29A     -0.629395    30A     -0.617810
      31A     -0.594291    32A     -0.578274    33A     -0.574928
      34A     -0.565520    35A     -0.561296    36A     -0.553444
      37A     -0.545518    38A     -0.543582    39A     -0.523482
      40A     -0.500198    41A     -0.433192    42A     -0.424204
      43A     -0.394359    44A     -0.384519    45A     -0.354266
      46A     -0.279802

  @DF-RHF Final Energy:  -548.61213186657653

   => Energetics <=

    Nuclear Repulsion Energy =            740.8540102068898250
    One-Electron Energy =               -2213.8568172759210029
    Two-Electron Energy =                 924.3906752024546449
    Total Energy =                       -548.6121318665765330
  Basis Set: (AUG-CC-PVTZ AUX)
    Blend: AUG-CC-PVTZ-RI
    Molecular point group: c1

    Geometry (in Angstrom), charge = 0, multiplicity = 1:

       Center              X                  Y                   Z               Mass
    ------------   -----------------  -----------------  -----------------  -----------------
         N           -1.609860776363    -0.767992918025     0.013864286450    14.003074004430
         N           -1.259966776363     1.432286081975     0.013866286450    14.003074004430
         N            0.976139223637    -1.445181918025     0.013868286450    14.003074004430
         C           -0.672751776363     0.229070081975     0.013872286450    12.000000000000
         C            0.748062223637    -0.108575918025     0.013867286450    12.000000000000
         C            1.780866823637     0.855917181975    -0.186132713550    12.000000000000
         C           -2.855360776363    -0.196718918025     0.013856286450    12.000000000000
         C           -2.604108776363     1.167082081975     0.013859286450    12.000000000000
         C            3.089744223637     0.364525081975     0.013861286450    12.000000000000
         C            1.517180223637     2.335639081975     0.013868286450    12.000000000000
         C           -4.120414776363    -0.984625918025     0.013868286450    12.000000000000
         C            3.338367223637    -1.007087918025     0.013862286450    12.000000000000
         C            2.246992223637    -1.872654918025     0.013864286450    12.000000000000
         H           -1.354662776363    -1.750910918025     0.013871286450     1.007825032230
         H           -3.334872776363     1.966853081975     0.013851286450     1.007825032230
         H            3.919314223637     1.069653081975     0.013860286450     1.007825032230
         H            0.929856223637     2.631846081975    -0.858092713550     1.007825032230
         H            0.929861223637     2.631845081975     0.885833286450     1.007825032230
         H            2.466180223637     2.880218081975     0.013867286450     1.007825032230
         H           -4.201179776363    -1.623755918025    -0.871808713550     1.007825032230
         H           -4.201146776363    -1.623771918025     0.899536286450     1.007825032230
         H           -4.973308776363    -0.301843918025     0.013890286450     1.007825032230
         H            4.353108223637    -1.395425918025     0.013857286450     1.007825032230
         H            2.385498223637    -2.952690918025     0.013866286450     1.007825032230

  Basis Set: AUG-CC-PVTZ
    Blend: AUG-CC-PVTZ
  Basis Set: (AUG-CC-PVTZ AUX)
    Blend: AUG-CC-PVTZ-JKFIT
	 Reference Energy          =    -548.6121318665765330 [Eh]
	 Singles Energy            =      -0.0000000000000000 [Eh]
	 Same-Spin Energy          =      -0.6121327130955283 [Eh]
	 Opposite-Spin Energy      =      -1.8798376524082157 [Eh]
	 Correlation Energy        =      -2.4919703655037440 [Eh]
	 Total Energy              =    -551.1041022320803222 [Eh]

	 ================> DF-SCS-MP2 Energies <==================
	-----------------------------------------------------------
	 SCS Same-Spin Scale       =       0.3333333333333333 [-]
	 SCS Opposite-Spin Scale   =       1.2000000000000000 [-]
	 SCS Same-Spin Energy      =      -0.2040442376985094 [Eh]
	 SCS Opposite-Spin Energy  =      -2.2558051828898589 [Eh]
	 SCS Correlation Energy    =      -2.4598494205883683 [Eh]
	 SCS Total Energy          =    -551.0719812871649310 [Eh]
	-----------------------------------------------------------

  Dipole Moment: [D]
     X:     0.1223      Y:    -1.8302      Z:     0.0249     Total:     1.8344

*** Psi4 exiting successfully. Buy a developer a beer!
