                               Psi4 1.3.2 release

  ==> Input File <==

--------------------------------------------------------------------------
#psi4
#
memory 32 gb

molecule  {
0 1
  N       -1.5932770    -0.7762670    -0.0000010
  N       -1.2433830     1.4240120     0.0000010
  N        0.9927230    -1.4534560     0.0000030
  C       -0.6561680     0.2207960     0.0000070
  C        0.7646460    -0.1168500     0.0000020
  C        1.7974509     0.8476430    -0.0499980
  C       -2.8387770    -0.2049930    -0.0000090
  C       -2.5875250     1.1588080    -0.0000060
  C        3.1063280     0.3562510    -0.0000040
  C        1.5337640     2.3273650     0.0000030
  C       -4.1038310    -0.9929000     0.0000030
  C        3.3549510    -1.0153620    -0.0000030
  C        2.2635760    -1.8809290    -0.0000010
  H       -1.3380790    -1.7591850     0.0000060
  H       -3.3182890     1.9585790    -0.0000140
  H        3.9358980     1.0613790    -0.0000050
  H        0.9464400     2.6235720    -0.8719580
  H        0.9464450     2.6235710     0.8719680
  H        2.4827640     2.8719440     0.0000020
  H       -4.1845960    -1.6320300    -0.8856740
  H       -4.1845630    -1.6320460     0.8856710
  H       -4.9567250    -0.3101180     0.0000250
  H        4.3696920    -1.4037000    -0.0000080
  H        2.4020820    -2.9609650     0.0000010
units angstrom
no_reorient  #important for SAPT in psi4, default
symmetry c1  #important for SAPT in psi4, default
}

set PROPERTIES_ORIGIN ["COM"]
properties('MP2/aug-cc-pvtz', properties = ['dipole'])
--------------------------------------------------------------------------

    Molecular point group: c1
  Charge       = 0
  Multiplicity = 1
  Basis Set: AUG-CC-PVTZ
    Blend: AUG-CC-PVTZ
  Basis Set: (AUG-CC-PVTZ AUX)
    Blend: AUG-CC-PVTZ-JKFIT

    Orbital Energies [Eh]
    ---------------------

    Doubly Occupied:

       1A    -15.607583     2A    -15.572590     3A    -15.544107
       4A    -11.293361     5A    -11.289565     6A    -11.277223
       7A    -11.265362     8A    -11.256484     9A    -11.252820
      10A    -11.243221    11A    -11.237721    12A    -11.234705
      13A    -11.215489    14A     -1.335169    15A     -1.258065
      16A     -1.160566    17A     -1.098376    18A     -1.072981
      19A     -1.029076    20A     -0.956821    21A     -0.929301
      22A     -0.864983    23A     -0.835785    24A     -0.804755
      25A     -0.778805    26A     -0.727221    27A     -0.676234
      28A     -0.660691    29A     -0.628954    30A     -0.617899
      31A     -0.594237    32A     -0.579604    33A     -0.575160
      34A     -0.564923    35A     -0.561278    36A     -0.552582
      37A     -0.548075    38A     -0.544846    39A     -0.522883
      40A     -0.507126    41A     -0.433353    42A     -0.424228
      43A     -0.394427    44A     -0.386365    45A     -0.355047
      46A     -0.279236

  @DF-RHF Final Energy:  -548.62603395394353

   => Energetics <=

    Nuclear Repulsion Energy =            741.3563826064925024
    One-Electron Energy =               -2214.8662544745084233
    Two-Electron Energy =                 924.8838379140725010
    Total Energy =                       -548.6260339539435336
  Basis Set: (AUG-CC-PVTZ AUX)
    Blend: AUG-CC-PVTZ-RI
    Molecular point group: c1

    Geometry (in Angstrom), charge = 0, multiplicity = 1:

       Center              X                  Y                   Z               Mass
    ------------   -----------------  -----------------  -----------------  -----------------
         N           -1.609860797161    -0.767992911092     0.003465390424    14.003074004430
         N           -1.259966797161     1.432286088908     0.003467390424    14.003074004430
         N            0.976139202839    -1.445181911092     0.003469390424    14.003074004430
         C           -0.672751797161     0.229070088908     0.003473390424    12.000000000000
         C            0.748062202839    -0.108575911092     0.003468390424    12.000000000000
         C            1.780867102839     0.855917088908    -0.046531609576    12.000000000000
         C           -2.855360797161    -0.196718911092     0.003457390424    12.000000000000
         C           -2.604108797161     1.167082088908     0.003460390424    12.000000000000
         C            3.089744202839     0.364525088908     0.003462390424    12.000000000000
         C            1.517180202839     2.335639088908     0.003469390424    12.000000000000
         C           -4.120414797161    -0.984625911092     0.003469390424    12.000000000000
         C            3.338367202839    -1.007087911092     0.003463390424    12.000000000000
         C            2.246992202839    -1.872654911092     0.003465390424    12.000000000000
         H           -1.354662797161    -1.750910911092     0.003472390424     1.007825032230
         H           -3.334872797161     1.966853088908     0.003452390424     1.007825032230
         H            3.919314202839     1.069653088908     0.003461390424     1.007825032230
         H            0.929856202839     2.631846088908    -0.868491609576     1.007825032230
         H            0.929861202839     2.631845088908     0.875434390424     1.007825032230
         H            2.466180202839     2.880218088908     0.003468390424     1.007825032230
         H           -4.201179797161    -1.623755911092    -0.882207609576     1.007825032230
         H           -4.201146797161    -1.623771911092     0.889137390424     1.007825032230
         H           -4.973308797161    -0.301843911092     0.003491390424     1.007825032230
         H            4.353108202839    -1.395425911092     0.003458390424     1.007825032230
         H            2.385498202839    -2.952690911092     0.003467390424     1.007825032230

  Basis Set: AUG-CC-PVTZ
    Blend: AUG-CC-PVTZ
  Basis Set: (AUG-CC-PVTZ AUX)
    Blend: AUG-CC-PVTZ-JKFIT
	 Reference Energy          =    -548.6260339539435336 [Eh]
	 Singles Energy            =      -0.0000000000000000 [Eh]
	 Same-Spin Energy          =      -0.6116497489733697 [Eh]
	 Opposite-Spin Energy      =      -1.8786173729449978 [Eh]
	 Correlation Energy        =      -2.4902671219183672 [Eh]
	 Total Energy              =    -551.1163010758618839 [Eh]

	 ================> DF-SCS-MP2 Energies <==================
	-----------------------------------------------------------
	 SCS Same-Spin Scale       =       0.3333333333333333 [-]
	 SCS Opposite-Spin Scale   =       1.2000000000000000 [-]
	 SCS Same-Spin Energy      =      -0.2038832496577899 [Eh]
	 SCS Opposite-Spin Energy  =      -2.2543408475339972 [Eh]
	 SCS Correlation Energy    =      -2.4582240971917870 [Eh]
	 SCS Total Energy          =    -551.0842580511352935 [Eh]
	-----------------------------------------------------------

  Dipole Moment: [D]
     X:     0.1541      Y:    -1.7588      Z:     0.0056     Total:     1.7656

*** Psi4 exiting successfully. Buy a developer a beer!
