                               Psi4 1.3.2 release

  ==> Input File <==

--------------------------------------------------------------------------
#psi4
#
memory 32 gb

molecule  {
-1 1
  P       -0.9206940     0.0325050    -0.1379180
  O        0.6460740    -0.4769070    -0.3459610
  O       -1.0670254    -0.1050072     1.3159508
  O       -1.7761100    -1.0113720    -0.8028300
  O       -1.0141860     1.5044880    -0.4470930
  C        1.6724330     0.4007460     0.1532460
  C        3.0061220    -0.2801360    -0.0629140
  H        1.6230780     1.3579470    -0.3750000
  H        1.5019730     0.5929700     1.2191390
  H        3.0451600    -1.2240850     0.4853350
  H        3.1601600    -0.4835910    -1.1252110
  H        3.8211450     0.3599160     0.2891820
  H       -1.5629250    -0.9540910     1.6878470
units angstrom
no_reorient  #important for SAPT in psi4, default
symmetry c1  #important for SAPT in psi4, default
}

set PROPERTIES_ORIGIN ["COM"]
properties('MP2/aug-cc-pvtz', properties = ['dipole'])
--------------------------------------------------------------------------

    Molecular point group: c1
  Charge       = -1
  Multiplicity = 1
  Basis Set: AUG-CC-PVTZ
    Blend: AUG-CC-PVTZ
  Basis Set: (AUG-CC-PVTZ AUX)
    Blend: AUG-CC-PVTZ-JKFIT

    Orbital Energies [Eh]
    ---------------------

    Doubly Occupied:

       1A    -79.852327     2A    -20.415771     3A    -20.386554
       4A    -20.287428     5A    -20.286166     6A    -11.135026
       7A    -11.097174     8A     -7.373432     9A     -5.273267
      10A     -5.271016    11A     -5.269430    12A     -1.266073
      13A     -1.182610    14A     -1.080661    15A     -1.047497
      16A     -0.883697    17A     -0.704295    18A     -0.633536
      19A     -0.541429    20A     -0.511695    21A     -0.478499
      22A     -0.441250    23A     -0.434293    24A     -0.420000
      25A     -0.392945    26A     -0.379806    27A     -0.340862
      28A     -0.316526    29A     -0.299521    30A     -0.274247
      31A     -0.252794    32A     -0.237322    33A     -0.221394

  @DF-RHF Final Energy:  -719.72812215693170

   => Energetics <=

    Nuclear Repulsion Energy =            432.2134426728438825
    One-Electron Energy =               -1865.9060416777733735
    Two-Electron Energy =                 713.9644768479977301
    Total Energy =                       -719.7281221569317040
  Basis Set: (AUG-CC-PVTZ AUX)
    Blend: AUG-CC-PVTZ-RI
    Molecular point group: c1

    Geometry (in Angstrom), charge = -1, multiplicity = 1:

       Center              X                  Y                   Z               Mass
    ------------   -----------------  -----------------  -----------------  -----------------
         P           -0.824221864342     0.027064036642    -0.094182111610    30.973761998420
         O            0.742546135658    -0.482347963358    -0.302225111610    15.994914619570
         O           -0.970553264342    -0.110448163358     1.359686688390    15.994914619570
         O           -1.679637864342    -1.016812963358    -0.759094111610    15.994914619570
         O           -0.917713864342     1.499047036642    -0.403357111610    15.994914619570
         C            1.768905135658     0.395305036642     0.196981888390    12.000000000000
         C            3.102594135658    -0.285576963358    -0.019178111610    12.000000000000
         H            1.719550135658     1.352506036642    -0.331264111610     1.007825032230
         H            1.598445135658     0.587529036642     1.262874888390     1.007825032230
         H            3.141632135658    -1.229525963358     0.529070888390     1.007825032230
         H            3.256632135658    -0.489031963358    -1.081475111610     1.007825032230
         H            3.917617135658     0.354475036642     0.332917888390     1.007825032230
         H           -1.466452864342    -0.959531963358     1.731582888390     1.007825032230

  Basis Set: AUG-CC-PVTZ
    Blend: AUG-CC-PVTZ
  Basis Set: (AUG-CC-PVTZ AUX)
    Blend: AUG-CC-PVTZ-JKFIT
	 Reference Energy          =    -719.7281221569317040 [Eh]
	 Singles Energy            =      -0.0000000000000000 [Eh]
	 Same-Spin Energy          =      -0.4141408484993945 [Eh]
	 Opposite-Spin Energy      =      -1.2330646657474089 [Eh]
	 Correlation Energy        =      -1.6472055142468034 [Eh]
	 Total Energy              =    -721.3753276711785247 [Eh]

	 ================> DF-SCS-MP2 Energies <==================
	-----------------------------------------------------------
	 SCS Same-Spin Scale       =       0.3333333333333333 [-]
	 SCS Opposite-Spin Scale   =       1.2000000000000000 [-]
	 SCS Same-Spin Energy      =      -0.1380469494997981 [Eh]
	 SCS Opposite-Spin Energy  =      -1.4796775988968907 [Eh]
	 SCS Correlation Energy    =      -1.6177245483966889 [Eh]
	 SCS Total Energy          =    -721.3458467053284267 [Eh]
	-----------------------------------------------------------

  Dipole Moment: [D]
     X:     4.8239      Y:    -1.3101      Z:     3.9426     Total:     6.3663

*** Psi4 exiting successfully. Buy a developer a beer!
