                               Psi4 1.3.2 release

  ==> Input File <==

--------------------------------------------------------------------------
#psi4
#
memory 32 gb

molecule  {
-1 1
  P       -0.8898956     0.1040149    -0.0992394
  O        0.6460740    -0.4769070    -0.3459610
  O       -1.0869660    -0.1237460     1.5140700
  O       -1.7761100    -1.0113720    -0.8028300
  O       -1.0141860     1.5044880    -0.4470930
  C        1.6182432     0.4479575     0.1759661
  C        3.0061220    -0.2801360    -0.0629140
  H        1.6230780     1.3579470    -0.3750000
  H        1.5019730     0.5929700     1.2191390
  H        3.0451600    -1.2240850     0.4853350
  H        3.1601600    -0.4835910    -1.1252110
  H        3.8211450     0.3599160     0.2891820
  H       -1.5629250    -0.9540910     1.6878470
units angstrom
no_reorient  #important for SAPT in psi4, default
symmetry c1  #important for SAPT in psi4, default
}

set PROPERTIES_ORIGIN ["COM"]
properties('MP2/aug-cc-pvtz', properties = ['dipole'])
--------------------------------------------------------------------------

    Molecular point group: c1
  Charge       = -1
  Multiplicity = 1
  Basis Set: AUG-CC-PVTZ
    Blend: AUG-CC-PVTZ
  Basis Set: (AUG-CC-PVTZ AUX)
    Blend: AUG-CC-PVTZ-JKFIT

    Orbital Energies [Eh]
    ---------------------

    Doubly Occupied:

       1A    -79.879858     2A    -20.410491     3A    -20.406294
       4A    -20.317012     5A    -20.287203     6A    -11.141520
       7A    -11.102869     8A     -7.396331     9A     -5.294922
      10A     -5.294426    11A     -5.292858    12A     -1.236430
      13A     -1.187062    14A     -1.118958    15A     -1.027634
      16A     -0.875443    17A     -0.719079    18A     -0.616497
      19A     -0.540447    20A     -0.522249    21A     -0.463871
      22A     -0.445965    23A     -0.430181    24A     -0.416533
      25A     -0.405570    26A     -0.376852    27A     -0.341419
      28A     -0.333222    29A     -0.317513    30A     -0.282220
      31A     -0.280083    32A     -0.228731    33A     -0.222423

  @DF-RHF Final Energy:  -719.73800318413009

   => Energetics <=

    Nuclear Repulsion Energy =            424.9810681195139068
    One-Electron Energy =               -1851.0138144908282811
    Two-Electron Energy =                 706.2947431871841673
    Total Energy =                       -719.7380031841300934
  Basis Set: (AUG-CC-PVTZ AUX)
    Blend: AUG-CC-PVTZ-RI
    Molecular point group: c1

    Geometry (in Angstrom), charge = -1, multiplicity = 1:

       Center              X                  Y                   Z               Mass
    ------------   -----------------  -----------------  -----------------  -----------------
         P           -0.793301196841     0.078720050580    -0.092619902662    30.973761998420
         O            0.742668403159    -0.502201849420    -0.339341502662    15.994914619570
         O           -0.990371596841    -0.149040849420     1.520689497338    15.994914619570
         O           -1.679515596841    -1.036666849420    -0.796210502662    15.994914619570
         O           -0.917591596841     1.479193150580    -0.440473502662    15.994914619570
         C            1.714837603159     0.422662650580     0.182585597338    12.000000000000
         C            3.102716403159    -0.305430849420    -0.056294502662    12.000000000000
         H            1.719672403159     1.332652150580    -0.368380502662     1.007825032230
         H            1.598567403159     0.567675150580     1.225758497338     1.007825032230
         H            3.141754403159    -1.249379849420     0.491954497338     1.007825032230
         H            3.256754403159    -0.508885849420    -1.118591502662     1.007825032230
         H            3.917739403159     0.334621150580     0.295801497338     1.007825032230
         H           -1.466330596841    -0.979385849420     1.694466497338     1.007825032230

  Basis Set: AUG-CC-PVTZ
    Blend: AUG-CC-PVTZ
  Basis Set: (AUG-CC-PVTZ AUX)
    Blend: AUG-CC-PVTZ-JKFIT
	 Reference Energy          =    -719.7380031841300934 [Eh]
	 Singles Energy            =      -0.0000000000000000 [Eh]
	 Same-Spin Energy          =      -0.4149083095717160 [Eh]
	 Opposite-Spin Energy      =      -1.2376466136813957 [Eh]
	 Correlation Energy        =      -1.6525549232531116 [Eh]
	 Total Energy              =    -721.3905581073831854 [Eh]

	 ================> DF-SCS-MP2 Energies <==================
	-----------------------------------------------------------
	 SCS Same-Spin Scale       =       0.3333333333333333 [-]
	 SCS Opposite-Spin Scale   =       1.2000000000000000 [-]
	 SCS Same-Spin Energy      =      -0.1383027698572387 [Eh]
	 SCS Opposite-Spin Energy  =      -1.4851759364176749 [Eh]
	 SCS Correlation Energy    =      -1.6234787062749136 [Eh]
	 SCS Total Energy          =    -721.3614818904050026 [Eh]
	-----------------------------------------------------------

  Dipole Moment: [D]
     X:     5.3963      Y:    -0.1804      Z:     3.1548     Total:     6.2534

*** Psi4 exiting successfully. Buy a developer a beer!
