                               Psi4 1.3.2 release

  ==> Input File <==

--------------------------------------------------------------------------
#psi4
#
memory 32 gb

molecule  {
-1 1
  P       -0.9206940     0.0325050    -0.1379180
  O        0.6460740    -0.4769070    -0.3459610
  O       -1.0869660    -0.1237460     1.5140700
  O       -1.7761100    -1.0113720    -0.8028300
  O       -1.0141860     1.5044880    -0.4470930
  C        1.6724330     0.4007460     0.1532460
  C        3.0061220    -0.2801360    -0.0629140
  H        1.6230780     1.3579470    -0.3750000
  H        1.5019730     0.5929700     1.2191390
  H        3.0451600    -1.2240850     0.4853350
  H        3.1601600    -0.4835910    -1.1252110
  H        3.8211450     0.3599160     0.2891820
  H       -1.5139949    -0.8687289     1.6699822
units angstrom
no_reorient  #important for SAPT in psi4, default
symmetry c1  #important for SAPT in psi4, default
}

set PROPERTIES_ORIGIN ["COM"]
properties('MP2/aug-cc-pvtz', properties = ['dipole'])
--------------------------------------------------------------------------

    Molecular point group: c1
  Charge       = -1
  Multiplicity = 1
  Basis Set: AUG-CC-PVTZ
    Blend: AUG-CC-PVTZ
  Basis Set: (AUG-CC-PVTZ AUX)
    Blend: AUG-CC-PVTZ-JKFIT

    Orbital Energies [Eh]
    ---------------------

    Doubly Occupied:

       1A    -79.881403     2A    -20.401339     3A    -20.395922
       4A    -20.306568     5A    -20.304692     6A    -11.141027
       7A    -11.101317     8A     -7.396896     9A     -5.295704
      10A     -5.294927    11A     -5.293520    12A     -1.240678
      13A     -1.193615    14A     -1.100530    15A     -1.061966
      16A     -0.889117    17A     -0.710064    18A     -0.621429
      19A     -0.544249    20A     -0.514554    21A     -0.470734
      22A     -0.445436    23A     -0.428299    24A     -0.421843
      25A     -0.396214    26A     -0.372837    27A     -0.356598
      28A     -0.328969    29A     -0.305566    30A     -0.285923
      31A     -0.267125    32A     -0.253529    33A     -0.238999

  @DF-RHF Final Energy:  -719.75155749168187

   => Energetics <=

    Nuclear Repulsion Energy =            424.9470693321150634
    One-Electron Energy =               -1850.8740784224339677
    Two-Electron Energy =                 706.1754515986370961
    Total Energy =                       -719.7515574916818650
  Basis Set: (AUG-CC-PVTZ AUX)
    Blend: AUG-CC-PVTZ-RI
    Molecular point group: c1

    Geometry (in Angstrom), charge = -1, multiplicity = 1:

       Center              X                  Y                   Z               Mass
    ------------   -----------------  -----------------  -----------------  -----------------
         P           -0.822064789019     0.028773595132    -0.119389197629    30.973761998420
         O            0.744703210981    -0.480638404868    -0.327432197629    15.994914619570
         O           -0.988336789019    -0.127477404868     1.532598802371    15.994914619570
         O           -1.677480789019    -1.015103404868    -0.784301197629    15.994914619570
         O           -0.915556789019     1.500756595132    -0.428564197629    15.994914619570
         C            1.771062210981     0.397014595132     0.171774802371    12.000000000000
         C            3.104751210981    -0.283867404868    -0.044385197629    12.000000000000
         H            1.721707210981     1.354215595132    -0.356471197629     1.007825032230
         H            1.600602210981     0.589238595132     1.237667802371     1.007825032230
         H            3.143789210981    -1.227816404868     0.503863802371     1.007825032230
         H            3.258789210981    -0.487322404868    -1.106682197629     1.007825032230
         H            3.919774210981     0.356184595132     0.307710802371     1.007825032230
         H           -1.415365689019    -0.872460304868     1.688511002371     1.007825032230

  Basis Set: AUG-CC-PVTZ
    Blend: AUG-CC-PVTZ
  Basis Set: (AUG-CC-PVTZ AUX)
    Blend: AUG-CC-PVTZ-JKFIT
	 Reference Energy          =    -719.7515574916818650 [Eh]
	 Singles Energy            =      -0.0000000000000000 [Eh]
	 Same-Spin Energy          =      -0.4135736161859563 [Eh]
	 Opposite-Spin Energy      =      -1.2341132124485594 [Eh]
	 Correlation Energy        =      -1.6476868286345159 [Eh]
	 Total Energy              =    -721.3992443203163702 [Eh]

	 ================> DF-SCS-MP2 Energies <==================
	-----------------------------------------------------------
	 SCS Same-Spin Scale       =       0.3333333333333333 [-]
	 SCS Opposite-Spin Scale   =       1.2000000000000000 [-]
	 SCS Same-Spin Energy      =      -0.1378578720619854 [Eh]
	 SCS Opposite-Spin Energy  =      -1.4809358549382712 [Eh]
	 SCS Correlation Energy    =      -1.6187937270002566 [Eh]
	 SCS Total Energy          =    -721.3703512186821172 [Eh]
	-----------------------------------------------------------

  Dipole Moment: [D]
     X:     5.1755      Y:    -1.0336      Z:     2.6615     Total:     5.9108

*** Psi4 exiting successfully. Buy a developer a beer!
