                               Psi4 1.4a3.dev225

  ==> Input File <==

--------------------------------------------------------------------------
#psi4
#
memory 32 gb

molecule  {
-1 1
  P       -0.9277810     0.0961130     0.0976350
  O        0.6938852     0.6087464    -0.0444403
  O       -1.0769050    -0.8632740    -1.2547320
  O       -1.7527520     1.3345500    -0.1191100
  O       -1.0827680    -0.7945940     1.3071650
  C        1.6614230    -0.4105840     0.1296040
  C        3.0075080     0.2459920    -0.0890990
  H        1.5881620    -0.8381400     1.1347230
  H        1.5022440    -1.2178370    -0.5954040
  H        3.0701330     0.6620790    -1.0974680
  H        3.1582490     1.0535750     0.6314230
  H        3.8108830    -0.4860100     0.0361070
  H       -1.0981360    -1.7910910    -0.9612950
units angstrom
no_reorient  #important for SAPT in psi4, default
symmetry c1  #important for SAPT in psi4, default
}

set PROPERTIES_ORIGIN ["COM"]
properties('MP2/aug-cc-pvtz', properties = ['dipole'])
--------------------------------------------------------------------------

    Molecular point group: c1
  Charge       = -1
  Multiplicity = 1
  Basis Set: AUG-CC-PVTZ
    Blend: AUG-CC-PVTZ
  Basis Set: (AUG-CC-PVTZ AUX)
    Blend: AUG-CC-PVTZ-JKFIT

    Orbital Energies [Eh]
    ---------------------

    Doubly Occupied:

       1A    -79.886703     2A    -20.411703     3A    -20.401447
       4A    -20.315986     5A    -20.302068     6A    -11.140275
       7A    -11.099396     8A     -7.401576     9A     -5.300331
      10A     -5.299539    11A     -5.298169    12A     -1.228275
      13A     -1.183685    14A     -1.102122    15A     -1.063261
      16A     -0.885453    17A     -0.708443    18A     -0.607122
      19A     -0.536439    20A     -0.516762    21A     -0.472958
      22A     -0.446655    23A     -0.424648    24A     -0.416162
      25A     -0.395515    26A     -0.378948    27A     -0.347397
      28A     -0.334060    29A     -0.304469    30A     -0.286838
      31A     -0.269722    32A     -0.254504    33A     -0.240280

  @DF-RHF Final Energy:  -719.75200758090079

   => Energetics <=

    Nuclear Repulsion Energy =            423.2341111969307690
    One-Electron Energy =               -1847.4504201887789350
    Two-Electron Energy =                 704.4643014109473143
    Total Energy =                       -719.7520075809007949
  Basis Set: (AUG-CC-PVTZ AUX)
    Blend: AUG-CC-PVTZ-RI
    Molecular point group: c1

    Geometry (in Angstrom), charge = -1, multiplicity = 1:

       Center              X                  Y                   Z               Mass
    ------------   -----------------  -----------------  -----------------  -----------------
         P           -0.831267021941     0.072678072311     0.090640690565    30.973761998420
         O            0.790399178059     0.585311472311    -0.051434609435    15.994914619570
         O           -0.980391021941    -0.886708927689    -1.261726309435    15.994914619570
         O           -1.656238021941     1.311115072311    -0.126104309435    15.994914619570
         O           -0.986254021941    -0.818028927689     1.300170690565    15.994914619570
         C            1.757936978059    -0.434018927689     0.122609690565    12.000000000000
         C            3.104021978059     0.222557072311    -0.096093309435    12.000000000000
         H            1.684675978059    -0.861574927689     1.127728690565     1.007825032230
         H            1.598757978059    -1.241271927689    -0.602398309435     1.007825032230
         H            3.166646978059     0.638644072311    -1.104462309435     1.007825032230
         H            3.254762978059     1.030140072311     0.624428690565     1.007825032230
         H            3.907396978059    -0.509444927689     0.029112690565     1.007825032230
         H           -1.001622021941    -1.814525927689    -0.968289309435     1.007825032230

  Basis Set: AUG-CC-PVTZ
    Blend: AUG-CC-PVTZ
  Basis Set: (AUG-CC-PVTZ AUX)
    Blend: AUG-CC-PVTZ-JKFIT
	 Reference Energy          =    -719.7520075809007949 [Eh]
	 Singles Energy            =      -0.0000000000000000 [Eh]
	 Same-Spin Energy          =      -0.4154857727053584 [Eh]
	 Opposite-Spin Energy      =      -1.2384942618722699 [Eh]
	 Correlation Energy        =      -1.6539800345776283 [Eh]
	 Total Energy              =    -721.4059876154784661 [Eh]

	 ================> DF-SCS-MP2 Energies <==================
	-----------------------------------------------------------
	 SCS Same-Spin Scale       =       0.3333333333333333 [-]
	 SCS Opposite-Spin Scale   =       1.2000000000000000 [-]
	 SCS Same-Spin Energy      =      -0.1384952575684528 [Eh]
	 SCS Opposite-Spin Energy  =      -1.4861931142467237 [Eh]
	 SCS Correlation Energy    =      -1.6246883718151766 [Eh]
	 SCS Total Energy          =    -721.3766959527159770 [Eh]
	-----------------------------------------------------------

  Dipole Moment: [D]
     X:     5.4730      Y:    -3.0237      Z:    -1.3527     Total:     6.3974

*** Psi4 exiting successfully. Buy a developer a beer!
