                               Psi4 1.4a3.dev225

  ==> Input File <==

--------------------------------------------------------------------------
#psi4
#
memory 32 gb

molecule  {
-1 1
  P       -0.9277810     0.0961130     0.0976350
  O        0.6463760     0.5937280    -0.0402780
  O       -1.0724263    -0.8344601    -1.2141155
  O       -1.7527520     1.3345500    -0.1191100
  O       -1.0827680    -0.7945940     1.3071650
  C        1.6614230    -0.4105840     0.1296040
  C        3.0075080     0.2459920    -0.0890990
  H        1.5881620    -0.8381400     1.1347230
  H        1.5022440    -1.2178370    -0.5954040
  H        3.0701330     0.6620790    -1.0974680
  H        3.1582490     1.0535750     0.6314230
  H        3.8108830    -0.4860100     0.0361070
  H       -1.0981360    -1.7910910    -0.9612950
units angstrom
no_reorient  #important for SAPT in psi4, default
symmetry c1  #important for SAPT in psi4, default
}

set PROPERTIES_ORIGIN ["COM"]
properties('MP2/aug-cc-pvtz', properties = ['dipole'])
--------------------------------------------------------------------------

    Molecular point group: c1
  Charge       = -1
  Multiplicity = 1
  Basis Set: AUG-CC-PVTZ
    Blend: AUG-CC-PVTZ
  Basis Set: (AUG-CC-PVTZ AUX)
    Blend: AUG-CC-PVTZ-JKFIT

    Orbital Energies [Eh]
    ---------------------

    Doubly Occupied:

       1A    -79.874159     2A    -20.410605     3A    -20.399305
       4A    -20.306142     5A    -20.293187     6A    -11.144980
       7A    -11.103133     8A     -7.390564     9A     -5.289505
      10A     -5.288608    11A     -5.287130    12A     -1.236081
      13A     -1.184565    14A     -1.093283    15A     -1.055870
      16A     -0.891041    17A     -0.713055    18A     -0.612122
      19A     -0.540733    20A     -0.517748    21A     -0.471831
      22A     -0.448446    23A     -0.427612    24A     -0.419552
      25A     -0.393931    26A     -0.380891    27A     -0.342032
      28A     -0.334428    29A     -0.307795    30A     -0.282193
      31A     -0.263851    32A     -0.246626    33A     -0.231901

  @DF-RHF Final Energy:  -719.75477317989589

   => Energetics <=

    Nuclear Repulsion Energy =            426.2989514741557286
    One-Electron Energy =               -1853.7416415948944177
    Two-Electron Energy =                 707.6879169408427970
    Total Energy =                       -719.7547731798958921
  Basis Set: (AUG-CC-PVTZ AUX)
    Blend: AUG-CC-PVTZ-RI
    Molecular point group: c1

    Geometry (in Angstrom), charge = -1, multiplicity = 1:

       Center              X                  Y                   Z               Mass
    ------------   -----------------  -----------------  -----------------  -----------------
         P           -0.825760884881     0.070912814788     0.084910842894    30.973761998420
         O            0.748396115119     0.568527814788    -0.053002157106    15.994914619570
         O           -0.970406184881    -0.859660285212    -1.226839657106    15.994914619570
         O           -1.650731884881     1.309349814788    -0.131834157106    15.994914619570
         O           -0.980747884881    -0.819794185212     1.294440842894    15.994914619570
         C            1.763443115119    -0.435784185212     0.116879842894    12.000000000000
         C            3.109528115119     0.220791814788    -0.101823157106    12.000000000000
         H            1.690182115119    -0.863340185212     1.121998842894     1.007825032230
         H            1.604264115119    -1.243037185212    -0.608128157106     1.007825032230
         H            3.172153115119     0.636878814788    -1.110192157106     1.007825032230
         H            3.260269115119     1.028374814788     0.618698842894     1.007825032230
         H            3.912903115119    -0.511210185212     0.023382842894     1.007825032230
         H           -0.996115884881    -1.816291185212    -0.974019157106     1.007825032230

  Basis Set: AUG-CC-PVTZ
    Blend: AUG-CC-PVTZ
  Basis Set: (AUG-CC-PVTZ AUX)
    Blend: AUG-CC-PVTZ-JKFIT
	 Reference Energy          =    -719.7547731798958921 [Eh]
	 Singles Energy            =      -0.0000000000000000 [Eh]
	 Same-Spin Energy          =      -0.4146015393091977 [Eh]
	 Opposite-Spin Energy      =      -1.2358933868665529 [Eh]
	 Correlation Energy        =      -1.6504949261757507 [Eh]
	 Total Energy              =    -721.4052681060716168 [Eh]

	 ================> DF-SCS-MP2 Energies <==================
	-----------------------------------------------------------
	 SCS Same-Spin Scale       =       0.3333333333333333 [-]
	 SCS Opposite-Spin Scale   =       1.2000000000000000 [-]
	 SCS Same-Spin Energy      =      -0.1382005131030659 [Eh]
	 SCS Opposite-Spin Energy  =      -1.4830720642398634 [Eh]
	 SCS Correlation Energy    =      -1.6212725773429293 [Eh]
	 SCS Total Energy          =    -721.3760457572387850 [Eh]
	-----------------------------------------------------------

  Dipole Moment: [D]
     X:     5.8073      Y:    -3.1849      Z:    -1.6125     Total:     6.8168

*** Psi4 exiting successfully. Buy a developer a beer!
