                               Psi4 1.3.2 release

  ==> Input File <==

--------------------------------------------------------------------------
#psi4
#
memory 32 gb

molecule  {
-1 1
  P       -0.9206940     0.0325050    -0.1379180
  O        0.6386884    -0.4588816    -0.3618343
  O       -1.0869660    -0.1237460     1.5140700
  O       -1.7761100    -1.0113720    -0.8028300
  O       -1.0141860     1.5044880    -0.4470930
  C        1.6724330     0.4007460     0.1532460
  C        3.0061220    -0.2801360    -0.0629140
  H        1.6083372     1.3513631    -0.3852077
  H        1.5019730     0.5929700     1.2191390
  H        3.0451600    -1.2240850     0.4853350
  H        3.1601600    -0.4835910    -1.1252110
  H        3.8211450     0.3599160     0.2891820
  H       -1.5629250    -0.9540910     1.6878470
units angstrom
no_reorient  #important for SAPT in psi4, default
symmetry c1  #important for SAPT in psi4, default
}

set PROPERTIES_ORIGIN ["COM"]
properties('MP2/aug-cc-pvtz', properties = ['dipole'])
--------------------------------------------------------------------------

    Molecular point group: c1
  Charge       = -1
  Multiplicity = 1
  Basis Set: AUG-CC-PVTZ
    Blend: AUG-CC-PVTZ
  Basis Set: (AUG-CC-PVTZ AUX)
    Blend: AUG-CC-PVTZ-JKFIT

    Orbital Energies [Eh]
    ---------------------

    Doubly Occupied:

       1A    -79.878924     2A    -20.405507     3A    -20.400058
       4A    -20.304529     5A    -20.302348     6A    -11.141109
       7A    -11.101907     8A     -7.394564     9A     -5.293366
      10A     -5.292627    11A     -5.291183    12A     -1.229268
      13A     -1.179699    14A     -1.095971    15A     -1.060136
      16A     -0.889602    17A     -0.710755    18A     -0.605252
      19A     -0.534547    20A     -0.514264    21A     -0.465613
      22A     -0.444897    23A     -0.427238    24A     -0.422085
      25A     -0.395154    26A     -0.370525    27A     -0.355265
      28A     -0.326582    29A     -0.305129    30A     -0.284273
      31A     -0.265362    32A     -0.251016    33A     -0.236783

  @DF-RHF Final Energy:  -719.75691012819300

   => Energetics <=

    Nuclear Repulsion Energy =            424.5691088128637034
    One-Electron Energy =               -1850.3009572150426720
    Two-Electron Energy =                 705.9749382739859129
    Total Energy =                       -719.7569101281929989
  Basis Set: (AUG-CC-PVTZ AUX)
    Blend: AUG-CC-PVTZ-RI
    Molecular point group: c1

    Geometry (in Angstrom), charge = -1, multiplicity = 1:

       Center              X                  Y                   Z               Mass
    ------------   -----------------  -----------------  -----------------  -----------------
         P           -0.820606383998     0.027208405745    -0.117419802980    30.973761998420
         O            0.738776016002    -0.464178194255    -0.341336102980    15.994914619570
         O           -0.986878383998    -0.129042594255     1.534568197020    15.994914619570
         O           -1.676022383998    -1.016668594255    -0.782331802980    15.994914619570
         O           -0.914098383998     1.499191405745    -0.426594802980    15.994914619570
         C            1.772520616002     0.395449405745     0.173744197020    12.000000000000
         C            3.106209616002    -0.285432594255    -0.042415802980    12.000000000000
         H            1.708424816002     1.346066505745    -0.364709502980     1.007825032230
         H            1.602060616002     0.587673405745     1.239637197020     1.007825032230
         H            3.145247616002    -1.229381594255     0.505833197020     1.007825032230
         H            3.260247616002    -0.488887594255    -1.104712802980     1.007825032230
         H            3.921232616002     0.354619405745     0.309680197020     1.007825032230
         H           -1.462837383998    -0.959387594255     1.708345197020     1.007825032230

  Basis Set: AUG-CC-PVTZ
    Blend: AUG-CC-PVTZ
  Basis Set: (AUG-CC-PVTZ AUX)
    Blend: AUG-CC-PVTZ-JKFIT
	 Reference Energy          =    -719.7569101281929989 [Eh]
	 Singles Energy            =      -0.0000000000000000 [Eh]
	 Same-Spin Energy          =      -0.4145830514004126 [Eh]
	 Opposite-Spin Energy      =      -1.2364378960919253 [Eh]
	 Correlation Energy        =      -1.6510209474923379 [Eh]
	 Total Energy              =    -721.4079310756853829 [Eh]

	 ================> DF-SCS-MP2 Energies <==================
	-----------------------------------------------------------
	 SCS Same-Spin Scale       =       0.3333333333333333 [-]
	 SCS Opposite-Spin Scale   =       1.2000000000000000 [-]
	 SCS Same-Spin Energy      =      -0.1381943504668042 [Eh]
	 SCS Opposite-Spin Energy  =      -1.4837254753103104 [Eh]
	 SCS Correlation Energy    =      -1.6219198257771146 [Eh]
	 SCS Total Energy          =    -721.3788299539701256 [Eh]
	-----------------------------------------------------------

  Dipole Moment: [D]
     X:     5.1908      Y:    -1.1468      Z:     2.7260     Total:     5.9742

*** Psi4 exiting successfully. Buy a developer a beer!
