                               Psi4 1.3.2 release

  ==> Input File <==

--------------------------------------------------------------------------
#psi4
#
memory 32 gb

molecule  {
-1 1
  P       -0.9206940     0.0325050    -0.1379180
  O        0.6116496    -0.4428393    -0.3325499
  O       -1.0869660    -0.1237460     1.5140700
  O       -1.7761100    -1.0113720    -0.8028300
  O       -1.0141860     1.5044880    -0.4470930
  C        1.6724330     0.4007460     0.1532460
  C        3.0299460    -0.2383319    -0.0411496
  H        1.6230780     1.3579470    -0.3750000
  H        1.5019730     0.5929700     1.2191390
  H        3.0451600    -1.2240850     0.4853350
  H        3.1601600    -0.4835910    -1.1252110
  H        3.8211450     0.3599160     0.2891820
  H       -1.5629250    -0.9540910     1.6878470
units angstrom
no_reorient  #important for SAPT in psi4, default
symmetry c1  #important for SAPT in psi4, default
}

set PROPERTIES_ORIGIN ["COM"]
properties('MP2/aug-cc-pvtz', properties = ['dipole'])
--------------------------------------------------------------------------

    Molecular point group: c1
  Charge       = -1
  Multiplicity = 1
  Basis Set: AUG-CC-PVTZ
    Blend: AUG-CC-PVTZ
  Basis Set: (AUG-CC-PVTZ AUX)
    Blend: AUG-CC-PVTZ-JKFIT

    Orbital Energies [Eh]
    ---------------------

    Doubly Occupied:

       1A    -79.875331     2A    -20.401811     3A    -20.401540
       4A    -20.303044     5A    -20.299122     6A    -11.144295
       7A    -11.104847     8A     -7.391484     9A     -5.290400
      10A     -5.289542    11A     -5.288086    12A     -1.235084
      13A     -1.179251    14A     -1.093906    15A     -1.058143
      16A     -0.894789    17A     -0.715665    18A     -0.605812
      19A     -0.537954    20A     -0.512006    21A     -0.468272
      22A     -0.446782    23A     -0.439557    24A     -0.424279
      25A     -0.389439    26A     -0.366256    27A     -0.355716
      28A     -0.324678    29A     -0.306222    30A     -0.283809
      31A     -0.264242    32A     -0.248711    33A     -0.234543

  @DF-RHF Final Energy:  -719.75444507720226

   => Energetics <=

    Nuclear Repulsion Energy =            425.4637316507685796
    One-Electron Energy =               -1852.0871149703859828
    Two-Electron Energy =                 706.8689382424151972
    Total Energy =                       -719.7544450772022628
  Basis Set: (AUG-CC-PVTZ AUX)
    Blend: AUG-CC-PVTZ-RI
    Molecular point group: c1

    Geometry (in Angstrom), charge = -1, multiplicity = 1:

       Center              X                  Y                   Z               Mass
    ------------   -----------------  -----------------  -----------------  -----------------
         P           -0.819552473922     0.021089385186    -0.123338680254    30.973761998420
         O            0.712791126078    -0.454254914814    -0.317970580254    15.994914619570
         O           -0.985824473922    -0.135161614814     1.528649319746    15.994914619570
         O           -1.674968473922    -1.022787614814    -0.788250680254    15.994914619570
         O           -0.913044473922     1.493072385186    -0.432513680254    15.994914619570
         C            1.773574526078     0.389330385186     0.167825319746    12.000000000000
         C            3.131087526078    -0.249747514814    -0.026570280254    12.000000000000
         H            1.724219526078     1.346531385186    -0.360420680254     1.007825032230
         H            1.603114526078     0.581554385186     1.233718319746     1.007825032230
         H            3.146301526078    -1.235500614814     0.499914319746     1.007825032230
         H            3.261301526078    -0.495006614814    -1.110631680254     1.007825032230
         H            3.922286526078     0.348500385186     0.303761319746     1.007825032230
         H           -1.461783473922    -0.965506614814     1.702426319746     1.007825032230

  Basis Set: AUG-CC-PVTZ
    Blend: AUG-CC-PVTZ
  Basis Set: (AUG-CC-PVTZ AUX)
    Blend: AUG-CC-PVTZ-JKFIT
	 Reference Energy          =    -719.7544450772022628 [Eh]
	 Singles Energy            =      -0.0000000000000000 [Eh]
	 Same-Spin Energy          =      -0.4141609897656963 [Eh]
	 Opposite-Spin Energy      =      -1.2352599700634670 [Eh]
	 Correlation Energy        =      -1.6494209598291634 [Eh]
	 Total Energy              =    -721.4038660370314346 [Eh]

	 ================> DF-SCS-MP2 Energies <==================
	-----------------------------------------------------------
	 SCS Same-Spin Scale       =       0.3333333333333333 [-]
	 SCS Opposite-Spin Scale   =       1.2000000000000000 [-]
	 SCS Same-Spin Energy      =      -0.1380536632552321 [Eh]
	 SCS Opposite-Spin Energy  =      -1.4823119640761604 [Eh]
	 SCS Correlation Energy    =      -1.6203656273313924 [Eh]
	 SCS Total Energy          =    -721.3748107045336155 [Eh]
	-----------------------------------------------------------

  Dipole Moment: [D]
     X:     5.4232      Y:    -1.1480      Z:     2.6961     Total:     6.1642

*** Psi4 exiting successfully. Buy a developer a beer!
