                               Psi4 1.3.2 release

  ==> Input File <==

--------------------------------------------------------------------------
#psi4
#
memory 32 gb

molecule  {
-1 1
  P       -0.9206940     0.0325050    -0.1379180
  O        0.6381025    -0.5037105    -0.3383450
  O       -1.0869660    -0.1237460     1.5140700
  O       -1.7761100    -1.0113720    -0.8028300
  O       -1.0399083     1.5037625    -0.4416500
  C        1.6724330     0.4007460     0.1532460
  C        3.0061220    -0.2801360    -0.0629140
  H        1.6230780     1.3579470    -0.3750000
  H        1.5019730     0.5929700     1.2191390
  H        3.0451600    -1.2240850     0.4853350
  H        3.1601600    -0.4835910    -1.1252110
  H        3.8211450     0.3599160     0.2891820
  H       -1.5629250    -0.9540910     1.6878470
units angstrom
no_reorient  #important for SAPT in psi4, default
symmetry c1  #important for SAPT in psi4, default
}

set PROPERTIES_ORIGIN ["COM"]
properties('MP2/aug-cc-pvtz', properties = ['dipole'])
--------------------------------------------------------------------------

    Molecular point group: c1
  Charge       = -1
  Multiplicity = 1
  Basis Set: AUG-CC-PVTZ
    Blend: AUG-CC-PVTZ
  Basis Set: (AUG-CC-PVTZ AUX)
    Blend: AUG-CC-PVTZ-JKFIT

    Orbital Energies [Eh]
    ---------------------

    Doubly Occupied:

       1A    -79.879124     2A    -20.403383     3A    -20.403015
       4A    -20.305303     5A    -20.302491     6A    -11.143565
       7A    -11.102504     8A     -7.394716     9A     -5.293501
      10A     -5.292717    11A     -5.291359    12A     -1.225490
      13A     -1.175681    14A     -1.096060    15A     -1.060108
      16A     -0.890575    17A     -0.710272    18A     -0.603832
      19A     -0.532740    20A     -0.512353    21A     -0.463912
      22A     -0.443449    23A     -0.426621    24A     -0.419991
      25A     -0.395162    26A     -0.371391    27A     -0.352973
      28A     -0.329436    29A     -0.306919    30A     -0.284638
      31A     -0.265287    32A     -0.251582    33A     -0.236740

  @DF-RHF Final Energy:  -719.75468455834061

   => Energetics <=

    Nuclear Repulsion Energy =            423.7925489976929043
    One-Electron Energy =               -1848.7606838987005631
    Two-Electron Energy =                 705.2134503426671017
    Total Energy =                       -719.7546845583406139
  Basis Set: (AUG-CC-PVTZ AUX)
    Blend: AUG-CC-PVTZ-RI
    Molecular point group: c1

    Geometry (in Angstrom), charge = -1, multiplicity = 1:

       Center              X                  Y                   Z               Mass
    ------------   -----------------  -----------------  -----------------  -----------------
         P           -0.817358863504     0.032984415171    -0.121204249708    30.973761998420
         O            0.741437636496    -0.503231084829    -0.321631249708    15.994914619570
         O           -0.983630863504    -0.123266584829     1.530783750292    15.994914619570
         O           -1.672774863504    -1.010892584829    -0.786116249708    15.994914619570
         O           -0.936573163504     1.504241915171    -0.424936249708    15.994914619570
         C            1.775768136496     0.401225415171     0.169959750292    12.000000000000
         C            3.109457136496    -0.279656584829    -0.046200249708    12.000000000000
         H            1.726413136496     1.358426415171    -0.358286249708     1.007825032230
         H            1.605308136496     0.593449415171     1.235852750292     1.007825032230
         H            3.148495136496    -1.223605584829     0.502048750292     1.007825032230
         H            3.263495136496    -0.483111584829    -1.108497249708     1.007825032230
         H            3.924480136496     0.360395415171     0.305895750292     1.007825032230
         H           -1.459589863504    -0.953611584829     1.704560750292     1.007825032230

  Basis Set: AUG-CC-PVTZ
    Blend: AUG-CC-PVTZ
  Basis Set: (AUG-CC-PVTZ AUX)
    Blend: AUG-CC-PVTZ-JKFIT
	 Reference Energy          =    -719.7546845583406139 [Eh]
	 Singles Energy            =      -0.0000000000000000 [Eh]
	 Same-Spin Energy          =      -0.4148359936963608 [Eh]
	 Opposite-Spin Energy      =      -1.2373756167857408 [Eh]
	 Correlation Energy        =      -1.6522116104821016 [Eh]
	 Total Energy              =    -721.4068961688227546 [Eh]

	 ================> DF-SCS-MP2 Energies <==================
	-----------------------------------------------------------
	 SCS Same-Spin Scale       =       0.3333333333333333 [-]
	 SCS Opposite-Spin Scale   =       1.2000000000000000 [-]
	 SCS Same-Spin Energy      =      -0.1382786645654536 [Eh]
	 SCS Opposite-Spin Energy  =      -1.4848507401428890 [Eh]
	 SCS Correlation Energy    =      -1.6231294047083427 [Eh]
	 SCS Total Energy          =    -721.3778139630489932 [Eh]
	-----------------------------------------------------------

  Dipole Moment: [D]
     X:     5.2773      Y:    -1.0290      Z:     2.6835     Total:     6.0092

*** Psi4 exiting successfully. Buy a developer a beer!
