                               Psi4 1.4a3.dev225

  ==> Input File <==

--------------------------------------------------------------------------
#psi4
#
memory 32 gb

molecule  {
-1 1
  P       -0.9277810     0.0961130     0.0976350
  O        0.6463760     0.5937280    -0.0402780
  O       -1.0769050    -0.8632740    -1.2547320
  O       -1.7527520     1.3345500    -0.1191100
  O       -1.0827680    -0.7945940     1.3071650
  C        1.6261291    -0.3756634     0.1236971
  C        3.0075080     0.2459920    -0.0890990
  H        1.5881620    -0.8381400     1.1347230
  H        1.5022440    -1.2178370    -0.5954040
  H        3.0701330     0.6620790    -1.0974680
  H        3.1582490     1.0535750     0.6314230
  H        3.8108830    -0.4860100     0.0361070
  H       -1.0981360    -1.7910910    -0.9612950
units angstrom
no_reorient  #important for SAPT in psi4, default
symmetry c1  #important for SAPT in psi4, default
}

set PROPERTIES_ORIGIN ["COM"]
properties('MP2/aug-cc-pvtz', properties = ['dipole'])
--------------------------------------------------------------------------

    Molecular point group: c1
  Charge       = -1
  Multiplicity = 1
  Basis Set: AUG-CC-PVTZ
    Blend: AUG-CC-PVTZ
  Basis Set: (AUG-CC-PVTZ AUX)
    Blend: AUG-CC-PVTZ-JKFIT

    Orbital Energies [Eh]
    ---------------------

    Doubly Occupied:

       1A    -79.883244     2A    -20.409200     3A    -20.407241
       4A    -20.312886     5A    -20.299390     6A    -11.146670
       7A    -11.102241     8A     -7.398782     9A     -5.297627
      10A     -5.296800    11A     -5.295345    12A     -1.243034
      13A     -1.189932    14A     -1.100343    15A     -1.061336
      16A     -0.885783    17A     -0.711934    18A     -0.611608
      19A     -0.543599    20A     -0.516106    21A     -0.474060
      22A     -0.454257    23A     -0.428791    24A     -0.423028
      25A     -0.396081    26A     -0.374481    27A     -0.345471
      28A     -0.333281    29A     -0.304083    30A     -0.286896
      31A     -0.269054    32A     -0.252555    33A     -0.237968

  @DF-RHF Final Energy:  -719.75493608645115

   => Energetics <=

    Nuclear Repulsion Energy =            425.3354594576888985
    One-Electron Energy =               -1851.5945705589542740
    Two-Electron Energy =                 706.5041750148141091
    Total Energy =                       -719.7549360864511527
  Basis Set: (AUG-CC-PVTZ AUX)
    Blend: AUG-CC-PVTZ-RI
    Molecular point group: c1

    Geometry (in Angstrom), charge = -1, multiplicity = 1:

       Center              X                  Y                   Z               Mass
    ------------   -----------------  -----------------  -----------------  -----------------
         P           -0.821799590834     0.071247443159     0.090675147798    30.973761998420
         O            0.752357409166     0.568862443159    -0.047237852202    15.994914619570
         O           -0.970923590834    -0.888139556841    -1.261691852202    15.994914619570
         O           -1.646770590834     1.309684443159    -0.126069852202    15.994914619570
         O           -0.976786590834    -0.819459556841     1.300205147798    15.994914619570
         C            1.732110509166    -0.400528956841     0.116737247798    12.000000000000
         C            3.113489409166     0.221126443159    -0.096058852202    12.000000000000
         H            1.694143409166    -0.863005556841     1.127763147798     1.007825032230
         H            1.608225409166    -1.242702556841    -0.602363852202     1.007825032230
         H            3.176114409166     0.637213443159    -1.104427852202     1.007825032230
         H            3.264230409166     1.028709443159     0.624463147798     1.007825032230
         H            3.916864409166    -0.510875556841     0.029147147798     1.007825032230
         H           -0.992154590834    -1.815956556841    -0.968254852202     1.007825032230

  Basis Set: AUG-CC-PVTZ
    Blend: AUG-CC-PVTZ
  Basis Set: (AUG-CC-PVTZ AUX)
    Blend: AUG-CC-PVTZ-JKFIT
	 Reference Energy          =    -719.7549360864511527 [Eh]
	 Singles Energy            =      -0.0000000000000000 [Eh]
	 Same-Spin Energy          =      -0.4148162109719151 [Eh]
	 Opposite-Spin Energy      =      -1.2365025407947363 [Eh]
	 Correlation Energy        =      -1.6513187517666514 [Eh]
	 Total Energy              =    -721.4062548382178193 [Eh]

	 ================> DF-SCS-MP2 Energies <==================
	-----------------------------------------------------------
	 SCS Same-Spin Scale       =       0.3333333333333333 [-]
	 SCS Opposite-Spin Scale   =       1.2000000000000000 [-]
	 SCS Same-Spin Energy      =      -0.1382720703239717 [Eh]
	 SCS Opposite-Spin Energy  =      -1.4838030489536835 [Eh]
	 SCS Correlation Energy    =      -1.6220751192776552 [Eh]
	 SCS Total Energy          =    -721.3770112057287633 [Eh]
	-----------------------------------------------------------

  Dipole Moment: [D]
     X:     5.6381      Y:    -2.8966      Z:    -1.3801     Total:     6.4872

*** Psi4 exiting successfully. Buy a developer a beer!
