                               Psi4 1.3.2 release

  ==> Input File <==

--------------------------------------------------------------------------
#psi4
#
memory 32 gb

molecule  {
-1 1
  P       -0.9206940     0.0325050    -0.1379180
  O        0.6671161    -0.3955985    -0.3684196
  O       -1.0869660    -0.1237460     1.5140700
  O       -1.7761100    -1.0113720    -0.8028300
  O       -0.9368797     1.5039739    -0.4628505
  C        1.6724330     0.4007460     0.1532460
  C        3.0061220    -0.2801360    -0.0629140
  H        1.6230780     1.3579470    -0.3750000
  H        1.5019730     0.5929700     1.2191390
  H        3.0451600    -1.2240850     0.4853350
  H        3.1601600    -0.4835910    -1.1252110
  H        3.8211450     0.3599160     0.2891820
  H       -1.5629250    -0.9540910     1.6878470
units angstrom
no_reorient  #important for SAPT in psi4, default
symmetry c1  #important for SAPT in psi4, default
}

set PROPERTIES_ORIGIN ["COM"]
properties('MP2/aug-cc-pvtz', properties = ['dipole'])
--------------------------------------------------------------------------

    Molecular point group: c1
  Charge       = -1
  Multiplicity = 1
  Basis Set: AUG-CC-PVTZ
    Blend: AUG-CC-PVTZ
  Basis Set: (AUG-CC-PVTZ AUX)
    Blend: AUG-CC-PVTZ-JKFIT

    Orbital Energies [Eh]
    ---------------------

    Doubly Occupied:

       1A    -79.883744     2A    -20.411126     3A    -20.392547
       4A    -20.313502     5A    -20.301262     6A    -11.131427
       7A    -11.096289     8A     -7.398994     9A     -5.297837
      10A     -5.297123    11A     -5.295543    12A     -1.236195
      13A     -1.188039    14A     -1.100719    15A     -1.063810
      16A     -0.882793    17A     -0.707818    18A     -0.608801
      19A     -0.538983    20A     -0.514441    21A     -0.470596
      22A     -0.447002    23A     -0.427087    24A     -0.421240
      25A     -0.395888    26A     -0.369832    27A     -0.359849
      28A     -0.321258    29A     -0.296194    30A     -0.285820
      31A     -0.270420    32A     -0.250995    33A     -0.240664

  @DF-RHF Final Energy:  -719.75575860534070

   => Energetics <=

    Nuclear Repulsion Energy =            425.5989065542278240
    One-Electron Energy =               -1852.2736559187546845
    Two-Electron Energy =                 706.9189907591861584
    Total Energy =                       -719.7557586053407022
  Basis Set: (AUG-CC-PVTZ AUX)
    Blend: AUG-CC-PVTZ-RI
    Molecular point group: c1

    Geometry (in Angstrom), charge = -1, multiplicity = 1:

       Center              X                  Y                   Z               Mass
    ------------   -----------------  -----------------  -----------------  -----------------
         P           -0.834254843122     0.019123468000    -0.114643142391    30.973761998420
         O            0.753555256878    -0.408980032000    -0.345144742391    15.994914619570
         O           -1.000526843122    -0.137127532000     1.537344857609    15.994914619570
         O           -1.689670843122    -1.024753532000    -0.779555142391    15.994914619570
         O           -0.850440543122     1.490592368000    -0.439575642391    15.994914619570
         C            1.758872156878     0.387364468000     0.176520857609    12.000000000000
         C            3.092561156878    -0.293517532000    -0.039639142391    12.000000000000
         H            1.709517156878     1.344565468000    -0.351725142391     1.007825032230
         H            1.588412156878     0.579588468000     1.242413857609     1.007825032230
         H            3.131599156878    -1.237466532000     0.508609857609     1.007825032230
         H            3.246599156878    -0.496972532000    -1.101936142391     1.007825032230
         H            3.907584156878     0.346534468000     0.312456857609     1.007825032230
         H           -1.476485843122    -0.967472532000     1.711121857609     1.007825032230

  Basis Set: AUG-CC-PVTZ
    Blend: AUG-CC-PVTZ
  Basis Set: (AUG-CC-PVTZ AUX)
    Blend: AUG-CC-PVTZ-JKFIT
	 Reference Energy          =    -719.7557586053407022 [Eh]
	 Singles Energy            =      -0.0000000000000000 [Eh]
	 Same-Spin Energy          =      -0.4146509951523352 [Eh]
	 Opposite-Spin Energy      =      -1.2357612469406334 [Eh]
	 Correlation Energy        =      -1.6504122420929686 [Eh]
	 Total Energy              =    -721.4061708474337138 [Eh]

	 ================> DF-SCS-MP2 Energies <==================
	-----------------------------------------------------------
	 SCS Same-Spin Scale       =       0.3333333333333333 [-]
	 SCS Opposite-Spin Scale   =       1.2000000000000000 [-]
	 SCS Same-Spin Energy      =      -0.1382169983841117 [Eh]
	 SCS Opposite-Spin Energy  =      -1.4829134963287600 [Eh]
	 SCS Correlation Energy    =      -1.6211304947128717 [Eh]
	 SCS Total Energy          =    -721.3768891000535177 [Eh]
	-----------------------------------------------------------

  Dipole Moment: [D]
     X:     4.6377      Y:    -1.3301      Z:     2.7478     Total:     5.5523

*** Psi4 exiting successfully. Buy a developer a beer!
