                               Psi4 1.3.2 release

  ==> Input File <==

--------------------------------------------------------------------------
#psi4
#
memory 32 gb

molecule  {
-1 1
  P       -0.9206940     0.0325050    -0.1379180
  O        0.6460740    -0.4769070    -0.3459610
  O       -1.0869660    -0.1237460     1.5140700
  O       -1.7761100    -1.0113720    -0.8028300
  O       -1.0079822     1.4068119    -0.4265771
  C        1.6724330     0.4007460     0.1532460
  C        3.0061220    -0.2801360    -0.0629140
  H        1.6230780     1.3579470    -0.3750000
  H        1.5019730     0.5929700     1.2191390
  H        3.0451600    -1.2240850     0.4853350
  H        3.1601600    -0.4835910    -1.1252110
  H        3.8211450     0.3599160     0.2891820
  H       -1.5629250    -0.9540910     1.6878470
units angstrom
no_reorient  #important for SAPT in psi4, default
symmetry c1  #important for SAPT in psi4, default
}

set PROPERTIES_ORIGIN ["COM"]
properties('MP2/aug-cc-pvtz', properties = ['dipole'])
--------------------------------------------------------------------------

    Molecular point group: c1
  Charge       = -1
  Multiplicity = 1
  Basis Set: AUG-CC-PVTZ
    Blend: AUG-CC-PVTZ
  Basis Set: (AUG-CC-PVTZ AUX)
    Blend: AUG-CC-PVTZ-JKFIT

    Orbital Energies [Eh]
    ---------------------

    Doubly Occupied:

       1A    -79.858494     2A    -20.397548     3A    -20.393034
       4A    -20.299893     5A    -20.295832     6A    -11.138331
       7A    -11.099222     8A     -7.379128     9A     -5.277320
      10A     -5.277187    11A     -5.275966    12A     -1.228459
      13A     -1.172674    14A     -1.123802    15A     -1.065251
      16A     -0.886246    17A     -0.706840    18A     -0.597437
      19A     -0.532094    20A     -0.509665    21A     -0.462317
      22A     -0.441847    23A     -0.425908    24A     -0.418319
      25A     -0.397604    26A     -0.370543    27A     -0.357642
      28A     -0.330462    29A     -0.303525    30A     -0.293264
      31A     -0.273001    32A     -0.251901    33A     -0.239710

  @DF-RHF Final Energy:  -719.75393154876713

   => Energetics <=

    Nuclear Repulsion Energy =            428.7615777376383903
    One-Electron Energy =               -1858.8700914038172414
    Two-Electron Energy =                 710.3545821174117236
    Total Energy =                       -719.7539315487671274
  Basis Set: (AUG-CC-PVTZ AUX)
    Blend: AUG-CC-PVTZ-RI
    Molecular point group: c1

    Geometry (in Angstrom), charge = -1, multiplicity = 1:

       Center              X                  Y                   Z               Mass
    ------------   -----------------  -----------------  -----------------  -----------------
         P           -0.822464118009     0.041960363557    -0.122158426709    30.973761998420
         O            0.744303881991    -0.467451636443    -0.330201426709    15.994914619570
         O           -0.988736118009    -0.114290636443     1.529829573291    15.994914619570
         O           -1.677880118009    -1.001916636443    -0.787070426709    15.994914619570
         O           -0.909752318009     1.416267263557    -0.410817526709    15.994914619570
         C            1.770662881991     0.410201363557     0.169005573291    12.000000000000
         C            3.104351881991    -0.270680636443    -0.047154426709    12.000000000000
         H            1.721307881991     1.367402363557    -0.359240426709     1.007825032230
         H            1.600202881991     0.602425363557     1.234898573291     1.007825032230
         H            3.143389881991    -1.214629636443     0.501094573291     1.007825032230
         H            3.258389881991    -0.474135636443    -1.109451426709     1.007825032230
         H            3.919374881991     0.369371363557     0.304941573291     1.007825032230
         H           -1.464695118009    -0.944635636443     1.703606573291     1.007825032230

  Basis Set: AUG-CC-PVTZ
    Blend: AUG-CC-PVTZ
  Basis Set: (AUG-CC-PVTZ AUX)
    Blend: AUG-CC-PVTZ-JKFIT
	 Reference Energy          =    -719.7539315487671274 [Eh]
	 Singles Energy            =      -0.0000000000000000 [Eh]
	 Same-Spin Energy          =      -0.4127032179624186 [Eh]
	 Opposite-Spin Energy      =      -1.2318378321441585 [Eh]
	 Correlation Energy        =      -1.6445410501065771 [Eh]
	 Total Energy              =    -721.3984725988736955 [Eh]

	 ================> DF-SCS-MP2 Energies <==================
	-----------------------------------------------------------
	 SCS Same-Spin Scale       =       0.3333333333333333 [-]
	 SCS Opposite-Spin Scale   =       1.2000000000000000 [-]
	 SCS Same-Spin Energy      =      -0.1375677393208062 [Eh]
	 SCS Opposite-Spin Energy  =      -1.4782053985729902 [Eh]
	 SCS Correlation Energy    =      -1.6157731378937963 [Eh]
	 SCS Total Energy          =    -721.3697046866609526 [Eh]
	-----------------------------------------------------------

  Dipole Moment: [D]
     X:     5.0351      Y:    -0.5514      Z:     2.5670     Total:     5.6785

*** Psi4 exiting successfully. Buy a developer a beer!
