                               Psi4 1.4a3.dev225

  ==> Input File <==

--------------------------------------------------------------------------
#psi4
#
memory 32 gb

molecule  {
-1 1
  P       -0.9277810     0.0961130     0.0976350
  O        0.6463760     0.5937280    -0.0402780
  O       -1.0769050    -0.8632740    -1.2547320
  O       -1.7527520     1.3345500    -0.1191100
  O       -1.0827680    -0.7945940     1.3071650
  C        1.6614230    -0.4105840     0.1296040
  C        3.0075080     0.2459920    -0.0890990
  H        1.5881620    -0.8381400     1.1347230
  H        1.5022440    -1.2178370    -0.5954040
  H        3.0701330     0.6620790    -1.0974680
  H        3.1582490     1.0535750     0.6314230
  H        3.8108830    -0.4860100     0.0361070
  H       -1.0985722    -1.8101555    -0.9552655
units angstrom
no_reorient  #important for SAPT in psi4, default
symmetry c1  #important for SAPT in psi4, default
}

set PROPERTIES_ORIGIN ["COM"]
properties('MP2/aug-cc-pvtz', properties = ['dipole'])
--------------------------------------------------------------------------

    Molecular point group: c1
  Charge       = -1
  Multiplicity = 1
  Basis Set: AUG-CC-PVTZ
    Blend: AUG-CC-PVTZ
  Basis Set: (AUG-CC-PVTZ AUX)
    Blend: AUG-CC-PVTZ-JKFIT

    Orbital Energies [Eh]
    ---------------------

    Doubly Occupied:

       1A    -79.879964     2A    -20.409143     3A    -20.402495
       4A    -20.310644     5A    -20.297149     6A    -11.146026
       7A    -11.103896     8A     -7.395484     9A     -5.294317
      10A     -5.293499    11A     -5.292092    12A     -1.229293
      13A     -1.178472    14A     -1.096531    15A     -1.059083
      16A     -0.892049    17A     -0.714027    18A     -0.603545
      19A     -0.535073    20A     -0.517311    21A     -0.469696
      22A     -0.448478    23A     -0.427471    24A     -0.419267
      25A     -0.393895    26A     -0.377745    27A     -0.343640
      28A     -0.336027    29A     -0.308837    30A     -0.284642
      31A     -0.266706    32A     -0.249943    33A     -0.235603

  @DF-RHF Final Energy:  -719.75347619182867

   => Energetics <=

    Nuclear Repulsion Energy =            424.3030305956698385
    One-Electron Energy =               -1849.6889280684522419
    Two-Electron Energy =                 705.6324212809536220
    Total Energy =                       -719.7534761918286677
  Basis Set: (AUG-CC-PVTZ AUX)
    Blend: AUG-CC-PVTZ-RI
    Molecular point group: c1

    Geometry (in Angstrom), charge = -1, multiplicity = 1:

       Center              X                  Y                   Z               Mass
    ------------   -----------------  -----------------  -----------------  -----------------
         P           -0.825184278291     0.074753519805     0.090059473775    30.973761998420
         O            0.748972721709     0.572368519805    -0.047853526225    15.994914619570
         O           -0.974308278291    -0.884633480195    -1.262307526225    15.994914619570
         O           -1.650155278291     1.313190519805    -0.126685526225    15.994914619570
         O           -0.980171278291    -0.815953480195     1.299589473775    15.994914619570
         C            1.764019721709    -0.431943480195     0.122028473775    12.000000000000
         C            3.110104721709     0.224632519805    -0.096674526225    12.000000000000
         H            1.690758721709    -0.859499480195     1.127147473775     1.007825032230
         H            1.604840721709    -1.239196480195    -0.602979526225     1.007825032230
         H            3.172729721709     0.640719519805    -1.105043526225     1.007825032230
         H            3.260845721709     1.032215519805     0.623847473775     1.007825032230
         H            3.913479721709    -0.507369480195     0.028531473775     1.007825032230
         H           -0.995975478291    -1.831514980195    -0.962841026225     1.007825032230

  Basis Set: AUG-CC-PVTZ
    Blend: AUG-CC-PVTZ
  Basis Set: (AUG-CC-PVTZ AUX)
    Blend: AUG-CC-PVTZ-JKFIT
	 Reference Energy          =    -719.7534761918286677 [Eh]
	 Singles Energy            =      -0.0000000000000000 [Eh]
	 Same-Spin Energy          =      -0.4151009678777385 [Eh]
	 Opposite-Spin Energy      =      -1.2376616804006324 [Eh]
	 Correlation Energy        =      -1.6527626482783708 [Eh]
	 Total Energy              =    -721.4062388401069938 [Eh]

	 ================> DF-SCS-MP2 Energies <==================
	-----------------------------------------------------------
	 SCS Same-Spin Scale       =       0.3333333333333333 [-]
	 SCS Opposite-Spin Scale   =       1.2000000000000000 [-]
	 SCS Same-Spin Energy      =      -0.1383669892925795 [Eh]
	 SCS Opposite-Spin Energy  =      -1.4851940164807589 [Eh]
	 SCS Correlation Energy    =      -1.6235610057733383 [Eh]
	 SCS Total Energy          =    -721.3770371976020215 [Eh]
	-----------------------------------------------------------

  Dipole Moment: [D]
     X:     5.8592      Y:    -3.0145      Z:    -1.3670     Total:     6.7295

*** Psi4 exiting successfully. Buy a developer a beer!
