                               Psi4 1.3.2 release

  ==> Input File <==

--------------------------------------------------------------------------
#psi4
#
memory 32 gb

molecule  {
-1 1
  P       -0.9206940     0.0325050    -0.1379180
  O        0.6460740    -0.4769070    -0.3459610
  O       -1.0869660    -0.1237460     1.5140700
  O       -1.7761100    -1.0113720    -0.8028300
  O       -1.0141860     1.5044880    -0.4470930
  C        1.6724330     0.4007460     0.1532460
  C        3.0061220    -0.2801360    -0.0629140
  H        1.6230780     1.3579470    -0.3750000
  H        1.5019730     0.5929700     1.2191390
  H        3.0451600    -1.2240850     0.4853350
  H        3.1601600    -0.4835910    -1.1252110
  H        3.8211450     0.3599160     0.2891820
  H       -1.4650648    -0.7833668     1.6521173
units angstrom
no_reorient  #important for SAPT in psi4, default
symmetry c1  #important for SAPT in psi4, default
}

set PROPERTIES_ORIGIN ["COM"]
properties('MP2/aug-cc-pvtz', properties = ['dipole'])
--------------------------------------------------------------------------

    Molecular point group: c1
  Charge       = -1
  Multiplicity = 1
  Basis Set: AUG-CC-PVTZ
    Blend: AUG-CC-PVTZ
  Basis Set: (AUG-CC-PVTZ AUX)
    Blend: AUG-CC-PVTZ-JKFIT

    Orbital Energies [Eh]
    ---------------------

    Doubly Occupied:

       1A    -79.882713     2A    -20.402130     3A    -20.384492
       4A    -20.307933     5A    -20.305192     6A    -11.141572
       7A    -11.101693     8A     -7.398185     9A     -5.297011
      10A     -5.296215    11A     -5.294801    12A     -1.268221
      13A     -1.203838    14A     -1.103561    15A     -1.062762
      16A     -0.889627    17A     -0.710758    18A     -0.642572
      19A     -0.551763    20A     -0.515632    21A     -0.474995
      22A     -0.446572    23A     -0.429848    24A     -0.422935
      25A     -0.397246    26A     -0.375472    27A     -0.358323
      28A     -0.330557    29A     -0.306702    30A     -0.286792
      31A     -0.268405    32A     -0.254665    33A     -0.240009

  @DF-RHF Final Energy:  -719.71011772991767

   => Energetics <=

    Nuclear Repulsion Energy =            425.7954020994371831
    One-Electron Energy =               -1852.3046578332794070
    Two-Electron Energy =                 706.7991380039244405
    Total Energy =                       -719.7101177299176697
  Basis Set: (AUG-CC-PVTZ AUX)
    Blend: AUG-CC-PVTZ-RI
    Molecular point group: c1

    Geometry (in Angstrom), charge = -1, multiplicity = 1:

       Center              X                  Y                   Z               Mass
    ------------   -----------------  -----------------  -----------------  -----------------
         P           -0.822459291686     0.028085356683    -0.119245160509    30.973761998420
         O            0.744308708314    -0.481326643317    -0.327288160509    15.994914619570
         O           -0.988731291686    -0.128165643317     1.532742839491    15.994914619570
         O           -1.677875291686    -1.015791643317    -0.784157160509    15.994914619570
         O           -0.915951291686     1.500068356683    -0.428420160509    15.994914619570
         C            1.770667708314     0.396326356683     0.171918839491    12.000000000000
         C            3.104356708314    -0.284555643317    -0.044241160509    12.000000000000
         H            1.721312708314     1.353527356683    -0.356327160509     1.007825032230
         H            1.600207708314     0.588550356683     1.237811839491     1.007825032230
         H            3.143394708314    -1.228504643317     0.504007839491     1.007825032230
         H            3.258394708314    -0.488010643317    -1.106538160509     1.007825032230
         H            3.919379708314     0.355496356683     0.307854839491     1.007825032230
         H           -1.366830091686    -0.787786443317     1.670790139491     1.007825032230

  Basis Set: AUG-CC-PVTZ
    Blend: AUG-CC-PVTZ
  Basis Set: (AUG-CC-PVTZ AUX)
    Blend: AUG-CC-PVTZ-JKFIT
	 Reference Energy          =    -719.7101177299176697 [Eh]
	 Singles Energy            =      -0.0000000000000000 [Eh]
	 Same-Spin Energy          =      -0.4124846751809300 [Eh]
	 Opposite-Spin Energy      =      -1.2317695633556283 [Eh]
	 Correlation Energy        =      -1.6442542385365582 [Eh]
	 Total Energy              =    -721.3543719684541884 [Eh]

	 ================> DF-SCS-MP2 Energies <==================
	-----------------------------------------------------------
	 SCS Same-Spin Scale       =       0.3333333333333333 [-]
	 SCS Opposite-Spin Scale   =       1.2000000000000000 [-]
	 SCS Same-Spin Energy      =      -0.1374948917269767 [Eh]
	 SCS Opposite-Spin Energy  =      -1.4781234760267539 [Eh]
	 SCS Correlation Energy    =      -1.6156183677537306 [Eh]
	 SCS Total Energy          =    -721.3257360976714381 [Eh]
	-----------------------------------------------------------

  Dipole Moment: [D]
     X:     5.2294      Y:    -0.9638      Z:     2.6111     Total:     5.9240

*** Psi4 exiting successfully. Buy a developer a beer!
