                               Psi4 1.3.2 release

  ==> Input File <==

--------------------------------------------------------------------------
#psi4
#
memory 32 gb

molecule  {
-1 1
  P       -0.9206940     0.0325050    -0.1379180
  O        0.6296561    -0.5303506    -0.3306679
  O       -1.0869660    -0.1237460     1.5140700
  O       -1.7761100    -1.0113720    -0.8028300
  O       -1.0655942     1.5025889    -0.4361144
  C        1.6724330     0.4007460     0.1532460
  C        3.0061220    -0.2801360    -0.0629140
  H        1.6230780     1.3579470    -0.3750000
  H        1.5019730     0.5929700     1.2191390
  H        3.0451600    -1.2240850     0.4853350
  H        3.1601600    -0.4835910    -1.1252110
  H        3.8211450     0.3599160     0.2891820
  H       -1.5629250    -0.9540910     1.6878470
units angstrom
no_reorient  #important for SAPT in psi4, default
symmetry c1  #important for SAPT in psi4, default
}

set PROPERTIES_ORIGIN ["COM"]
properties('MP2/aug-cc-pvtz', properties = ['dipole'])
--------------------------------------------------------------------------

    Molecular point group: c1
  Charge       = -1
  Multiplicity = 1
  Basis Set: AUG-CC-PVTZ
    Blend: AUG-CC-PVTZ
  Basis Set: (AUG-CC-PVTZ AUX)
    Blend: AUG-CC-PVTZ-JKFIT

    Orbital Energies [Eh]
    ---------------------

    Doubly Occupied:

       1A    -79.878095     2A    -20.405288     3A    -20.401449
       4A    -20.306208     5A    -20.299726     6A    -11.146614
       7A    -11.104045     8A     -7.393767     9A     -5.292549
      10A     -5.291735    11A     -5.290416    12A     -1.223140
      13A     -1.172481    14A     -1.095136    15A     -1.058837
      16A     -0.892508    17A     -0.711182    18A     -0.602357
      19A     -0.531257    20A     -0.511800    21A     -0.462417
      22A     -0.443239    23A     -0.426435    24A     -0.418755
      25A     -0.395138    26A     -0.372314    27A     -0.351162
      28A     -0.331237    29A     -0.309024    30A     -0.284076
      31A     -0.264989    32A     -0.250163    33A     -0.235338

  @DF-RHF Final Energy:  -719.75186867978914

   => Energetics <=

    Nuclear Repulsion Energy =            423.3656578076615347
    One-Electron Energy =               -1847.9293020302718560
    Two-Electron Energy =                 704.8117755428211240
    Total Energy =                       -719.7518686797891405
  Basis Set: (AUG-CC-PVTZ AUX)
    Blend: AUG-CC-PVTZ-RI
    Molecular point group: c1

    Geometry (in Angstrom), charge = -1, multiplicity = 1:

       Center              X                  Y                   Z               Mass
    ------------   -----------------  -----------------  -----------------  -----------------
         P           -0.812991330661     0.036543426672    -0.122894932762    30.973761998420
         O            0.737358769339    -0.526312173328    -0.315644832762    15.994914619570
         O           -0.979263330661    -0.119707573328     1.529093067238    15.994914619570
         O           -1.668407330661    -1.007333573328    -0.787806932762    15.994914619570
         O           -0.957891530661     1.506627326672    -0.421091332762    15.994914619570
         C            1.780135669339     0.404784426672     0.168269067238    12.000000000000
         C            3.113824669339    -0.276097573328    -0.047890932762    12.000000000000
         H            1.730780669339     1.361985426672    -0.359976932762     1.007825032230
         H            1.609675669339     0.597008426672     1.234162067238     1.007825032230
         H            3.152862669339    -1.220046573328     0.500358067238     1.007825032230
         H            3.267862669339    -0.479552573328    -1.110187932762     1.007825032230
         H            3.928847669339     0.363954426672     0.304205067238     1.007825032230
         H           -1.455222330661    -0.950052573328     1.702870067238     1.007825032230

  Basis Set: AUG-CC-PVTZ
    Blend: AUG-CC-PVTZ
  Basis Set: (AUG-CC-PVTZ AUX)
    Blend: AUG-CC-PVTZ-JKFIT
	 Reference Energy          =    -719.7518686797891405 [Eh]
	 Singles Energy            =      -0.0000000000000000 [Eh]
	 Same-Spin Energy          =      -0.4149895723067782 [Eh]
	 Opposite-Spin Energy      =      -1.2380015141752190 [Eh]
	 Correlation Energy        =      -1.6529910864819972 [Eh]
	 Total Energy              =    -721.4048597662711018 [Eh]

	 ================> DF-SCS-MP2 Energies <==================
	-----------------------------------------------------------
	 SCS Same-Spin Scale       =       0.3333333333333333 [-]
	 SCS Opposite-Spin Scale   =       1.2000000000000000 [-]
	 SCS Same-Spin Energy      =      -0.1383298574355927 [Eh]
	 SCS Opposite-Spin Energy  =      -1.4856018170102627 [Eh]
	 SCS Correlation Energy    =      -1.6239316744458554 [Eh]
	 SCS Total Energy          =    -721.3758003542350252 [Eh]
	-----------------------------------------------------------

  Dipole Moment: [D]
     X:     5.4301      Y:    -0.9559      Z:     2.6655     Total:     6.1241

*** Psi4 exiting successfully. Buy a developer a beer!
