                               Psi4 1.3.2 release

  ==> Input File <==

--------------------------------------------------------------------------
#psi4
#
memory 32 gb

molecule  {
-1 1
  P       -0.9206940     0.0325050    -0.1379180
  O        0.6460740    -0.4769070    -0.3459610
  O       -1.0869660    -0.1237460     1.5140700
  O       -1.7761100    -1.0113720    -0.8028300
  O       -1.0141860     1.5044880    -0.4470930
  C        1.6724330     0.4007460     0.1532460
  C        3.0061220    -0.2801360    -0.0629140
  H        1.6230780     1.3579470    -0.3750000
  H        1.5019730     0.5929700     1.2191390
  H        3.0451600    -1.2240850     0.4853350
  H        3.1601600    -0.4835910    -1.1252110
  H        3.8211450     0.3599160     0.2891820
  H       -1.6118551    -1.0394531     1.7057118
units angstrom
no_reorient  #important for SAPT in psi4, default
symmetry c1  #important for SAPT in psi4, default
}

set PROPERTIES_ORIGIN ["COM"]
properties('MP2/aug-cc-pvtz', properties = ['dipole'])
--------------------------------------------------------------------------

    Molecular point group: c1
  Charge       = -1
  Multiplicity = 1
  Basis Set: AUG-CC-PVTZ
    Blend: AUG-CC-PVTZ
  Basis Set: (AUG-CC-PVTZ AUX)
    Blend: AUG-CC-PVTZ-JKFIT

    Orbital Energies [Eh]
    ---------------------

    Doubly Occupied:

       1A    -79.879152     2A    -20.412762     3A    -20.399947
       4A    -20.304212     5A    -20.304018     6A    -11.140051
       7A    -11.100627     8A     -7.394675     9A     -5.293455
      10A     -5.292713    11A     -5.291308    12A     -1.222543
      13A     -1.165024    14A     -1.093381    15A     -1.060604
      16A     -0.888202    17A     -0.708971    18A     -0.594592
      19A     -0.524650    20A     -0.509470    21A     -0.459193
      22A     -0.441408    23A     -0.425313    24A     -0.419803
      25A     -0.394398    26A     -0.368893    27A     -0.352936
      28A     -0.326184    29A     -0.303602    30A     -0.284414
      31A     -0.264952    32A     -0.251341    33A     -0.237009

  @DF-RHF Final Energy:  -719.74290381127446

   => Energetics <=

    Nuclear Repulsion Energy =            423.6079863813275779
    One-Electron Energy =               -1848.4821757652007364
    Two-Electron Energy =                 705.1312855725988129
    Total Energy =                       -719.7429038112744593
  Basis Set: (AUG-CC-PVTZ AUX)
    Blend: AUG-CC-PVTZ-RI
    Molecular point group: c1

    Geometry (in Angstrom), charge = -1, multiplicity = 1:

       Center              X                  Y                   Z               Mass
    ------------   -----------------  -----------------  -----------------  -----------------
         P           -0.821275783685     0.030150072029    -0.119677270257    30.973761998420
         O            0.745492216315    -0.479261927971    -0.327720270257    15.994914619570
         O           -0.987547783685    -0.126100927971     1.532310729743    15.994914619570
         O           -1.676691783685    -1.013726927971    -0.784589270257    15.994914619570
         O           -0.914767783685     1.502133072029    -0.428852270257    15.994914619570
         C            1.771851216315     0.398391072029     0.171486729743    12.000000000000
         C            3.105540216315    -0.282490927971    -0.044673270257    12.000000000000
         H            1.722496216315     1.355592072029    -0.356759270257     1.007825032230
         H            1.601391216315     0.590615072029     1.237379729743     1.007825032230
         H            3.144578216315    -1.226439927971     0.503575729743     1.007825032230
         H            3.259578216315    -0.485945927971    -1.106970270257     1.007825032230
         H            3.920563216315     0.357561072029     0.307422729743     1.007825032230
         H           -1.512436883685    -1.041808027971     1.723952529743     1.007825032230

  Basis Set: AUG-CC-PVTZ
    Blend: AUG-CC-PVTZ
  Basis Set: (AUG-CC-PVTZ AUX)
    Blend: AUG-CC-PVTZ-JKFIT
	 Reference Energy          =    -719.7429038112744593 [Eh]
	 Singles Energy            =      -0.0000000000000000 [Eh]
	 Same-Spin Energy          =      -0.4158349068924095 [Eh]
	 Opposite-Spin Energy      =      -1.2398623310836032 [Eh]
	 Correlation Energy        =      -1.6556972379760126 [Eh]
	 Total Energy              =    -721.3986010492504874 [Eh]

	 ================> DF-SCS-MP2 Energies <==================
	-----------------------------------------------------------
	 SCS Same-Spin Scale       =       0.3333333333333333 [-]
	 SCS Opposite-Spin Scale   =       1.2000000000000000 [-]
	 SCS Same-Spin Energy      =      -0.1386116356308032 [Eh]
	 SCS Opposite-Spin Energy  =      -1.4878347973003239 [Eh]
	 SCS Correlation Energy    =      -1.6264464329311270 [Eh]
	 SCS Total Energy          =    -721.3693502442056342 [Eh]
	-----------------------------------------------------------

  Dipole Moment: [D]
     X:     5.0694      Y:    -1.1685      Z:     2.7273     Total:     5.8739

*** Psi4 exiting successfully. Buy a developer a beer!
