                               Psi4 1.3.2 release

  ==> Input File <==

--------------------------------------------------------------------------
#psi4
#
memory 32 gb

molecule  {
-1 1
  P       -0.9206940     0.0325050    -0.1379180
  O        0.6471807    -0.4791280    -0.3316837
  O       -1.0732556    -0.1285498     1.5149315
  O       -1.7761100    -1.0113720    -0.8028300
  O       -1.0141860     1.5044880    -0.4470930
  C        1.6724330     0.4007460     0.1532460
  C        3.0061220    -0.2801360    -0.0629140
  H        1.6230780     1.3579470    -0.3750000
  H        1.5019730     0.5929700     1.2191390
  H        3.0451600    -1.2240850     0.4853350
  H        3.1601600    -0.4835910    -1.1252110
  H        3.8211450     0.3599160     0.2891820
  H       -1.5629250    -0.9540910     1.6878470
units angstrom
no_reorient  #important for SAPT in psi4, default
symmetry c1  #important for SAPT in psi4, default
}

set PROPERTIES_ORIGIN ["COM"]
properties('MP2/aug-cc-pvtz', properties = ['dipole'])
--------------------------------------------------------------------------

    Molecular point group: c1
  Charge       = -1
  Multiplicity = 1
  Basis Set: AUG-CC-PVTZ
    Blend: AUG-CC-PVTZ
  Basis Set: (AUG-CC-PVTZ AUX)
    Blend: AUG-CC-PVTZ-JKFIT

    Orbital Energies [Eh]
    ---------------------

    Doubly Occupied:

       1A    -79.880425     2A    -20.404917     3A    -20.399664
       4A    -20.306096     5A    -20.305091     6A    -11.139728
       7A    -11.100483     8A     -7.395938     9A     -5.294759
      10A     -5.293941    11A     -5.292579    12A     -1.228394
      13A     -1.178223    14A     -1.097777    15A     -1.061841
      16A     -0.888082    17A     -0.709216    18A     -0.605128
      19A     -0.533826    20A     -0.512333    21A     -0.465721
      22A     -0.443724    23A     -0.426899    24A     -0.420761
      25A     -0.395478    26A     -0.369812    27A     -0.355303
      28A     -0.327108    29A     -0.303291    30A     -0.285776
      31A     -0.266520    32A     -0.252970    33A     -0.238645

  @DF-RHF Final Energy:  -719.75656853353644

   => Energetics <=

    Nuclear Repulsion Energy =            424.3918085795650086
    One-Electron Energy =               -1849.9358632809428400
    Two-Electron Energy =                 705.7874861678412799
    Total Energy =                       -719.7565685335364378
  Basis Set: (AUG-CC-PVTZ AUX)
    Blend: AUG-CC-PVTZ-RI
    Molecular point group: c1

    Geometry (in Angstrom), charge = -1, multiplicity = 1:

       Center              X                  Y                   Z               Mass
    ------------   -----------------  -----------------  -----------------  -----------------
         P           -0.823566266725     0.030360719525    -0.121470378706    30.973761998420
         O            0.744308433275    -0.481272280475    -0.315236078706    15.994914619570
         O           -0.976127866725    -0.130694080475     1.531379121294    15.994914619570
         O           -1.678982266725    -1.013516280475    -0.786382378706    15.994914619570
         O           -0.917058266725     1.502343719525    -0.430645378706    15.994914619570
         C            1.769560733275     0.398601719525     0.169693621294    12.000000000000
         C            3.103249733275    -0.282280280475    -0.046466378706    12.000000000000
         H            1.720205733275     1.355802719525    -0.358552378706     1.007825032230
         H            1.599100733275     0.590825719525     1.235586621294     1.007825032230
         H            3.142287733275    -1.226229280475     0.501782621294     1.007825032230
         H            3.257287733275    -0.485735280475    -1.108763378706     1.007825032230
         H            3.918272733275     0.357771719525     0.305629621294     1.007825032230
         H           -1.465797266725    -0.956235280475     1.704294621294     1.007825032230

  Basis Set: AUG-CC-PVTZ
    Blend: AUG-CC-PVTZ
  Basis Set: (AUG-CC-PVTZ AUX)
    Blend: AUG-CC-PVTZ-JKFIT
	 Reference Energy          =    -719.7565685335364378 [Eh]
	 Singles Energy            =      -0.0000000000000000 [Eh]
	 Same-Spin Energy          =      -0.4147553195629066 [Eh]
	 Opposite-Spin Energy      =      -1.2368278809986697 [Eh]
	 Correlation Energy        =      -1.6515832005615763 [Eh]
	 Total Energy              =    -721.4081517340980554 [Eh]

	 ================> DF-SCS-MP2 Energies <==================
	-----------------------------------------------------------
	 SCS Same-Spin Scale       =       0.3333333333333333 [-]
	 SCS Opposite-Spin Scale   =       1.2000000000000000 [-]
	 SCS Same-Spin Energy      =      -0.1382517731876355 [Eh]
	 SCS Opposite-Spin Energy  =      -1.4841934571984037 [Eh]
	 SCS Correlation Energy    =      -1.6224452303860393 [Eh]
	 SCS Total Energy          =    -721.3790137639224440 [Eh]
	-----------------------------------------------------------

  Dipole Moment: [D]
     X:     5.0713      Y:    -1.0925      Z:     2.6709     Total:     5.8348

*** Psi4 exiting successfully. Buy a developer a beer!
