                               Psi4 1.4a3.dev225

  ==> Input File <==

--------------------------------------------------------------------------
#psi4
#
memory 32 gb

molecule  {
-1 1
  P       -0.9277810     0.0961130     0.0976350
  O        0.6463760     0.5937280    -0.0402780
  O       -1.0786965    -0.8747996    -1.2709786
  O       -1.7527520     1.3345500    -0.1191100
  O       -1.0827680    -0.7945940     1.3071650
  C        1.6614230    -0.4105840     0.1296040
  C        3.0075080     0.2459920    -0.0890990
  H        1.5881620    -0.8381400     1.1347230
  H        1.5022440    -1.2178370    -0.5954040
  H        3.0701330     0.6620790    -1.0974680
  H        3.1582490     1.0535750     0.6314230
  H        3.8108830    -0.4860100     0.0361070
  H       -1.0981360    -1.7910910    -0.9612950
units angstrom
no_reorient  #important for SAPT in psi4, default
symmetry c1  #important for SAPT in psi4, default
}

set PROPERTIES_ORIGIN ["COM"]
properties('MP2/aug-cc-pvtz', properties = ['dipole'])
--------------------------------------------------------------------------

    Molecular point group: c1
  Charge       = -1
  Multiplicity = 1
  Basis Set: AUG-CC-PVTZ
    Blend: AUG-CC-PVTZ
  Basis Set: (AUG-CC-PVTZ AUX)
    Blend: AUG-CC-PVTZ-JKFIT

    Orbital Energies [Eh]
    ---------------------

    Doubly Occupied:

       1A    -79.882440     2A    -20.406163     3A    -20.403916
       4A    -20.312791     5A    -20.298758     6A    -11.146580
       7A    -11.104292     8A     -7.397668     9A     -5.296475
      10A     -5.295660    11A     -5.294277    12A     -1.229303
      13A     -1.179834    14A     -1.098783    15A     -1.060530
      16A     -0.892571    17A     -0.714588    18A     -0.603792
      19A     -0.535795    20A     -0.517601    21A     -0.470678
      22A     -0.449076    23A     -0.427661    24A     -0.419641
      25A     -0.394173    26A     -0.377051    27A     -0.344711
      28A     -0.336819    29A     -0.309438    30A     -0.285812
      31A     -0.268124    32A     -0.251479    33A     -0.237295

  @DF-RHF Final Energy:  -719.75437388897058

   => Energetics <=

    Nuclear Repulsion Energy =            423.7050966268103593
    One-Electron Energy =               -1848.4313907040848335
    Two-Electron Energy =                 704.9719201883037840
    Total Energy =                       -719.7543738889705764
  Basis Set: (AUG-CC-PVTZ AUX)
    Blend: AUG-CC-PVTZ-RI
    Molecular point group: c1

    Geometry (in Angstrom), charge = -1, multiplicity = 1:

       Center              X                  Y                   Z               Mass
    ------------   -----------------  -----------------  -----------------  -----------------
         P           -0.824958556751     0.076074614348     0.092186984754    30.973761998420
         O            0.749198443249     0.573689614348    -0.045726015246    15.994914619570
         O           -0.975874056751    -0.894837985652    -1.276426615246    15.994914619570
         O           -1.649929556751     1.314511614348    -0.124558015246    15.994914619570
         O           -0.979945556751    -0.814632385652     1.301716984754    15.994914619570
         C            1.764245443249    -0.430622385652     0.124155984754    12.000000000000
         C            3.110330443249     0.225953614348    -0.094547015246    12.000000000000
         H            1.690984443249    -0.858178385652     1.129274984754     1.007825032230
         H            1.605066443249    -1.237875385652    -0.600852015246     1.007825032230
         H            3.172955443249     0.642040614348    -1.102916015246     1.007825032230
         H            3.261071443249     1.033536614348     0.625974984754     1.007825032230
         H            3.913705443249    -0.506048385652     0.030658984754     1.007825032230
         H           -0.995313556751    -1.811129385652    -0.966743015246     1.007825032230

  Basis Set: AUG-CC-PVTZ
    Blend: AUG-CC-PVTZ
  Basis Set: (AUG-CC-PVTZ AUX)
    Blend: AUG-CC-PVTZ-JKFIT
	 Reference Energy          =    -719.7543738889705764 [Eh]
	 Singles Energy            =      -0.0000000000000000 [Eh]
	 Same-Spin Energy          =      -0.4150026146789451 [Eh]
	 Opposite-Spin Energy      =      -1.2375957713693408 [Eh]
	 Correlation Energy        =      -1.6525983860482860 [Eh]
	 Total Energy              =    -721.4069722750189158 [Eh]

	 ================> DF-SCS-MP2 Energies <==================
	-----------------------------------------------------------
	 SCS Same-Spin Scale       =       0.3333333333333333 [-]
	 SCS Opposite-Spin Scale   =       1.2000000000000000 [-]
	 SCS Same-Spin Energy      =      -0.1383342048929817 [Eh]
	 SCS Opposite-Spin Energy  =      -1.4851149256432090 [Eh]
	 SCS Correlation Energy    =      -1.6234491305361907 [Eh]
	 SCS Total Energy          =    -721.3778230195067636 [Eh]
	-----------------------------------------------------------

  Dipole Moment: [D]
     X:     5.8850      Y:    -2.9239      Z:    -1.2711     Total:     6.6932

*** Psi4 exiting successfully. Buy a developer a beer!
