                               Psi4 1.3.2 release

  ==> Input File <==

--------------------------------------------------------------------------
#psi4
#
memory 32 gb

molecule  {
-1 1
  P       -0.9206940     0.0325050    -0.1379180
  O        0.6481679    -0.4813101    -0.3173917
  O       -1.0595336    -0.1333413     1.5156671
  O       -1.7761100    -1.0113720    -0.8028300
  O       -1.0141860     1.5044880    -0.4470930
  C        1.6724330     0.4007460     0.1532460
  C        3.0061220    -0.2801360    -0.0629140
  H        1.6230780     1.3579470    -0.3750000
  H        1.5019730     0.5929700     1.2191390
  H        3.0451600    -1.2240850     0.4853350
  H        3.1601600    -0.4835910    -1.1252110
  H        3.8211450     0.3599160     0.2891820
  H       -1.5629250    -0.9540910     1.6878470
units angstrom
no_reorient  #important for SAPT in psi4, default
symmetry c1  #important for SAPT in psi4, default
}

set PROPERTIES_ORIGIN ["COM"]
properties('MP2/aug-cc-pvtz', properties = ['dipole'])
--------------------------------------------------------------------------

    Molecular point group: c1
  Charge       = -1
  Multiplicity = 1
  Basis Set: AUG-CC-PVTZ
    Blend: AUG-CC-PVTZ
  Basis Set: (AUG-CC-PVTZ AUX)
    Blend: AUG-CC-PVTZ-JKFIT

    Orbital Energies [Eh]
    ---------------------

    Doubly Occupied:

       1A    -79.880638     2A    -20.404522     3A    -20.398704
       4A    -20.306929     5A    -20.305820     6A    -11.138955
       7A    -11.100016     8A     -7.396157     9A     -5.295005
      10A     -5.294128    11A     -5.292808    12A     -1.228808
      13A     -1.177504    14A     -1.098453    15A     -1.062438
      16A     -0.887535    17A     -0.708961    18A     -0.604979
      19A     -0.533362    20A     -0.511691    21A     -0.465953
      22A     -0.443529    23A     -0.426945    24A     -0.420675
      25A     -0.395683    26A     -0.368963    27A     -0.355788
      28A     -0.326792    29A     -0.302004    30A     -0.286412
      31A     -0.267036    32A     -0.253511    33A     -0.239278

  @DF-RHF Final Energy:  -719.75639967068571

   => Energetics <=

    Nuclear Repulsion Energy =            424.5533975133973286
    One-Electron Energy =               -1850.2596257872851311
    Two-Electron Energy =                 705.9498286032020360
    Total Energy =                       -719.7563996706857097
  Basis Set: (AUG-CC-PVTZ AUX)
    Blend: AUG-CC-PVTZ-RI
    Molecular point group: c1

    Geometry (in Angstrom), charge = -1, multiplicity = 1:

       Center              X                  Y                   Z               Mass
    ------------   -----------------  -----------------  -----------------  -----------------
         P           -0.825448440329     0.031253053971    -0.123393294436    30.973761998420
         O            0.743413459671    -0.482562046029    -0.302866994436    15.994914619570
         O           -0.964288040329    -0.134593246029     1.530191805564    15.994914619570
         O           -1.680864440329    -1.012623946029    -0.788305294436    15.994914619570
         O           -0.918940440329     1.503236053971    -0.432568294436    15.994914619570
         C            1.767678559671     0.399494053971     0.167770705564    12.000000000000
         C            3.101367559671    -0.281387946029    -0.048389294436    12.000000000000
         H            1.718323559671     1.356695053971    -0.360475294436     1.007825032230
         H            1.597218559671     0.591718053971     1.233663705564     1.007825032230
         H            3.140405559671    -1.225336946029     0.499859705564     1.007825032230
         H            3.255405559671    -0.484842946029    -1.110686294436     1.007825032230
         H            3.916390559671     0.358664053971     0.303706705564     1.007825032230
         H           -1.467679440329    -0.955342946029     1.702371705564     1.007825032230

  Basis Set: AUG-CC-PVTZ
    Blend: AUG-CC-PVTZ
  Basis Set: (AUG-CC-PVTZ AUX)
    Blend: AUG-CC-PVTZ-JKFIT
	 Reference Energy          =    -719.7563996706857097 [Eh]
	 Singles Energy            =      -0.0000000000000000 [Eh]
	 Same-Spin Energy          =      -0.4147988733299270 [Eh]
	 Opposite-Spin Energy      =      -1.2368469186302193 [Eh]
	 Correlation Energy        =      -1.6516457919601464 [Eh]
	 Total Energy              =    -721.4080454626458732 [Eh]

	 ================> DF-SCS-MP2 Energies <==================
	-----------------------------------------------------------
	 SCS Same-Spin Scale       =       0.3333333333333333 [-]
	 SCS Opposite-Spin Scale   =       1.2000000000000000 [-]
	 SCS Same-Spin Energy      =      -0.1382662911099757 [Eh]
	 SCS Opposite-Spin Energy  =      -1.4842163023562631 [Eh]
	 SCS Correlation Energy    =      -1.6224825934662388 [Eh]
	 SCS Total Energy          =    -721.3788822641519118 [Eh]
	-----------------------------------------------------------

  Dipole Moment: [D]
     X:     5.0215      Y:    -1.0818      Z:     2.6412     Total:     5.7760

*** Psi4 exiting successfully. Buy a developer a beer!
