                               Psi4 1.3.2 release

  ==> Input File <==

--------------------------------------------------------------------------
#psi4
#
memory 32 gb

molecule  {
-1 1
  P       -0.9206940     0.0325050    -0.1379180
  O        0.6498809    -0.4634466    -0.3497454
  O       -1.0869660    -0.1237460     1.5140700
  O       -1.7761100    -1.0113720    -0.8028300
  O       -1.0013137     1.5046826    -0.4497793
  C        1.6724330     0.4007460     0.1532460
  C        3.0061220    -0.2801360    -0.0629140
  H        1.6230780     1.3579470    -0.3750000
  H        1.5019730     0.5929700     1.2191390
  H        3.0451600    -1.2240850     0.4853350
  H        3.1601600    -0.4835910    -1.1252110
  H        3.8211450     0.3599160     0.2891820
  H       -1.5629250    -0.9540910     1.6878470
units angstrom
no_reorient  #important for SAPT in psi4, default
symmetry c1  #important for SAPT in psi4, default
}

set PROPERTIES_ORIGIN ["COM"]
properties('MP2/aug-cc-pvtz', properties = ['dipole'])
--------------------------------------------------------------------------

    Molecular point group: c1
  Charge       = -1
  Multiplicity = 1
  Basis Set: AUG-CC-PVTZ
    Blend: AUG-CC-PVTZ
  Basis Set: (AUG-CC-PVTZ AUX)
    Blend: AUG-CC-PVTZ-JKFIT

    Orbital Energies [Eh]
    ---------------------

    Doubly Occupied:

       1A    -79.880765     2A    -20.406287     3A    -20.399343
       4A    -20.306637     5A    -20.303868     6A    -11.138988
       7A    -11.100182     8A     -7.396232     9A     -5.295030
      10A     -5.294283    11A     -5.292852    12A     -1.229259
      13A     -1.180423    14A     -1.097628    15A     -1.061754
      16A     -0.887664    17A     -0.709120    18A     -0.605891
      19A     -0.535058    20A     -0.513147    21A     -0.466310
      22A     -0.444264    23A     -0.426924    24A     -0.421090
      25A     -0.395321    26A     -0.370350    27A     -0.355708
      28A     -0.326479    29A     -0.303224    30A     -0.285330
      31A     -0.266466    32A     -0.252579    33A     -0.238573

  @DF-RHF Final Energy:  -719.75707201395846

   => Energetics <=

    Nuclear Repulsion Energy =            424.4520252386771517
    One-Electron Energy =               -1850.0441342347473892
    Two-Electron Energy =                 705.8350369821117738
    Total Energy =                       -719.7570720139584637
  Basis Set: (AUG-CC-PVTZ AUX)
    Blend: AUG-CC-PVTZ-RI
    Molecular point group: c1

    Geometry (in Angstrom), charge = -1, multiplicity = 1:

       Center              X                  Y                   Z               Mass
    ------------   -----------------  -----------------  -----------------  -----------------
         P           -0.823804539063     0.027714554289    -0.118705250046    30.973761998420
         O            0.746770360937    -0.468237045711    -0.330532650046    15.994914619570
         O           -0.990076539063    -0.128536445711     1.533282749954    15.994914619570
         O           -1.679220539063    -1.016162445711    -0.783617250046    15.994914619570
         O           -0.904424239063     1.499892154289    -0.430566550046    15.994914619570
         C            1.769322460937     0.395955554289     0.172458749954    12.000000000000
         C            3.103011460937    -0.284926445711    -0.043701250046    12.000000000000
         H            1.719967460937     1.353156554289    -0.355787250046     1.007825032230
         H            1.598862460937     0.588179554289     1.238351749954     1.007825032230
         H            3.142049460937    -1.228875445711     0.504547749954     1.007825032230
         H            3.257049460937    -0.488381445711    -1.105998250046     1.007825032230
         H            3.918034460937     0.355125554289     0.308394749954     1.007825032230
         H           -1.466035539063    -0.958881445711     1.707059749954     1.007825032230

  Basis Set: AUG-CC-PVTZ
    Blend: AUG-CC-PVTZ
  Basis Set: (AUG-CC-PVTZ AUX)
    Blend: AUG-CC-PVTZ-JKFIT
	 Reference Energy          =    -719.7570720139584637 [Eh]
	 Singles Energy            =      -0.0000000000000000 [Eh]
	 Same-Spin Energy          =      -0.4146841687063433 [Eh]
	 Opposite-Spin Energy      =      -1.2366003379400046 [Eh]
	 Correlation Energy        =      -1.6512845066463480 [Eh]
	 Total Energy              =    -721.4083565206047979 [Eh]

	 ================> DF-SCS-MP2 Energies <==================
	-----------------------------------------------------------
	 SCS Same-Spin Scale       =       0.3333333333333333 [-]
	 SCS Opposite-Spin Scale   =       1.2000000000000000 [-]
	 SCS Same-Spin Energy      =      -0.1382280562354478 [Eh]
	 SCS Opposite-Spin Energy  =      -1.4839204055280055 [Eh]
	 SCS Correlation Energy    =      -1.6221484617634534 [Eh]
	 SCS Total Energy          =    -721.3792204757219224 [Eh]
	-----------------------------------------------------------

  Dipole Moment: [D]
     X:     5.0424      Y:    -1.1405      Z:     2.7090     Total:     5.8365

*** Psi4 exiting successfully. Buy a developer a beer!
