                               Psi4 1.4a3.dev225

  ==> Input File <==

--------------------------------------------------------------------------
#psi4
#
memory 32 gb

molecule  {
-1 1
  P       -0.9277810     0.0961130     0.0976350
  O        0.6463760     0.5937280    -0.0402780
  O       -1.0751135    -0.8517484    -1.2384854
  O       -1.7527520     1.3345500    -0.1191100
  O       -1.0827680    -0.7945940     1.3071650
  C        1.6614230    -0.4105840     0.1296040
  C        3.0075080     0.2459920    -0.0890990
  H        1.5881620    -0.8381400     1.1347230
  H        1.5022440    -1.2178370    -0.5954040
  H        3.0701330     0.6620790    -1.0974680
  H        3.1582490     1.0535750     0.6314230
  H        3.8108830    -0.4860100     0.0361070
  H       -1.0981360    -1.7910910    -0.9612950
units angstrom
no_reorient  #important for SAPT in psi4, default
symmetry c1  #important for SAPT in psi4, default
}

set PROPERTIES_ORIGIN ["COM"]
properties('MP2/aug-cc-pvtz', properties = ['dipole'])
--------------------------------------------------------------------------

    Molecular point group: c1
  Charge       = -1
  Multiplicity = 1
  Basis Set: AUG-CC-PVTZ
    Blend: AUG-CC-PVTZ
  Basis Set: (AUG-CC-PVTZ AUX)
    Blend: AUG-CC-PVTZ-JKFIT

    Orbital Energies [Eh]
    ---------------------

    Doubly Occupied:

       1A    -79.877831     2A    -20.408759     3A    -20.401304
       4A    -20.309002     5A    -20.295598     6A    -11.145666
       7A    -11.103631     8A     -7.393671     9A     -5.292543
      10A     -5.291703    11A     -5.290268    12A     -1.232547
      13A     -1.182884    14A     -1.095675    15A     -1.057875
      16A     -0.891699    17A     -0.713707    18A     -0.608266
      19A     -0.538816    20A     -0.517826    21A     -0.471136
      22A     -0.448589    23A     -0.427653    24A     -0.419469
      25A     -0.394047    26A     -0.379215    27A     -0.343255
      28A     -0.335676    29A     -0.308550    30A     -0.283764
      31A     -0.265735    32A     -0.248740    33A     -0.234240

  @DF-RHF Final Energy:  -719.75540035334507

   => Energetics <=

    Nuclear Repulsion Energy =            425.1689226399447534
    One-Electron Energy =               -1851.4299656941602734
    Two-Electron Energy =                 706.5056427008703395
    Total Energy =                       -719.7554003533450668
  Basis Set: (AUG-CC-PVTZ AUX)
    Blend: AUG-CC-PVTZ-RI
    Molecular point group: c1

    Geometry (in Angstrom), charge = -1, multiplicity = 1:

       Center              X                  Y                   Z               Mass
    ------------   -----------------  -----------------  -----------------  -----------------
         P           -0.825417033624     0.073125007288     0.088029189405    30.973761998420
         O            0.748739966376     0.570740007288    -0.049883810595    15.994914619570
         O           -0.972749533624    -0.874736392712    -1.248091210595    15.994914619570
         O           -1.650388033624     1.311562007288    -0.128715810595    15.994914619570
         O           -0.980404033624    -0.817581992712     1.297559189405    15.994914619570
         C            1.763786966376    -0.433571992712     0.119998189405    12.000000000000
         C            3.109871966376     0.223004007288    -0.098704810595    12.000000000000
         H            1.690525966376    -0.861127992712     1.125117189405     1.007825032230
         H            1.604607966376    -1.240824992712    -0.605009810595     1.007825032230
         H            3.172496966376     0.639091007288    -1.107073810595     1.007825032230
         H            3.260612966376     1.030587007288     0.621817189405     1.007825032230
         H            3.913246966376    -0.508997992712     0.026501189405     1.007825032230
         H           -0.995772033624    -1.814078992712    -0.970900810595     1.007825032230

  Basis Set: AUG-CC-PVTZ
    Blend: AUG-CC-PVTZ
  Basis Set: (AUG-CC-PVTZ AUX)
    Blend: AUG-CC-PVTZ-JKFIT
	 Reference Energy          =    -719.7554003533450668 [Eh]
	 Singles Energy            =      -0.0000000000000000 [Eh]
	 Same-Spin Energy          =      -0.4147548812527508 [Eh]
	 Opposite-Spin Energy      =      -1.2365898004363025 [Eh]
	 Correlation Energy        =      -1.6513446816890534 [Eh]
	 Total Energy              =    -721.4067450350340778 [Eh]

	 ================> DF-SCS-MP2 Energies <==================
	-----------------------------------------------------------
	 SCS Same-Spin Scale       =       0.3333333333333333 [-]
	 SCS Opposite-Spin Scale   =       1.2000000000000000 [-]
	 SCS Same-Spin Energy      =      -0.1382516270842503 [Eh]
	 SCS Opposite-Spin Energy  =      -1.4839077605235629 [Eh]
	 SCS Correlation Energy    =      -1.6221593876078131 [Eh]
	 SCS Total Energy          =    -721.3775597409528473 [Eh]
	-----------------------------------------------------------

  Dipole Moment: [D]
     X:     5.8410      Y:    -3.0727      Z:    -1.4658     Total:     6.7607

*** Psi4 exiting successfully. Buy a developer a beer!
