                               Psi4 1.3.2 release

  ==> Input File <==

--------------------------------------------------------------------------
#psi4
#
memory 32 gb

molecule  {
-1 1
  P       -0.9206940     0.0325050    -0.1379180
  O        0.6404552    -0.4676368    -0.4029007
  O       -1.1416705    -0.1044155     1.5093668
  O       -1.7761100    -1.0113720    -0.8028300
  O       -1.0141860     1.5044880    -0.4470930
  C        1.6724330     0.4007460     0.1532460
  C        3.0061220    -0.2801360    -0.0629140
  H        1.6230780     1.3579470    -0.3750000
  H        1.5019730     0.5929700     1.2191390
  H        3.0451600    -1.2240850     0.4853350
  H        3.1601600    -0.4835910    -1.1252110
  H        3.8211450     0.3599160     0.2891820
  H       -1.5629250    -0.9540910     1.6878470
units angstrom
no_reorient  #important for SAPT in psi4, default
symmetry c1  #important for SAPT in psi4, default
}

set PROPERTIES_ORIGIN ["COM"]
properties('MP2/aug-cc-pvtz', properties = ['dipole'])
--------------------------------------------------------------------------

    Molecular point group: c1
  Charge       = -1
  Multiplicity = 1
  Basis Set: AUG-CC-PVTZ
    Blend: AUG-CC-PVTZ
  Basis Set: (AUG-CC-PVTZ AUX)
    Blend: AUG-CC-PVTZ-JKFIT

    Orbital Energies [Eh]
    ---------------------

    Doubly Occupied:

       1A    -79.879271     2A    -20.407000     3A    -20.404129
       4A    -20.301838     5A    -20.301375     6A    -11.143761
       7A    -11.102916     8A     -7.394781     9A     -5.293461
      10A     -5.292939    11A     -5.291359    12A     -1.226199
      13A     -1.180463    14A     -1.094096    15A     -1.058799
      16A     -0.890912    17A     -0.710553    18A     -0.605100
      19A     -0.535851    20A     -0.514293    21A     -0.464661
      22A     -0.444690    23A     -0.426338    24A     -0.420863
      25A     -0.394108    26A     -0.373853    27A     -0.352698
      28A     -0.329690    29A     -0.308724    30A     -0.282346
      31A     -0.263354    32A     -0.250082    33A     -0.235323

  @DF-RHF Final Energy:  -719.75439251467026

   => Energetics <=

    Nuclear Repulsion Energy =            423.5759114256625821
    One-Electron Energy =               -1848.3089560797432114
    Two-Electron Energy =                 704.9786521394104284
    Total Energy =                       -719.7543925146702577
  Basis Set: (AUG-CC-PVTZ AUX)
    Blend: AUG-CC-PVTZ-RI
    Molecular point group: c1

    Geometry (in Angstrom), charge = -1, multiplicity = 1:

       Center              X                  Y                   Z               Mass
    ------------   -----------------  -----------------  -----------------  -----------------
         P           -0.813951380977     0.025802118396    -0.111645473954    30.973761998420
         O            0.747197819023    -0.474339681604    -0.376628173954    15.994914619570
         O           -1.034927880977    -0.111118381604     1.535639326046    15.994914619570
         O           -1.669367380977    -1.018074881604    -0.776557473954    15.994914619570
         O           -0.907443380977     1.497785118396    -0.420820473954    15.994914619570
         C            1.779175619023     0.394043118396     0.179518526046    12.000000000000
         C            3.112864619023    -0.286838881604    -0.036641473954    12.000000000000
         H            1.729820619023     1.351244118396    -0.348727473954     1.007825032230
         H            1.608715619023     0.586267118396     1.245411526046     1.007825032230
         H            3.151902619023    -1.230787881604     0.511607526046     1.007825032230
         H            3.266902619023    -0.490293881604    -1.098938473954     1.007825032230
         H            3.927887619023     0.353213118396     0.315454526046     1.007825032230
         H           -1.456182380977    -0.960793881604     1.714119526046     1.007825032230

  Basis Set: AUG-CC-PVTZ
    Blend: AUG-CC-PVTZ
  Basis Set: (AUG-CC-PVTZ AUX)
    Blend: AUG-CC-PVTZ-JKFIT
	 Reference Energy          =    -719.7543925146702577 [Eh]
	 Singles Energy            =      -0.0000000000000000 [Eh]
	 Same-Spin Energy          =      -0.4147207670871888 [Eh]
	 Opposite-Spin Energy      =      -1.2371444371822689 [Eh]
	 Correlation Energy        =      -1.6518652042694577 [Eh]
	 Total Energy              =    -721.4062577189397416 [Eh]

	 ================> DF-SCS-MP2 Energies <==================
	-----------------------------------------------------------
	 SCS Same-Spin Scale       =       0.3333333333333333 [-]
	 SCS Opposite-Spin Scale   =       1.2000000000000000 [-]
	 SCS Same-Spin Energy      =      -0.1382402556957296 [Eh]
	 SCS Opposite-Spin Energy  =      -1.4845733246187225 [Eh]
	 SCS Correlation Energy    =      -1.6228135803144521 [Eh]
	 SCS Total Energy          =    -721.3772060949846718 [Eh]
	-----------------------------------------------------------

  Dipole Moment: [D]
     X:     5.3244      Y:    -1.1444      Z:     2.8198     Total:     6.1327

*** Psi4 exiting successfully. Buy a developer a beer!
