                               Psi4 1.3.2 release

  ==> Input File <==

--------------------------------------------------------------------------
#psi4
#
memory 32 gb

molecule  {
-1 1
  P       -0.9206940     0.0325050    -0.1379180
  O        0.7404243    -0.5075836    -0.3584893
  O       -1.0869660    -0.1237460     1.5140700
  O       -1.7761100    -1.0113720    -0.8028300
  O       -1.0141860     1.5044880    -0.4470930
  C        1.6724330     0.4007460     0.1532460
  C        3.0061220    -0.2801360    -0.0629140
  H        1.6230780     1.3579470    -0.3750000
  H        1.5019730     0.5929700     1.2191390
  H        3.0451600    -1.2240850     0.4853350
  H        3.1601600    -0.4835910    -1.1252110
  H        3.8211450     0.3599160     0.2891820
  H       -1.5629250    -0.9540910     1.6878470
units angstrom
no_reorient  #important for SAPT in psi4, default
symmetry c1  #important for SAPT in psi4, default
}

set PROPERTIES_ORIGIN ["COM"]
properties('MP2/aug-cc-pvtz', properties = ['dipole'])
--------------------------------------------------------------------------

    Molecular point group: c1
  Charge       = -1
  Multiplicity = 1
  Basis Set: AUG-CC-PVTZ
    Blend: AUG-CC-PVTZ
  Basis Set: (AUG-CC-PVTZ AUX)
    Blend: AUG-CC-PVTZ-JKFIT

    Orbital Energies [Eh]
    ---------------------

    Doubly Occupied:

       1A    -79.892579     2A    -20.413725     3A    -20.397849
       4A    -20.314649     5A    -20.314530     6A    -11.129334
       7A    -11.091995     8A     -7.407027     9A     -5.305667
      10A     -5.304967    11A     -5.303576    12A     -1.224436
      13A     -1.182997    14A     -1.106606    15A     -1.069245
      16A     -0.875438    17A     -0.698404    18A     -0.607883
      19A     -0.531884    20A     -0.510903    21A     -0.471282
      22A     -0.438487    23A     -0.424988    24A     -0.413470
      25A     -0.394719    26A     -0.374007    27A     -0.358058
      28A     -0.326650    29A     -0.296517    30A     -0.287178
      31A     -0.269894    32A     -0.260962    33A     -0.246856

  @DF-RHF Final Energy:  -719.74694616180818

   => Energetics <=

    Nuclear Repulsion Energy =            421.9055181654246667
    One-Electron Energy =               -1844.8114081934281785
    Two-Electron Energy =                 703.1589438661953864
    Total Energy =                       -719.7469461618081823
  Basis Set: (AUG-CC-PVTZ AUX)
    Blend: AUG-CC-PVTZ-RI
    Molecular point group: c1

    Geometry (in Angstrom), charge = -1, multiplicity = 1:

       Center              X                  Y                   Z               Mass
    ------------   -----------------  -----------------  -----------------  -----------------
         P           -0.833743250494     0.033387178723    -0.117930125986    30.973761998420
         O            0.827375049506    -0.506701421277    -0.338501425986    15.994914619570
         O           -1.000015250494    -0.122863821277     1.534057874014    15.994914619570
         O           -1.689159250494    -1.010489821277    -0.782842125986    15.994914619570
         O           -0.927235250494     1.505370178723    -0.427105125986    15.994914619570
         C            1.759383749506     0.401628178723     0.173233874014    12.000000000000
         C            3.093072749506    -0.279253821277    -0.042926125986    12.000000000000
         H            1.710028749506     1.358829178723    -0.355012125986     1.007825032230
         H            1.588923749506     0.593852178723     1.239126874014     1.007825032230
         H            3.132110749506    -1.223202821277     0.505322874014     1.007825032230
         H            3.247110749506    -0.482708821277    -1.105223125986     1.007825032230
         H            3.908095749506     0.360798178723     0.309169874014     1.007825032230
         H           -1.475974250494    -0.953208821277     1.707834874014     1.007825032230

  Basis Set: AUG-CC-PVTZ
    Blend: AUG-CC-PVTZ
  Basis Set: (AUG-CC-PVTZ AUX)
    Blend: AUG-CC-PVTZ-JKFIT
	 Reference Energy          =    -719.7469461618081823 [Eh]
	 Singles Energy            =      -0.0000000000000000 [Eh]
	 Same-Spin Energy          =      -0.4160562663414429 [Eh]
	 Opposite-Spin Energy      =      -1.2398615219284619 [Eh]
	 Correlation Energy        =      -1.6559177882699048 [Eh]
	 Total Energy              =    -721.4028639500780855 [Eh]

	 ================> DF-SCS-MP2 Energies <==================
	-----------------------------------------------------------
	 SCS Same-Spin Scale       =       0.3333333333333333 [-]
	 SCS Opposite-Spin Scale   =       1.2000000000000000 [-]
	 SCS Same-Spin Energy      =      -0.1386854221138143 [Eh]
	 SCS Opposite-Spin Energy  =      -1.4878338263141542 [Eh]
	 SCS Correlation Energy    =      -1.6265192484279685 [Eh]
	 SCS Total Energy          =    -721.3734654102361219 [Eh]
	-----------------------------------------------------------

  Dipole Moment: [D]
     X:     4.3545      Y:    -1.0345      Z:     2.7090     Total:     5.2317

*** Psi4 exiting successfully. Buy a developer a beer!
