                               Psi4 1.3.2 release

  ==> Input File <==

--------------------------------------------------------------------------
#psi4
#
memory 32 gb

molecule  {
-1 1
  P       -0.9206940     0.0325050    -0.1379180
  O        0.6497839    -0.4855566    -0.2887678
  O       -1.0320589    -0.1428862     1.5167605
  O       -1.7761100    -1.0113720    -0.8028300
  O       -1.0141860     1.5044880    -0.4470930
  C        1.6724330     0.4007460     0.1532460
  C        3.0061220    -0.2801360    -0.0629140
  H        1.6230780     1.3579470    -0.3750000
  H        1.5019730     0.5929700     1.2191390
  H        3.0451600    -1.2240850     0.4853350
  H        3.1601600    -0.4835910    -1.1252110
  H        3.8211450     0.3599160     0.2891820
  H       -1.5629250    -0.9540910     1.6878470
units angstrom
no_reorient  #important for SAPT in psi4, default
symmetry c1  #important for SAPT in psi4, default
}

set PROPERTIES_ORIGIN ["COM"]
properties('MP2/aug-cc-pvtz', properties = ['dipole'])
--------------------------------------------------------------------------

    Molecular point group: c1
  Charge       = -1
  Multiplicity = 1
  Basis Set: AUG-CC-PVTZ
    Blend: AUG-CC-PVTZ
  Basis Set: (AUG-CC-PVTZ AUX)
    Blend: AUG-CC-PVTZ-JKFIT

    Orbital Energies [Eh]
    ---------------------

    Doubly Occupied:

       1A    -79.881045     2A    -20.403749     3A    -20.396720
       4A    -20.308572     5A    -20.307267     6A    -11.137448
       7A    -11.099102     8A     -7.396583     9A     -5.295486
      10A     -5.294490    11A     -5.293254    12A     -1.229608
      13A     -1.175803    14A     -1.099745    15A     -1.063618
      16A     -0.886462    17A     -0.708460    18A     -0.604541
      19A     -0.532409    20A     -0.510120    21A     -0.466423
      22A     -0.443155    23A     -0.426951    24A     -0.420439
      25A     -0.396043    26A     -0.367217    27A     -0.356705
      28A     -0.326359    29A     -0.299298    30A     -0.287625
      31A     -0.267910    32A     -0.254560    33A     -0.240506

  @DF-RHF Final Energy:  -719.75541436061360

   => Energetics <=

    Nuclear Repulsion Energy =            424.8751696929620607
    One-Electron Energy =               -1850.9058224988912116
    Two-Electron Energy =                 706.2752384453154946
    Total Energy =                       -719.7554143606135995
  Basis Set: (AUG-CC-PVTZ AUX)
    Blend: AUG-CC-PVTZ-RI
    Molecular point group: c1

    Geometry (in Angstrom), charge = -1, multiplicity = 1:

       Center              X                  Y                   Z               Mass
    ------------   -----------------  -----------------  -----------------  -----------------
         P           -0.829170855393     0.033017786862    -0.127195888570    30.973761998420
         O            0.741307044607    -0.485043813138    -0.278045688570    15.994914619570
         O           -0.940535755393    -0.142373413138     1.527482611430    15.994914619570
         O           -1.684586855393    -1.010859213138    -0.792107888570    15.994914619570
         O           -0.922662855393     1.505000786862    -0.436370888570    15.994914619570
         C            1.763956144607     0.401258786862     0.163968111430    12.000000000000
         C            3.097645144607    -0.279623213138    -0.052191888570    12.000000000000
         H            1.714601144607     1.358459786862    -0.364277888570     1.007825032230
         H            1.593496144607     0.593482786862     1.229861111430     1.007825032230
         H            3.136683144607    -1.223572213138     0.496057111430     1.007825032230
         H            3.251683144607    -0.483078213138    -1.114488888570     1.007825032230
         H            3.912668144607     0.360428786862     0.299904111430     1.007825032230
         H           -1.471401855393    -0.953578213138     1.698569111430     1.007825032230

  Basis Set: AUG-CC-PVTZ
    Blend: AUG-CC-PVTZ
  Basis Set: (AUG-CC-PVTZ AUX)
    Blend: AUG-CC-PVTZ-JKFIT
	 Reference Energy          =    -719.7554143606135995 [Eh]
	 Singles Energy            =      -0.0000000000000000 [Eh]
	 Same-Spin Energy          =      -0.4149233920092024 [Eh]
	 Opposite-Spin Energy      =      -1.2369695085675469 [Eh]
	 Correlation Energy        =      -1.6518929005767493 [Eh]
	 Total Energy              =    -721.4073072611903399 [Eh]

	 ================> DF-SCS-MP2 Energies <==================
	-----------------------------------------------------------
	 SCS Same-Spin Scale       =       0.3333333333333333 [-]
	 SCS Opposite-Spin Scale   =       1.2000000000000000 [-]
	 SCS Same-Spin Energy      =      -0.1383077973364008 [Eh]
	 SCS Opposite-Spin Energy  =      -1.4843634102810563 [Eh]
	 SCS Correlation Energy    =      -1.6226712076174572 [Eh]
	 SCS Total Energy          =    -721.3780855682310857 [Eh]
	-----------------------------------------------------------

  Dipole Moment: [D]
     X:     4.9232      Y:    -1.0601      Z:     2.5819     Total:     5.6593

*** Psi4 exiting successfully. Buy a developer a beer!
