                               Psi4 1.3.2 release

  ==> Input File <==

--------------------------------------------------------------------------
#psi4
#
memory 32 gb

molecule  {
-1 1
  P       -0.9206940     0.0325050    -0.1379180
  O        0.6535683    -0.4499484    -0.3535136
  O       -1.0869660    -0.1237460     1.5140700
  O       -1.7761100    -1.0113720    -0.8028300
  O       -0.9884353     1.5047651    -0.4524419
  C        1.6724330     0.4007460     0.1532460
  C        3.0061220    -0.2801360    -0.0629140
  H        1.6230780     1.3579470    -0.3750000
  H        1.5019730     0.5929700     1.2191390
  H        3.0451600    -1.2240850     0.4853350
  H        3.1601600    -0.4835910    -1.1252110
  H        3.8211450     0.3599160     0.2891820
  H       -1.5629250    -0.9540910     1.6878470
units angstrom
no_reorient  #important for SAPT in psi4, default
symmetry c1  #important for SAPT in psi4, default
}

set PROPERTIES_ORIGIN ["COM"]
properties('MP2/aug-cc-pvtz', properties = ['dipole'])
--------------------------------------------------------------------------

    Molecular point group: c1
  Charge       = -1
  Multiplicity = 1
  Basis Set: AUG-CC-PVTZ
    Blend: AUG-CC-PVTZ
  Basis Set: (AUG-CC-PVTZ AUX)
    Blend: AUG-CC-PVTZ-JKFIT

    Orbital Energies [Eh]
    ---------------------

    Doubly Occupied:

       1A    -79.881337     2A    -20.407256     3A    -20.398050
       4A    -20.308016     5A    -20.303368     6A    -11.137465
       7A    -11.099405     8A     -7.396761     9A     -5.295566
      10A     -5.294828    11A     -5.293370    12A     -1.230582
      13A     -1.181980    14A     -1.098199    15A     -1.062233
      16A     -0.886691    17A     -0.708797    18A     -0.606530
      19A     -0.535844    20A     -0.513407    21A     -0.467142
      22A     -0.444681    23A     -0.427007    24A     -0.421264
      25A     -0.395405    26A     -0.370113    27A     -0.356598
      28A     -0.325449    29A     -0.301876    30A     -0.285509
      31A     -0.267084    32A     -0.252567    33A     -0.239101

  @DF-RHF Final Energy:  -719.75735390274963

   => Energetics <=

    Nuclear Repulsion Energy =            424.6767595416312702
    One-Electron Energy =               -1850.4812585575796220
    Two-Electron Energy =                 706.0471451131986669
    Total Energy =                       -719.7573539027496281
  Basis Set: (AUG-CC-PVTZ AUX)
    Blend: AUG-CC-PVTZ-RI
    Molecular point group: c1

    Geometry (in Angstrom), charge = -1, multiplicity = 1:

       Center              X                  Y                   Z               Mass
    ------------   -----------------  -----------------  -----------------  -----------------
         P           -0.825924281230     0.025976782346    -0.117882371711    30.973761998420
         O            0.748338018770    -0.456476617654    -0.333477971711    15.994914619570
         O           -0.992196281230    -0.130274217654     1.534105628289    15.994914619570
         O           -1.681340281230    -1.017900217654    -0.782794371711    15.994914619570
         O           -0.893665581230     1.498236882346    -0.432406271711    15.994914619570
         C            1.767202718770     0.394217782346     0.173281628289    12.000000000000
         C            3.100891718770    -0.286664217654    -0.042878371711    12.000000000000
         H            1.717847718770     1.351418782346    -0.354964371711     1.007825032230
         H            1.596742718770     0.586441782346     1.239174628289     1.007825032230
         H            3.139929718770    -1.230613217654     0.505370628289     1.007825032230
         H            3.254929718770    -0.490119217654    -1.105175371711     1.007825032230
         H            3.915914718770     0.353387782346     0.309217628289     1.007825032230
         H           -1.468155281230    -0.960619217654     1.707882628289     1.007825032230

  Basis Set: AUG-CC-PVTZ
    Blend: AUG-CC-PVTZ
  Basis Set: (AUG-CC-PVTZ AUX)
    Blend: AUG-CC-PVTZ-JKFIT
	 Reference Energy          =    -719.7573539027496281 [Eh]
	 Singles Energy            =      -0.0000000000000000 [Eh]
	 Same-Spin Energy          =      -0.4146551325252728 [Eh]
	 Opposite-Spin Energy      =      -1.2363865420914530 [Eh]
	 Correlation Energy        =      -1.6510416746167258 [Eh]
	 Total Energy              =    -721.4083955773663774 [Eh]

	 ================> DF-SCS-MP2 Energies <==================
	-----------------------------------------------------------
	 SCS Same-Spin Scale       =       0.3333333333333333 [-]
	 SCS Opposite-Spin Scale   =       1.2000000000000000 [-]
	 SCS Same-Spin Energy      =      -0.1382183775084243 [Eh]
	 SCS Opposite-Spin Energy  =      -1.4836638505097437 [Eh]
	 SCS Correlation Energy    =      -1.6218822280181679 [Eh]
	 SCS Total Energy          =    -721.3792361307678220 [Eh]
	-----------------------------------------------------------

  Dipole Moment: [D]
     X:     4.9627      Y:    -1.1781      Z:     2.7171     Total:     5.7792

*** Psi4 exiting successfully. Buy a developer a beer!
