                               Psi4 1.3.2 release

  ==> Input File <==

--------------------------------------------------------------------------
#psi4
#
memory 32 gb

molecule  {
-1 1
  P       -0.9158570     0.0445256    -0.1314291
  O        0.6460740    -0.4769070    -0.3459610
  O       -1.0869660    -0.1237460     1.5140700
  O       -1.7761100    -1.0113720    -0.8028300
  O       -1.0141860     1.5044880    -0.4470930
  C        1.6635928     0.4087852     0.1571294
  C        3.0061220    -0.2801360    -0.0629140
  H        1.6230780     1.3579470    -0.3750000
  H        1.5019730     0.5929700     1.2191390
  H        3.0451600    -1.2240850     0.4853350
  H        3.1601600    -0.4835910    -1.1252110
  H        3.8211450     0.3599160     0.2891820
  H       -1.5629250    -0.9540910     1.6878470
units angstrom
no_reorient  #important for SAPT in psi4, default
symmetry c1  #important for SAPT in psi4, default
}

set PROPERTIES_ORIGIN ["COM"]
properties('MP2/aug-cc-pvtz', properties = ['dipole'])
--------------------------------------------------------------------------

    Molecular point group: c1
  Charge       = -1
  Multiplicity = 1
  Basis Set: AUG-CC-PVTZ
    Blend: AUG-CC-PVTZ
  Basis Set: (AUG-CC-PVTZ AUX)
    Blend: AUG-CC-PVTZ-JKFIT

    Orbital Energies [Eh]
    ---------------------

    Doubly Occupied:

       1A    -79.880254     2A    -20.406227     3A    -20.401458
       4A    -20.306455     5A    -20.302274     6A    -11.140510
       7A    -11.101276     8A     -7.395778     9A     -5.294565
      10A     -5.293808    11A     -5.292402    12A     -1.229139
      13A     -1.180234    14A     -1.097228    15A     -1.059009
      16A     -0.886203    17A     -0.711010    18A     -0.607044
      19A     -0.535371    20A     -0.514177    21A     -0.464941
      22A     -0.443830    23A     -0.426967    24A     -0.419982
      25A     -0.396772    26A     -0.371784    27A     -0.352038
      28A     -0.328615    29A     -0.306917    30A     -0.284484
      31A     -0.265729    32A     -0.251259    33A     -0.236796

  @DF-RHF Final Energy:  -719.75594357583020

   => Energetics <=

    Nuclear Repulsion Energy =            424.3353160072476840
    One-Electron Energy =               -1849.8134484815536780
    Two-Electron Energy =                 705.7221888984757925
    Total Energy =                       -719.7559435758302016
  Basis Set: (AUG-CC-PVTZ AUX)
    Blend: AUG-CC-PVTZ-RI
    Molecular point group: c1

    Geometry (in Angstrom), charge = -1, multiplicity = 1:

       Center              X                  Y                   Z               Mass
    ------------   -----------------  -----------------  -----------------  -----------------
         P           -0.817183186809     0.037732095874    -0.115025019624    30.973761998420
         O            0.744747813191    -0.483700504126    -0.329556919624    15.994914619570
         O           -0.988292186809    -0.130539504126     1.530474080376    15.994914619570
         O           -1.677436186809    -1.018165504126    -0.786425919624    15.994914619570
         O           -0.915512186809     1.497694495874    -0.430688919624    15.994914619570
         C            1.762266613191     0.401991695874     0.173533480376    12.000000000000
         C            3.104795813191    -0.286929504126    -0.046509919624    12.000000000000
         H            1.721751813191     1.351153495874    -0.358595919624     1.007825032230
         H            1.600646813191     0.586176495874     1.235543080376     1.007825032230
         H            3.143833813191    -1.230878504126     0.501739080376     1.007825032230
         H            3.258833813191    -0.490384504126    -1.108806919624     1.007825032230
         H            3.919818813191     0.353122495874     0.305586080376     1.007825032230
         H           -1.464251186809    -0.960884504126     1.704251080376     1.007825032230

  Basis Set: AUG-CC-PVTZ
    Blend: AUG-CC-PVTZ
  Basis Set: (AUG-CC-PVTZ AUX)
    Blend: AUG-CC-PVTZ-JKFIT
	 Reference Energy          =    -719.7559435758302016 [Eh]
	 Singles Energy            =      -0.0000000000000000 [Eh]
	 Same-Spin Energy          =      -0.4147117351072570 [Eh]
	 Opposite-Spin Energy      =      -1.2368756644415932 [Eh]
	 Correlation Energy        =      -1.6515873995488501 [Eh]
	 Total Energy              =    -721.4075309753790179 [Eh]

	 ================> DF-SCS-MP2 Energies <==================
	-----------------------------------------------------------
	 SCS Same-Spin Scale       =       0.3333333333333333 [-]
	 SCS Opposite-Spin Scale   =       1.2000000000000000 [-]
	 SCS Same-Spin Energy      =      -0.1382372450357523 [Eh]
	 SCS Opposite-Spin Energy  =      -1.4842507973299119 [Eh]
	 SCS Correlation Energy    =      -1.6224880423656642 [Eh]
	 SCS Total Energy          =    -721.3784316181959184 [Eh]
	-----------------------------------------------------------

  Dipole Moment: [D]
     X:     5.1620      Y:    -0.9489      Z:     2.7763     Total:     5.9376

*** Psi4 exiting successfully. Buy a developer a beer!
