                               Psi4 1.3.2 release

  ==> Input File <==

--------------------------------------------------------------------------
#psi4
#
memory 32 gb

molecule  {
-1 1
  P       -0.9206940     0.0325050    -0.1379180
  O        0.6316176    -0.4405943    -0.3775506
  O       -1.0869660    -0.1237460     1.5140700
  O       -1.7761100    -1.0113720    -0.8028300
  O       -1.0141860     1.5044880    -0.4470930
  C        1.6724330     0.4007460     0.1532460
  C        3.0061220    -0.2801360    -0.0629140
  H        1.5936159     1.3444897    -0.3952513
  H        1.5019730     0.5929700     1.2191390
  H        3.0451600    -1.2240850     0.4853350
  H        3.1601600    -0.4835910    -1.1252110
  H        3.8211450     0.3599160     0.2891820
  H       -1.5629250    -0.9540910     1.6878470
units angstrom
no_reorient  #important for SAPT in psi4, default
symmetry c1  #important for SAPT in psi4, default
}

set PROPERTIES_ORIGIN ["COM"]
properties('MP2/aug-cc-pvtz', properties = ['dipole'])
--------------------------------------------------------------------------

    Molecular point group: c1
  Charge       = -1
  Multiplicity = 1
  Basis Set: AUG-CC-PVTZ
    Blend: AUG-CC-PVTZ
  Basis Set: (AUG-CC-PVTZ AUX)
    Blend: AUG-CC-PVTZ-JKFIT

    Orbital Energies [Eh]
    ---------------------

    Doubly Occupied:

       1A    -79.877695     2A    -20.405741     3A    -20.399479
       4A    -20.303861     5A    -20.300353     6A    -11.141665
       7A    -11.102824     8A     -7.393468     9A     -5.292280
      10A     -5.291557    11A     -5.290072    12A     -1.230588
      13A     -1.180523    14A     -1.094908    15A     -1.059050
      16A     -0.890519    17A     -0.712034    18A     -0.605274
      19A     -0.534781    20A     -0.515590    21A     -0.465803
      22A     -0.445882    23A     -0.427691    24A     -0.423286
      25A     -0.394935    26A     -0.370400    27A     -0.355793
      28A     -0.325793    29A     -0.305450    30A     -0.283415
      31A     -0.264821    32A     -0.249553    33A     -0.235574

  @DF-RHF Final Energy:  -719.75673770335004

   => Energetics <=

    Nuclear Repulsion Energy =            424.8982682946025307
    One-Electron Energy =               -1850.9686966065296474
    Two-Electron Energy =                 706.3136906085770761
    Total Energy =                       -719.7567377033500406
  Basis Set: (AUG-CC-PVTZ AUX)
    Blend: AUG-CC-PVTZ-RI
    Molecular point group: c1

    Geometry (in Angstrom), charge = -1, multiplicity = 1:

       Center              X                  Y                   Z               Mass
    ------------   -----------------  -----------------  -----------------  -----------------
         P           -0.819582920337     0.024923799579    -0.115327784638    30.973761998420
         O            0.732728679663    -0.448175500421    -0.354960384638    15.994914619570
         O           -0.985854920337    -0.131327200421     1.536660215362    15.994914619570
         O           -1.674998920337    -1.018953200421    -0.780239784638    15.994914619570
         O           -0.913074920337     1.496906799579    -0.424502784638    15.994914619570
         C            1.773544079663     0.393164799579     0.175836215362    12.000000000000
         C            3.107233079663    -0.287717200421    -0.040323784638    12.000000000000
         H            1.694726979663     1.336908499579    -0.372661084638     1.007825032230
         H            1.603084079663     0.585388799579     1.241729215362     1.007825032230
         H            3.146271079663    -1.231666200421     0.507925215362     1.007825032230
         H            3.261271079663    -0.491172200421    -1.102620784638     1.007825032230
         H            3.922256079663     0.352334799579     0.311772215362     1.007825032230
         H           -1.461813920337    -0.961672200421     1.710437215362     1.007825032230

  Basis Set: AUG-CC-PVTZ
    Blend: AUG-CC-PVTZ
  Basis Set: (AUG-CC-PVTZ AUX)
    Blend: AUG-CC-PVTZ-JKFIT
	 Reference Energy          =    -719.7567377033500406 [Eh]
	 Singles Energy            =      -0.0000000000000000 [Eh]
	 Same-Spin Energy          =      -0.4144690027150926 [Eh]
	 Opposite-Spin Energy      =      -1.2360925410363581 [Eh]
	 Correlation Energy        =      -1.6505615437514507 [Eh]
	 Total Energy              =    -721.4072992471014913 [Eh]

	 ================> DF-SCS-MP2 Energies <==================
	-----------------------------------------------------------
	 SCS Same-Spin Scale       =       0.3333333333333333 [-]
	 SCS Opposite-Spin Scale   =       1.2000000000000000 [-]
	 SCS Same-Spin Energy      =      -0.1381563342383642 [Eh]
	 SCS Opposite-Spin Energy  =      -1.4833110492436297 [Eh]
	 SCS Correlation Energy    =      -1.6214673834819939 [Eh]
	 SCS Total Energy          =    -721.3782050868320539 [Eh]
	-----------------------------------------------------------

  Dipole Moment: [D]
     X:     5.2565      Y:    -1.1916      Z:     2.7511     Total:     6.0514

*** Psi4 exiting successfully. Buy a developer a beer!
