                               Psi4 1.3.2 release

  ==> Input File <==

--------------------------------------------------------------------------
#psi4
#
memory 32 gb

molecule  {
-1 1
  P       -0.9206940     0.0325050    -0.1379180
  O        0.6605830    -0.4228428    -0.3610006
  O       -1.0869660    -0.1237460     1.5140700
  O       -1.7761100    -1.0113720    -0.8028300
  O       -0.9626639     1.5045937    -0.4576949
  C        1.6724330     0.4007460     0.1532460
  C        3.0061220    -0.2801360    -0.0629140
  H        1.6230780     1.3579470    -0.3750000
  H        1.5019730     0.5929700     1.2191390
  H        3.0451600    -1.2240850     0.4853350
  H        3.1601600    -0.4835910    -1.1252110
  H        3.8211450     0.3599160     0.2891820
  H       -1.5629250    -0.9540910     1.6878470
units angstrom
no_reorient  #important for SAPT in psi4, default
symmetry c1  #important for SAPT in psi4, default
}

set PROPERTIES_ORIGIN ["COM"]
properties('MP2/aug-cc-pvtz', properties = ['dipole'])
--------------------------------------------------------------------------

    Molecular point group: c1
  Charge       = -1
  Multiplicity = 1
  Basis Set: AUG-CC-PVTZ
    Blend: AUG-CC-PVTZ
  Basis Set: (AUG-CC-PVTZ AUX)
    Blend: AUG-CC-PVTZ-JKFIT

    Orbital Energies [Eh]
    ---------------------

    Doubly Occupied:

       1A    -79.882518     2A    -20.409192     3A    -20.395363
       4A    -20.310767     5A    -20.302337     6A    -11.134434
       7A    -11.097849     8A     -7.397855     9A     -5.296677
      10A     -5.295954    11A     -5.294436    12A     -1.233324
      13A     -1.185047    14A     -1.099414    15A     -1.063088
      16A     -0.884743    17A     -0.708244    18A     -0.607724
      19A     -0.537419    20A     -0.513924    21A     -0.468848
      22A     -0.445723    23A     -0.427104    24A     -0.421378
      25A     -0.395618    26A     -0.369827    27A     -0.358304
      28A     -0.323354    29A     -0.299063    30A     -0.285763
      31A     -0.268612    32A     -0.252054    33A     -0.240009

  @DF-RHF Final Energy:  -719.75711185975763

   => Energetics <=

    Nuclear Repulsion Energy =            425.1332985045829673
    One-Electron Energy =               -1851.3688876152154990
    Two-Electron Energy =                 706.4784772508750166
    Total Energy =                       -719.7571118597576287
  Basis Set: (AUG-CC-PVTZ AUX)
    Blend: AUG-CC-PVTZ-RI
    Molecular point group: c1

    Geometry (in Angstrom), charge = -1, multiplicity = 1:

       Center              X                  Y                   Z               Mass
    ------------   -----------------  -----------------  -----------------  -----------------
         P           -0.830119555751     0.022530310731    -0.116252174847    30.973761998420
         O            0.751157444249    -0.432817489269    -0.339334774847    15.994914619570
         O           -0.996391555751    -0.133720689269     1.535735825153    15.994914619570
         O           -1.685535555751    -1.021346689269    -0.781164174847    15.994914619570
         O           -0.872089455751     1.494619010731    -0.436029074847    15.994914619570
         C            1.763007444249     0.390771310731     0.174911825153    12.000000000000
         C            3.096696444249    -0.290110689269    -0.041248174847    12.000000000000
         H            1.713652444249     1.347972310731    -0.353334174847     1.007825032230
         H            1.592547444249     0.582995310731     1.240804825153     1.007825032230
         H            3.135734444249    -1.234059689269     0.507000825153     1.007825032230
         H            3.250734444249    -0.493565689269    -1.103545174847     1.007825032230
         H            3.911719444249     0.349941310731     0.310847825153     1.007825032230
         H           -1.472350555751    -0.964065689269     1.709512825153     1.007825032230

  Basis Set: AUG-CC-PVTZ
    Blend: AUG-CC-PVTZ
  Basis Set: (AUG-CC-PVTZ AUX)
    Blend: AUG-CC-PVTZ-JKFIT
	 Reference Energy          =    -719.7571118597576287 [Eh]
	 Singles Energy            =      -0.0000000000000000 [Eh]
	 Same-Spin Energy          =      -0.4146303505374384 [Eh]
	 Opposite-Spin Energy      =      -1.2360274101038504 [Eh]
	 Correlation Energy        =      -1.6506577606412889 [Eh]
	 Total Energy              =    -721.4077696203988808 [Eh]

	 ================> DF-SCS-MP2 Energies <==================
	-----------------------------------------------------------
	 SCS Same-Spin Scale       =       0.3333333333333333 [-]
	 SCS Opposite-Spin Scale   =       1.2000000000000000 [-]
	 SCS Same-Spin Energy      =      -0.1382101168458128 [Eh]
	 SCS Opposite-Spin Energy  =      -1.4832328921246205 [Eh]
	 SCS Correlation Energy    =      -1.6214430089704333 [Eh]
	 SCS Total Energy          =    -721.3785548687280880 [Eh]
	-----------------------------------------------------------

  Dipole Moment: [D]
     X:     4.8013      Y:    -1.2538      Z:     2.7328     Total:     5.6651

*** Psi4 exiting successfully. Buy a developer a beer!
