                               Psi4 1.3.2 release

  ==> Input File <==

--------------------------------------------------------------------------
#psi4
#
memory 32 gb

molecule  {
-1 1
  P       -0.9206940     0.0325050    -0.1379180
  O        0.6460740    -0.4769070    -0.3459610
  O       -1.0869660    -0.1237460     1.5140700
  O       -1.7761100    -1.0113720    -0.8028300
  O       -1.0141860     1.5044880    -0.4470930
  C        1.6724330     0.4007460     0.1532460
  C        3.0061220    -0.2801360    -0.0629140
  H        1.6230780     1.3579470    -0.3750000
  H        1.5019730     0.5929700     1.2191390
  H        3.0451600    -1.2240850     0.4853350
  H        3.1601600    -0.4835910    -1.1252110
  H        3.8211450     0.3599160     0.2891820
  H       -1.6607852    -1.1248152     1.7235767
units angstrom
no_reorient  #important for SAPT in psi4, default
symmetry c1  #important for SAPT in psi4, default
}

set PROPERTIES_ORIGIN ["COM"]
properties('MP2/aug-cc-pvtz', properties = ['dipole'])
--------------------------------------------------------------------------

    Molecular point group: c1
  Charge       = -1
  Multiplicity = 1
  Basis Set: AUG-CC-PVTZ
    Blend: AUG-CC-PVTZ
  Basis Set: (AUG-CC-PVTZ AUX)
    Blend: AUG-CC-PVTZ-JKFIT

    Orbital Energies [Eh]
    ---------------------

    Doubly Occupied:

       1A    -79.878271     2A    -20.418641     3A    -20.399398
       4A    -20.304284     5A    -20.302871     6A    -11.139662
       7A    -11.100341     8A     -7.393812     9A     -5.292582
      10A     -5.291853    11A     -5.290444    12A     -1.219804
      13A     -1.154654    14A     -1.089733    15A     -1.060077
      16A     -0.887831    17A     -0.708555    18A     -0.588143
      19A     -0.519390    20A     -0.503325    21A     -0.453276
      22A     -0.436630    23A     -0.423419    24A     -0.418377
      25A     -0.393682    26A     -0.367550    27A     -0.350950
      28A     -0.325092    29A     -0.302851    30A     -0.283816
      31A     -0.264139    32A     -0.250314    33A     -0.236010

  @DF-RHF Final Energy:  -719.72022598507056

   => Energetics <=

    Nuclear Repulsion Energy =            423.0587051366683795
    One-Electron Energy =               -1847.4583059358615174
    Two-Electron Energy =                 704.6793748141226388
    Total Energy =                       -719.7202259850705559
  Basis Set: (AUG-CC-PVTZ AUX)
    Blend: AUG-CC-PVTZ-RI
    Molecular point group: c1

    Geometry (in Angstrom), charge = -1, multiplicity = 1:

       Center              X                  Y                   Z               Mass
    ------------   -----------------  -----------------  -----------------  -----------------
         P           -0.820881281018     0.030838310478    -0.119821307377    30.973761998420
         O            0.745886718982    -0.478573689522    -0.327864307377    15.994914619570
         O           -0.987153281018    -0.125412689522     1.532166692623    15.994914619570
         O           -1.676297281018    -1.013038689522    -0.784733307377    15.994914619570
         O           -0.914373281018     1.502821310478    -0.428996307377    15.994914619570
         C            1.772245718982     0.399079310478     0.171342692623    12.000000000000
         C            3.105934718982    -0.281802689522    -0.044817307377    12.000000000000
         H            1.722890718982     1.356280310478    -0.356903307377     1.007825032230
         H            1.601785718982     0.591303310478     1.237235692623     1.007825032230
         H            3.144972718982    -1.225751689522     0.503431692623     1.007825032230
         H            3.259972718982    -0.485257689522    -1.107114307377     1.007825032230
         H            3.920957718982     0.358249310478     0.307278692623     1.007825032230
         H           -1.560972481018    -1.126481889522     1.741673392623     1.007825032230

  Basis Set: AUG-CC-PVTZ
    Blend: AUG-CC-PVTZ
  Basis Set: (AUG-CC-PVTZ AUX)
    Blend: AUG-CC-PVTZ-JKFIT
	 Reference Energy          =    -719.7202259850705559 [Eh]
	 Singles Energy            =      -0.0000000000000000 [Eh]
	 Same-Spin Energy          =      -0.4168634732962508 [Eh]
	 Opposite-Spin Energy      =      -1.2431534199577277 [Eh]
	 Correlation Energy        =      -1.6600168932539785 [Eh]
	 Total Energy              =    -721.3802428783245659 [Eh]

	 ================> DF-SCS-MP2 Energies <==================
	-----------------------------------------------------------
	 SCS Same-Spin Scale       =       0.3333333333333333 [-]
	 SCS Opposite-Spin Scale   =       1.2000000000000000 [-]
	 SCS Same-Spin Energy      =      -0.1389544910987503 [Eh]
	 SCS Opposite-Spin Energy  =      -1.4917841039492732 [Eh]
	 SCS Correlation Energy    =      -1.6307385950480235 [Eh]
	 SCS Total Energy          =    -721.3509645801185570 [Eh]
	-----------------------------------------------------------

  Dipole Moment: [D]
     X:     5.0217      Y:    -1.2262      Z:     2.7405     Total:     5.8507

*** Psi4 exiting successfully. Buy a developer a beer!
