                               Psi4 1.3.2 release

  ==> Input File <==

--------------------------------------------------------------------------
#psi4
#
memory 32 gb

molecule  {
-1 1
  P       -0.9300096     0.0083483    -0.1509429
  O        0.6460740    -0.4769070    -0.3459610
  O       -1.0869660    -0.1237460     1.5140700
  O       -1.7761100    -1.0113720    -0.8028300
  O       -1.0141860     1.5044880    -0.4470930
  C        1.6898782     0.3844677     0.1453654
  C        3.0061220    -0.2801360    -0.0629140
  H        1.6230780     1.3579470    -0.3750000
  H        1.5019730     0.5929700     1.2191390
  H        3.0451600    -1.2240850     0.4853350
  H        3.1601600    -0.4835910    -1.1252110
  H        3.8211450     0.3599160     0.2891820
  H       -1.5629250    -0.9540910     1.6878470
units angstrom
no_reorient  #important for SAPT in psi4, default
symmetry c1  #important for SAPT in psi4, default
}

set PROPERTIES_ORIGIN ["COM"]
properties('MP2/aug-cc-pvtz', properties = ['dipole'])
--------------------------------------------------------------------------

    Molecular point group: c1
  Charge       = -1
  Multiplicity = 1
  Basis Set: AUG-CC-PVTZ
    Blend: AUG-CC-PVTZ
  Basis Set: (AUG-CC-PVTZ AUX)
    Blend: AUG-CC-PVTZ-JKFIT

    Orbital Energies [Eh]
    ---------------------

    Doubly Occupied:

       1A    -79.879947     2A    -20.403450     3A    -20.399004
       4A    -20.311164     5A    -20.300188     6A    -11.140715
       7A    -11.100315     8A     -7.395622     9A     -5.294386
      10A     -5.293689    11A     -5.292239    12A     -1.226028
      13A     -1.176102    14A     -1.104534    15A     -1.057991
      16A     -0.893781    17A     -0.706500    18A     -0.601701
      19A     -0.532012    20A     -0.510652    21A     -0.467030
      22A     -0.444706    23A     -0.427404    24A     -0.422093
      25A     -0.392950    26A     -0.368706    27A     -0.359298
      28A     -0.325412    29A     -0.299763    30A     -0.287199
      31A     -0.272793    32A     -0.248079    33A     -0.238211

  @DF-RHF Final Energy:  -719.75446398410406

   => Energetics <=

    Nuclear Repulsion Energy =            424.0442277537462132
    One-Electron Energy =               -1849.2500544925414943
    Two-Electron Energy =                 705.4513627546911039
    Total Energy =                       -719.7544639841040635
  Basis Set: (AUG-CC-PVTZ AUX)
    Blend: AUG-CC-PVTZ-RI
    Molecular point group: c1

    Geometry (in Angstrom), charge = -1, multiplicity = 1:

       Center              X                  Y                   Z               Mass
    ------------   -----------------  -----------------  -----------------  -----------------
         P           -0.830352314013     0.012853619008    -0.128574166936    30.973761998420
         O            0.745731285987    -0.472401680992    -0.323592266936    15.994914619570
         O           -0.987308714013    -0.119240680992     1.536438733064    15.994914619570
         O           -1.676452714013    -1.006866680992    -0.780461266936    15.994914619570
         O           -0.914528714013     1.508993319008    -0.424724266936    15.994914619570
         C            1.789535485987     0.388973019008     0.167734133064    12.000000000000
         C            3.105779285987    -0.275630680992    -0.040545266936    12.000000000000
         H            1.722735285987     1.362452319008    -0.352631266936     1.007825032230
         H            1.601630285987     0.597475319008     1.241507733064     1.007825032230
         H            3.144817285987    -1.219579680992     0.507703733064     1.007825032230
         H            3.259817285987    -0.479085680992    -1.102842266936     1.007825032230
         H            3.920802285987     0.364421319008     0.311550733064     1.007825032230
         H           -1.463267714013    -0.949585680992     1.710215733064     1.007825032230

  Basis Set: AUG-CC-PVTZ
    Blend: AUG-CC-PVTZ
  Basis Set: (AUG-CC-PVTZ AUX)
    Blend: AUG-CC-PVTZ-JKFIT
	 Reference Energy          =    -719.7544639841040635 [Eh]
	 Singles Energy            =      -0.0000000000000000 [Eh]
	 Same-Spin Energy          =      -0.4147977915385567 [Eh]
	 Opposite-Spin Energy      =      -1.2368683841726382 [Eh]
	 Correlation Energy        =      -1.6516661757111950 [Eh]
	 Total Energy              =    -721.4061301598152340 [Eh]

	 ================> DF-SCS-MP2 Energies <==================
	-----------------------------------------------------------
	 SCS Same-Spin Scale       =       0.3333333333333333 [-]
	 SCS Opposite-Spin Scale   =       1.2000000000000000 [-]
	 SCS Same-Spin Energy      =      -0.1382659305128522 [Eh]
	 SCS Opposite-Spin Energy  =      -1.4842420610071658 [Eh]
	 SCS Correlation Energy    =      -1.6225079915200180 [Eh]
	 SCS Total Energy          =    -721.3769719756240875 [Eh]
	-----------------------------------------------------------

  Dipole Moment: [D]
     X:     5.0462      Y:    -1.4116      Z:     2.5497     Total:     5.8273

*** Psi4 exiting successfully. Buy a developer a beer!
