                               Psi4 1.4a3.dev225

  ==> Input File <==

--------------------------------------------------------------------------
#psi4
#
memory 32 gb

molecule  {
-1 1
  P       -0.9277810     0.0961130     0.0976350
  O        0.6463760     0.5937280    -0.0402780
  O       -1.0769050    -0.8632740    -1.2547320
  O       -1.7527520     1.3345500    -0.1191100
  O       -1.0827680    -0.7945940     1.3071650
  C        1.6967169    -0.4455046     0.1355109
  C        3.0075080     0.2459920    -0.0890990
  H        1.5881620    -0.8381400     1.1347230
  H        1.5022440    -1.2178370    -0.5954040
  H        3.0701330     0.6620790    -1.0974680
  H        3.1582490     1.0535750     0.6314230
  H        3.8108830    -0.4860100     0.0361070
  H       -1.0981360    -1.7910910    -0.9612950
units angstrom
no_reorient  #important for SAPT in psi4, default
symmetry c1  #important for SAPT in psi4, default
}

set PROPERTIES_ORIGIN ["COM"]
properties('MP2/aug-cc-pvtz', properties = ['dipole'])
--------------------------------------------------------------------------

    Molecular point group: c1
  Charge       = -1
  Multiplicity = 1
  Basis Set: AUG-CC-PVTZ
    Blend: AUG-CC-PVTZ
  Basis Set: (AUG-CC-PVTZ AUX)
    Blend: AUG-CC-PVTZ-JKFIT

    Orbital Energies [Eh]
    ---------------------

    Doubly Occupied:

       1A    -79.877263     2A    -20.405850     3A    -20.398015
       4A    -20.309028     5A    -20.295081     6A    -11.146553
       7A    -11.105800     8A     -7.392762     9A     -5.291595
      10A     -5.290767    11A     -5.289408    12A     -1.222316
      13A     -1.171843    14A     -1.094082    15A     -1.057167
      16A     -0.898449    17A     -0.717124    18A     -0.600810
      19A     -0.531812    20A     -0.520452    21A     -0.468690
      22A     -0.446982    23A     -0.425565    24A     -0.415442
      25A     -0.392432    26A     -0.381971    27A     -0.343150
      28A     -0.336276    29A     -0.311473    30A     -0.282662
      31A     -0.264685    32A     -0.247686    33A     -0.233606

  @DF-RHF Final Energy:  -719.75108556951625

   => Energetics <=

    Nuclear Repulsion Energy =            423.5585825100578177
    One-Electron Energy =               -1848.2857407231194884
    Two-Electron Energy =                 704.9760726435453080
    Total Energy =                       -719.7510855695162491
  Basis Set: (AUG-CC-PVTZ AUX)
    Blend: AUG-CC-PVTZ-RI
    Molecular point group: c1

    Geometry (in Angstrom), charge = -1, multiplicity = 1:

       Center              X                  Y                   Z               Mass
    ------------   -----------------  -----------------  -----------------  -----------------
         P           -0.828575999540     0.077952178477     0.089541026361    30.973761998420
         O            0.745581000460     0.575567178477    -0.048371973639    15.994914619570
         O           -0.977699999540    -0.881434821523    -1.262825973639    15.994914619570
         O           -1.653546999540     1.316389178477    -0.127203973639    15.994914619570
         O           -0.983562999540    -0.812754821523     1.299071026361    15.994914619570
         C            1.795921900460    -0.463665421523     0.127416926361    12.000000000000
         C            3.106713000460     0.227831178477    -0.097192973639    12.000000000000
         H            1.687367000460    -0.856300821523     1.126629026361     1.007825032230
         H            1.601449000460    -1.235997821523    -0.603497973639     1.007825032230
         H            3.169338000460     0.643918178477    -1.105561973639     1.007825032230
         H            3.257454000460     1.035414178477     0.623329026361     1.007825032230
         H            3.910088000460    -0.504170821523     0.028013026361     1.007825032230
         H           -0.998930999540    -1.809251821523    -0.969388973639     1.007825032230

  Basis Set: AUG-CC-PVTZ
    Blend: AUG-CC-PVTZ
  Basis Set: (AUG-CC-PVTZ AUX)
    Blend: AUG-CC-PVTZ-JKFIT
	 Reference Energy          =    -719.7510855695162491 [Eh]
	 Singles Energy            =      -0.0000000000000000 [Eh]
	 Same-Spin Energy          =      -0.4150907126206980 [Eh]
	 Opposite-Spin Energy      =      -1.2379379891732052 [Eh]
	 Correlation Energy        =      -1.6530287017939032 [Eh]
	 Total Energy              =    -721.4041142713101635 [Eh]

	 ================> DF-SCS-MP2 Energies <==================
	-----------------------------------------------------------
	 SCS Same-Spin Scale       =       0.3333333333333333 [-]
	 SCS Opposite-Spin Scale   =       1.2000000000000000 [-]
	 SCS Same-Spin Energy      =      -0.1383635708735660 [Eh]
	 SCS Opposite-Spin Energy  =      -1.4855255870078461 [Eh]
	 SCS Correlation Energy    =      -1.6238891578814121 [Eh]
	 SCS Total Energy          =    -721.3749747273976709 [Eh]
	-----------------------------------------------------------

  Dipole Moment: [D]
     X:     6.0670      Y:    -3.0866      Z:    -1.3586     Total:     6.9413

*** Psi4 exiting successfully. Buy a developer a beer!
