                               Psi4 1.4a3.dev225

  ==> Input File <==

--------------------------------------------------------------------------
#psi4
#
memory 32 gb

molecule  {
-1 1
  P       -0.9277810     0.0961130     0.0976350
  O        0.6463760     0.5937280    -0.0402780
  O       -1.0813837    -0.8920879    -1.2953485
  O       -1.7527520     1.3345500    -0.1191100
  O       -1.0827680    -0.7945940     1.3071650
  C        1.6614230    -0.4105840     0.1296040
  C        3.0075080     0.2459920    -0.0890990
  H        1.5881620    -0.8381400     1.1347230
  H        1.5022440    -1.2178370    -0.5954040
  H        3.0701330     0.6620790    -1.0974680
  H        3.1582490     1.0535750     0.6314230
  H        3.8108830    -0.4860100     0.0361070
  H       -1.0981360    -1.7910910    -0.9612950
units angstrom
no_reorient  #important for SAPT in psi4, default
symmetry c1  #important for SAPT in psi4, default
}

set PROPERTIES_ORIGIN ["COM"]
properties('MP2/aug-cc-pvtz', properties = ['dipole'])
--------------------------------------------------------------------------

    Molecular point group: c1
  Charge       = -1
  Multiplicity = 1
  Basis Set: AUG-CC-PVTZ
    Blend: AUG-CC-PVTZ
  Basis Set: (AUG-CC-PVTZ AUX)
    Blend: AUG-CC-PVTZ-JKFIT

    Orbital Energies [Eh]
    ---------------------

    Doubly Occupied:

       1A    -79.885706     2A    -20.405839     3A    -20.404136
       4A    -20.315616     5A    -20.301094     6A    -11.147267
       7A    -11.104787     8A     -7.400566     9A     -5.299335
      10A     -5.298520    11A     -5.297166    12A     -1.227814
      13A     -1.177033    14A     -1.101049    15A     -1.062511
      16A     -0.893223    17A     -0.715258    18A     -0.601027
      19A     -0.533367    20A     -0.516972    21A     -0.470620
      22A     -0.449611    23A     -0.427672    24A     -0.419945
      25A     -0.394200    26A     -0.375680    27A     -0.345723
      28A     -0.337174    29A     -0.310018    30A     -0.287316
      31A     -0.269812    32A     -0.253470    33A     -0.239544

  @DF-RHF Final Energy:  -719.75242880128212

   => Energetics <=

    Nuclear Repulsion Energy =            422.6372516034808768
    One-Electron Energy =               -1846.2412197180240128
    Two-Electron Energy =                 703.8515393132609006
    Total Energy =                       -719.7524288012821216
  Basis Set: (AUG-CC-PVTZ AUX)
    Blend: AUG-CC-PVTZ-RI
    Molecular point group: c1

    Geometry (in Angstrom), charge = -1, multiplicity = 1:

       Center              X                  Y                   Z               Mass
    ------------   -----------------  -----------------  -----------------  -----------------
         P           -0.824614705494     0.078286806847     0.095305331265    30.973761998420
         O            0.749542294506     0.575901806847    -0.042607668735    15.994914619570
         O           -0.978217405494    -0.909914093153    -1.297678168735    15.994914619570
         O           -1.649585705494     1.316723806847    -0.121439668735    15.994914619570
         O           -0.979601705494    -0.812420193153     1.304835331265    15.994914619570
         C            1.764589294506    -0.428410193153     0.127274331265    12.000000000000
         C            3.110674294506     0.228165806847    -0.091428668735    12.000000000000
         H            1.691328294506    -0.855966193153     1.132393331265     1.007825032230
         H            1.605410294506    -1.235663193153    -0.597733668735     1.007825032230
         H            3.173299294506     0.644252806847    -1.099797668735     1.007825032230
         H            3.261415294506     1.035748806847     0.629093331265     1.007825032230
         H            3.914049294506    -0.503836193153     0.033777331265     1.007825032230
         H           -0.994969705494    -1.808917193153    -0.963624668735     1.007825032230

  Basis Set: AUG-CC-PVTZ
    Blend: AUG-CC-PVTZ
  Basis Set: (AUG-CC-PVTZ AUX)
    Blend: AUG-CC-PVTZ-JKFIT
	 Reference Energy          =    -719.7524288012821216 [Eh]
	 Singles Energy            =      -0.0000000000000000 [Eh]
	 Same-Spin Energy          =      -0.4152201918650976 [Eh]
	 Opposite-Spin Energy      =      -1.2384065681215013 [Eh]
	 Correlation Energy        =      -1.6536267599865990 [Eh]
	 Total Energy              =    -721.4060555612687722 [Eh]

	 ================> DF-SCS-MP2 Energies <==================
	-----------------------------------------------------------
	 SCS Same-Spin Scale       =       0.3333333333333333 [-]
	 SCS Opposite-Spin Scale   =       1.2000000000000000 [-]
	 SCS Same-Spin Energy      =      -0.1384067306216992 [Eh]
	 SCS Opposite-Spin Energy  =      -1.4860878817458014 [Eh]
	 SCS Correlation Energy    =      -1.6244946123675006 [Eh]
	 SCS Total Energy          =    -721.3769234136495925 [Eh]
	-----------------------------------------------------------

  Dipole Moment: [D]
     X:     5.9175      Y:    -2.8129      Z:    -1.1258     Total:     6.6480

*** Psi4 exiting successfully. Buy a developer a beer!
