                               Psi4 1.3.2 release

  ==> Input File <==

--------------------------------------------------------------------------
#psi4
#
memory 32 gb

molecule  {
-1 1
  P       -0.9136874     0.0451087    -0.1359566
  O        0.6460740    -0.4769070    -0.3459610
  O       -1.0869660    -0.1237460     1.5140700
  O       -1.7761100    -1.0113720    -0.8028300
  O       -1.0141860     1.5044880    -0.4470930
  C        1.6724330     0.4007460     0.1532460
  C        3.0061220    -0.2801360    -0.0629140
  H        1.6230780     1.3579470    -0.3750000
  H        1.5019730     0.5929700     1.2191390
  H        3.0451600    -1.2240850     0.4853350
  H        3.1601600    -0.4835910    -1.1252110
  H        3.8211450     0.3599160     0.2891820
  H       -1.5624621    -0.9525680     1.6961851
units angstrom
no_reorient  #important for SAPT in psi4, default
symmetry c1  #important for SAPT in psi4, default
}

set PROPERTIES_ORIGIN ["COM"]
properties('MP2/aug-cc-pvtz', properties = ['dipole'])
--------------------------------------------------------------------------

    Molecular point group: c1
  Charge       = -1
  Multiplicity = 1
  Basis Set: AUG-CC-PVTZ
    Blend: AUG-CC-PVTZ
  Basis Set: (AUG-CC-PVTZ AUX)
    Blend: AUG-CC-PVTZ-JKFIT

    Orbital Energies [Eh]
    ---------------------

    Doubly Occupied:

       1A    -79.880189     2A    -20.404528     3A    -20.401689
       4A    -20.306671     5A    -20.302128     6A    -11.141258
       7A    -11.101480     8A     -7.395679     9A     -5.294468
      10A     -5.293712    11A     -5.292313    12A     -1.228476
      13A     -1.178892    14A     -1.097573    15A     -1.059224
      16A     -0.889284    17A     -0.710180    18A     -0.606453
      19A     -0.535439    20A     -0.513727    21A     -0.463793
      22A     -0.445104    23A     -0.426904    24A     -0.420795
      25A     -0.395935    26A     -0.371162    27A     -0.352618
      28A     -0.328861    29A     -0.305613    30A     -0.284725
      31A     -0.265917    32A     -0.251256    33A     -0.236947

  @DF-RHF Final Energy:  -719.75603398732153

   => Energetics <=

    Nuclear Repulsion Energy =            424.3052527601777797
    One-Electron Energy =               -1849.7565871341239472
    Two-Electron Energy =                 705.6953003866245808
    Total Energy =                       -719.7560339873215298
  Basis Set: (AUG-CC-PVTZ AUX)
    Blend: AUG-CC-PVTZ-RI
    Molecular point group: c1

    Geometry (in Angstrom), charge = -1, multiplicity = 1:

       Center              X                  Y                   Z               Mass
    ------------   -----------------  -----------------  -----------------  -----------------
         P           -0.816403579457     0.038930191505    -0.118125074564    30.973761998420
         O            0.743357820543    -0.483085508495    -0.328129474564    15.994914619570
         O           -0.989682179457    -0.129924508495     1.531901525436    15.994914619570
         O           -1.678826179457    -1.017550508495    -0.784998474564    15.994914619570
         O           -0.916902179457     1.498309491505    -0.429261474564    15.994914619570
         C            1.769716820543     0.394567491505     0.171077525436    12.000000000000
         C            3.103405820543    -0.286314508495    -0.045082474564    12.000000000000
         H            1.720361820543     1.351768491505    -0.357168474564     1.007825032230
         H            1.599256820543     0.586791491505     1.236970525436     1.007825032230
         H            3.142443820543    -1.230263508495     0.503166525436     1.007825032230
         H            3.257443820543    -0.489769508495    -1.107379474564     1.007825032230
         H            3.918428820543     0.353737491505     0.307013525436     1.007825032230
         H           -1.465178279457    -0.958746508495     1.714016625436     1.007825032230

  Basis Set: AUG-CC-PVTZ
    Blend: AUG-CC-PVTZ
  Basis Set: (AUG-CC-PVTZ AUX)
    Blend: AUG-CC-PVTZ-JKFIT
	 Reference Energy          =    -719.7560339873215298 [Eh]
	 Singles Energy            =      -0.0000000000000000 [Eh]
	 Same-Spin Energy          =      -0.4147286059196468 [Eh]
	 Opposite-Spin Energy      =      -1.2368431843434058 [Eh]
	 Correlation Energy        =      -1.6515717902630525 [Eh]
	 Total Energy              =    -721.4076057775845356 [Eh]

	 ================> DF-SCS-MP2 Energies <==================
	-----------------------------------------------------------
	 SCS Same-Spin Scale       =       0.3333333333333333 [-]
	 SCS Opposite-Spin Scale   =       1.2000000000000000 [-]
	 SCS Same-Spin Energy      =      -0.1382428686398822 [Eh]
	 SCS Opposite-Spin Energy  =      -1.4842118212120869 [Eh]
	 SCS Correlation Energy    =      -1.6224546898519692 [Eh]
	 SCS Total Energy          =    -721.3784886771735501 [Eh]
	-----------------------------------------------------------

  Dipole Moment: [D]
     X:     5.2161      Y:    -0.9522      Z:     2.7332     Total:     5.9653

*** Psi4 exiting successfully. Buy a developer a beer!
