                               Psi4 1.3.2 release

  ==> Input File <==

--------------------------------------------------------------------------
#psi4
#
memory 32 gb

molecule  {
-1 1
  P       -0.9206940     0.0325050    -0.1379180
  O        0.6460740    -0.4769070    -0.3459610
  O       -1.0869660    -0.1237460     1.5140700
  O       -1.7761100    -1.0113720    -0.8028300
  O       -1.0141860     1.5044880    -0.4470930
  C        1.7437200     0.4617045     0.1879190
  C        3.0061220    -0.2801360    -0.0629140
  H        1.6230780     1.3579470    -0.3750000
  H        1.5019730     0.5929700     1.2191390
  H        3.0451600    -1.2240850     0.4853350
  H        3.1601600    -0.4835910    -1.1252110
  H        3.8211450     0.3599160     0.2891820
  H       -1.5629250    -0.9540910     1.6878470
units angstrom
no_reorient  #important for SAPT in psi4, default
symmetry c1  #important for SAPT in psi4, default
}

set PROPERTIES_ORIGIN ["COM"]
properties('MP2/aug-cc-pvtz', properties = ['dipole'])
--------------------------------------------------------------------------

    Molecular point group: c1
  Charge       = -1
  Multiplicity = 1
  Basis Set: AUG-CC-PVTZ
    Blend: AUG-CC-PVTZ
  Basis Set: (AUG-CC-PVTZ AUX)
    Blend: AUG-CC-PVTZ-JKFIT

    Orbital Energies [Eh]
    ---------------------

    Doubly Occupied:

       1A    -79.874372     2A    -20.401750     3A    -20.391149
       4A    -20.300989     5A    -20.300569     6A    -11.142706
       7A    -11.104986     8A     -7.389848     9A     -5.288637
      10A     -5.287857    11A     -5.286555    12A     -1.213783
      13A     -1.159169    14A     -1.090226    15A     -1.057303
      16A     -0.901216    17A     -0.715863    18A     -0.595632
      19A     -0.526385    20A     -0.516040    21A     -0.462107
      22A     -0.445311    23A     -0.422946    24A     -0.409585
      25A     -0.395388    26A     -0.375243    27A     -0.351494
      28A     -0.325233    29A     -0.308631    30A     -0.280608
      31A     -0.260805    32A     -0.247824    33A     -0.233607

  @DF-RHF Final Energy:  -719.74528217550619

   => Energetics <=

    Nuclear Repulsion Energy =            422.5075389553602463
    One-Electron Energy =               -1846.3780090424381797
    Two-Electron Energy =                 704.1251879115718566
    Total Energy =                       -719.7452821755061905
  Basis Set: (AUG-CC-PVTZ AUX)
    Blend: AUG-CC-PVTZ-RI
    Molecular point group: c1

    Geometry (in Angstrom), charge = -1, multiplicity = 1:

       Center              X                  Y                   Z               Mass
    ------------   -----------------  -----------------  -----------------  -----------------
         P           -0.828513818059     0.023609834934    -0.122861832073    30.973761998420
         O            0.738254181941    -0.485802165066    -0.330904832073    15.994914619570
         O           -0.994785818059    -0.132641165066     1.529126167927    15.994914619570
         O           -1.683929818059    -1.020267165066    -0.787773832073    15.994914619570
         O           -0.922005818059     1.495592834934    -0.432036832073    15.994914619570
         C            1.835900181941     0.452809334934     0.202975167927    12.000000000000
         C            3.098302181941    -0.289031165066    -0.047857832073    12.000000000000
         H            1.715258181941     1.349051834934    -0.359943832073     1.007825032230
         H            1.594153181941     0.584074834934     1.234195167927     1.007825032230
         H            3.137340181941    -1.232980165066     0.500391167927     1.007825032230
         H            3.252340181941    -0.492486165066    -1.110154832073     1.007825032230
         H            3.913325181941     0.351020834934     0.304238167927     1.007825032230
         H           -1.470744818059    -0.962986165066     1.702903167927     1.007825032230

  Basis Set: AUG-CC-PVTZ
    Blend: AUG-CC-PVTZ
  Basis Set: (AUG-CC-PVTZ AUX)
    Blend: AUG-CC-PVTZ-JKFIT
	 Reference Energy          =    -719.7452821755061905 [Eh]
	 Singles Energy            =      -0.0000000000000000 [Eh]
	 Same-Spin Energy          =      -0.4152723613362611 [Eh]
	 Opposite-Spin Energy      =      -1.2387041864441093 [Eh]
	 Correlation Energy        =      -1.6539765477803705 [Eh]
	 Total Energy              =    -721.3992587232866072 [Eh]

	 ================> DF-SCS-MP2 Energies <==================
	-----------------------------------------------------------
	 SCS Same-Spin Scale       =       0.3333333333333333 [-]
	 SCS Opposite-Spin Scale   =       1.2000000000000000 [-]
	 SCS Same-Spin Energy      =      -0.1384241204454204 [Eh]
	 SCS Opposite-Spin Energy  =      -1.4864450237329312 [Eh]
	 SCS Correlation Energy    =      -1.6248691441783516 [Eh]
	 SCS Total Energy          =    -721.3701513196845099 [Eh]
	-----------------------------------------------------------

  Dipole Moment: [D]
     X:     5.5242      Y:    -0.9648      Z:     2.7909     Total:     6.2639

*** Psi4 exiting successfully. Buy a developer a beer!
