                               Psi4 1.3.2 release

  ==> Input File <==

--------------------------------------------------------------------------
#psi4
#
memory 32 gb

molecule  {
-1 1
  P       -0.9206940     0.0325050    -0.1379180
  O        0.6460740    -0.4769070    -0.3459610
  O       -1.0869660    -0.1237460     1.5140700
  O       -1.7761100    -1.0113720    -0.8028300
  O       -1.0141860     1.5044880    -0.4470930
  C        1.5298589     0.2788290     0.0838999
  C        3.0061220    -0.2801360    -0.0629140
  H        1.6230780     1.3579470    -0.3750000
  H        1.5019730     0.5929700     1.2191390
  H        3.0451600    -1.2240850     0.4853350
  H        3.1601600    -0.4835910    -1.1252110
  H        3.8211450     0.3599160     0.2891820
  H       -1.5629250    -0.9540910     1.6878470
units angstrom
no_reorient  #important for SAPT in psi4, default
symmetry c1  #important for SAPT in psi4, default
}

set PROPERTIES_ORIGIN ["COM"]
properties('MP2/aug-cc-pvtz', properties = ['dipole'])
--------------------------------------------------------------------------

    Molecular point group: c1
  Charge       = -1
  Multiplicity = 1
  Basis Set: AUG-CC-PVTZ
    Blend: AUG-CC-PVTZ
  Basis Set: (AUG-CC-PVTZ AUX)
    Blend: AUG-CC-PVTZ-JKFIT

    Orbital Energies [Eh]
    ---------------------

    Doubly Occupied:

       1A    -79.894394     2A    -20.420969     3A    -20.414176
       4A    -20.315479     5A    -20.313758     6A    -11.147822
       7A    -11.093672     8A     -7.410048     9A     -5.308925
      10A     -5.308048    11A     -5.306434    12A     -1.305614
      13A     -1.205268    14A     -1.110457    15A     -1.070722
      16A     -0.863396    17A     -0.711719    18A     -0.627774
      19A     -0.559472    20A     -0.521681    21A     -0.490171
      22A     -0.471546    23A     -0.432099    24A     -0.424941
      25A     -0.402758    26A     -0.371902    27A     -0.356962
      28A     -0.305669    29A     -0.292879    30A     -0.278854
      31A     -0.262654    32A     -0.262050    33A     -0.247452

  @DF-RHF Final Energy:  -719.71982465644089

   => Energetics <=

    Nuclear Repulsion Energy =            428.1152393187747975
    One-Electron Energy =               -1856.6505930677419656
    Two-Electron Energy =                 708.8155290925263898
    Total Energy =                       -719.7198246564408919
  Basis Set: (AUG-CC-PVTZ AUX)
    Blend: AUG-CC-PVTZ-RI
    Molecular point group: c1

    Geometry (in Angstrom), charge = -1, multiplicity = 1:

       Center              X                  Y                   Z               Mass
    ------------   -----------------  -----------------  -----------------  -----------------
         P           -0.807983213340     0.041165830874    -0.112876028084    30.973761998420
         O            0.758784786660    -0.468246169126    -0.320919028084    15.994914619570
         O           -0.974255213340    -0.115085169126     1.539111971916    15.994914619570
         O           -1.663399213340    -1.002711169126    -0.777788028084    15.994914619570
         O           -0.901475213340     1.513148830874    -0.422051028084    15.994914619570
         C            1.642569686660     0.287489830874     0.108941871916    12.000000000000
         C            3.118832786660    -0.271475169126    -0.037872028084    12.000000000000
         H            1.735788786660     1.366607830874    -0.349958028084     1.007825032230
         H            1.614683786660     0.601630830874     1.244180971916     1.007825032230
         H            3.157870786660    -1.215424169126     0.510376971916     1.007825032230
         H            3.272870786660    -0.474930169126    -1.100169028084     1.007825032230
         H            3.933855786660     0.368576830874     0.314223971916     1.007825032230
         H           -1.450214213340    -0.945430169126     1.712888971916     1.007825032230

  Basis Set: AUG-CC-PVTZ
    Blend: AUG-CC-PVTZ
  Basis Set: (AUG-CC-PVTZ AUX)
    Blend: AUG-CC-PVTZ-JKFIT
	 Reference Energy          =    -719.7198246564408919 [Eh]
	 Singles Energy            =      -0.0000000000000000 [Eh]
	 Same-Spin Energy          =      -0.4156194815159168 [Eh]
	 Opposite-Spin Energy      =      -1.2365746193172171 [Eh]
	 Correlation Energy        =      -1.6521941008331340 [Eh]
	 Total Energy              =    -721.3720187572740770 [Eh]

	 ================> DF-SCS-MP2 Energies <==================
	-----------------------------------------------------------
	 SCS Same-Spin Scale       =       0.3333333333333333 [-]
	 SCS Opposite-Spin Scale   =       1.2000000000000000 [-]
	 SCS Same-Spin Energy      =      -0.1385398271719722 [Eh]
	 SCS Opposite-Spin Energy  =      -1.4838895431806605 [Eh]
	 SCS Correlation Energy    =      -1.6224293703526327 [Eh]
	 SCS Total Energy          =    -721.3422540267935119 [Eh]
	-----------------------------------------------------------

  Dipole Moment: [D]
     X:     4.0273      Y:    -1.5254      Z:     2.4367     Total:     4.9481

*** Psi4 exiting successfully. Buy a developer a beer!
