                               Psi4 1.4a3.dev225

  ==> Input File <==

--------------------------------------------------------------------------
#psi4
#
memory 32 gb

molecule  {
-1 1
  P       -0.9277810     0.0961130     0.0976350
  O        0.6463760     0.5937280    -0.0402780
  O       -1.0769050    -0.8632740    -1.2547320
  O       -1.7527520     1.3345500    -0.1191100
  O       -1.0827680    -0.7945940     1.3071650
  C        1.6755406    -0.4245522     0.1319668
  C        3.0075080     0.2459920    -0.0890990
  H        1.5881620    -0.8381400     1.1347230
  H        1.5022440    -1.2178370    -0.5954040
  H        3.0701330     0.6620790    -1.0974680
  H        3.1582490     1.0535750     0.6314230
  H        3.8108830    -0.4860100     0.0361070
  H       -1.0981360    -1.7910910    -0.9612950
units angstrom
no_reorient  #important for SAPT in psi4, default
symmetry c1  #important for SAPT in psi4, default
}

set PROPERTIES_ORIGIN ["COM"]
properties('MP2/aug-cc-pvtz', properties = ['dipole'])
--------------------------------------------------------------------------

    Molecular point group: c1
  Charge       = -1
  Multiplicity = 1
  Basis Set: AUG-CC-PVTZ
    Blend: AUG-CC-PVTZ
  Basis Set: (AUG-CC-PVTZ AUX)
    Blend: AUG-CC-PVTZ-JKFIT

    Orbital Energies [Eh]
    ---------------------

    Doubly Occupied:

       1A    -79.878994     2A    -20.406818     3A    -20.400781
       4A    -20.310140     5A    -20.296335     6A    -11.146177
       7A    -11.104680     8A     -7.394502     9A     -5.293337
      10A     -5.292514    11A     -5.291126    12A     -1.226969
      13A     -1.177709    14A     -1.095988    15A     -1.058382
      16A     -0.894667    17A     -0.715267    18A     -0.603805
      19A     -0.535007    20A     -0.518798    21A     -0.469892
      22A     -0.447582    23A     -0.426912    24A     -0.417904
      25A     -0.393408    26A     -0.379757    27A     -0.343565
      28A     -0.336680    29A     -0.310285    30A     -0.283941
      31A     -0.266057    32A     -0.249151    33A     -0.234909

  @DF-RHF Final Energy:  -719.75397529371344

   => Energetics <=

    Nuclear Repulsion Energy =            424.0786481796254748
    One-Electron Energy =               -1849.2611717482673157
    Two-Electron Energy =                 705.4285482749285165
    Total Energy =                       -719.7539752937134381
  Basis Set: (AUG-CC-PVTZ AUX)
    Blend: AUG-CC-PVTZ-RI
    Molecular point group: c1

    Geometry (in Angstrom), charge = -1, multiplicity = 1:

       Center              X                  Y                   Z               Mass
    ------------   -----------------  -----------------  -----------------  -----------------
         P           -0.826543080768     0.075940754041     0.089881258952    30.973761998420
         O            0.747613919232     0.573555754041    -0.048031741048    15.994914619570
         O           -0.975667080768    -0.883446245959    -1.262485741048    15.994914619570
         O           -1.651514080768     1.314377754041    -0.126863741048    15.994914619570
         O           -0.981530080768    -0.814766245959     1.299411258952    15.994914619570
         C            1.776778519232    -0.444724445959     0.124213058952    12.000000000000
         C            3.108745919232     0.225819754041    -0.096852741048    12.000000000000
         H            1.689399919232    -0.858312245959     1.126969258952     1.007825032230
         H            1.603481919232    -1.238009245959    -0.603157741048     1.007825032230
         H            3.171370919232     0.641906754041    -1.105221741048     1.007825032230
         H            3.259486919232     1.033402754041     0.623669258952     1.007825032230
         H            3.912120919232    -0.506182245959     0.028353258952     1.007825032230
         H           -0.996898080768    -1.811263245959    -0.969048741048     1.007825032230

  Basis Set: AUG-CC-PVTZ
    Blend: AUG-CC-PVTZ
  Basis Set: (AUG-CC-PVTZ AUX)
    Blend: AUG-CC-PVTZ-JKFIT
	 Reference Energy          =    -719.7539752937134381 [Eh]
	 Singles Energy            =      -0.0000000000000000 [Eh]
	 Same-Spin Energy          =      -0.4149413042308190 [Eh]
	 Opposite-Spin Energy      =      -1.2373928433482451 [Eh]
	 Correlation Energy        =      -1.6523341475790640 [Eh]
	 Total Energy              =    -721.4063094412924784 [Eh]

	 ================> DF-SCS-MP2 Energies <==================
	-----------------------------------------------------------
	 SCS Same-Spin Scale       =       0.3333333333333333 [-]
	 SCS Opposite-Spin Scale   =       1.2000000000000000 [-]
	 SCS Same-Spin Energy      =      -0.1383137680769397 [Eh]
	 SCS Opposite-Spin Energy  =      -1.4848714120178941 [Eh]
	 SCS Correlation Energy    =      -1.6231851800948338 [Eh]
	 SCS Total Energy          =    -721.3771604738083170 [Eh]
	-----------------------------------------------------------

  Dipole Moment: [D]
     X:     5.9470      Y:    -3.0350      Z:    -1.3642     Total:     6.8147

*** Psi4 exiting successfully. Buy a developer a beer!
