                               Psi4 1.4a3.dev225

  ==> Input File <==

--------------------------------------------------------------------------
#psi4
#
memory 32 gb

molecule  {
-1 1
  P       -0.9277810     0.0961130     0.0976350
  O        0.6463760     0.5937280    -0.0402780
  O       -1.0769050    -0.8632740    -1.2547320
  O       -1.7527520     1.3345500    -0.1191100
  O       -1.0848207    -0.8063908     1.3231844
  C        1.6614230    -0.4105840     0.1296040
  C        3.0075080     0.2459920    -0.0890990
  H        1.5881620    -0.8381400     1.1347230
  H        1.5022440    -1.2178370    -0.5954040
  H        3.0701330     0.6620790    -1.0974680
  H        3.1582490     1.0535750     0.6314230
  H        3.8108830    -0.4860100     0.0361070
  H       -1.0981360    -1.7910910    -0.9612950
units angstrom
no_reorient  #important for SAPT in psi4, default
symmetry c1  #important for SAPT in psi4, default
}

set PROPERTIES_ORIGIN ["COM"]
properties('MP2/aug-cc-pvtz', properties = ['dipole'])
--------------------------------------------------------------------------

    Molecular point group: c1
  Charge       = -1
  Multiplicity = 1
  Basis Set: AUG-CC-PVTZ
    Blend: AUG-CC-PVTZ
  Basis Set: (AUG-CC-PVTZ AUX)
    Blend: AUG-CC-PVTZ-JKFIT

    Orbital Energies [Eh]
    ---------------------

    Doubly Occupied:

       1A    -79.883819     2A    -20.409032     3A    -20.404053
       4A    -20.311636     5A    -20.299025     6A    -11.146585
       7A    -11.104321     8A     -7.398653     9A     -5.297559
      10A     -5.296688    11A     -5.295172    12A     -1.231111
      13A     -1.182653    14A     -1.093443    15A     -1.057063
      16A     -0.892623    17A     -0.714687    18A     -0.607332
      19A     -0.538192    20A     -0.518395    21A     -0.471511
      22A     -0.449190    23A     -0.427770    24A     -0.419992
      25A     -0.393440    26A     -0.378145    27A     -0.344016
      28A     -0.336251    29A     -0.309075    30A     -0.283017
      31A     -0.265500    32A     -0.250258    33A     -0.235540

  @DF-RHF Final Energy:  -719.75309794793145

   => Energetics <=

    Nuclear Repulsion Energy =            423.5793085232068620
    One-Electron Energy =               -1848.1733180659830396
    Two-Electron Energy =                 704.8409115948446697
    Total Energy =                       -719.7530979479314510
  Basis Set: (AUG-CC-PVTZ AUX)
    Blend: AUG-CC-PVTZ-RI
    Molecular point group: c1

    Geometry (in Angstrom), charge = -1, multiplicity = 1:

       Center              X                  Y                   Z               Mass
    ------------   -----------------  -----------------  -----------------  -----------------
         P           -0.824925133876     0.076109316812     0.088058261676    30.973761998420
         O            0.749231866124     0.573724316812    -0.049854738324    15.994914619570
         O           -0.974049133876    -0.883277683188    -1.264308738324    15.994914619570
         O           -1.649896133876     1.314546316812    -0.128686738324    15.994914619570
         O           -0.981964833876    -0.826394483188     1.313607661676    15.994914619570
         C            1.764278866124    -0.430587683188     0.120027261676    12.000000000000
         C            3.110363866124     0.225988316812    -0.098675738324    12.000000000000
         H            1.691017866124    -0.858143683188     1.125146261676     1.007825032230
         H            1.605099866124    -1.237840683188    -0.604980738324     1.007825032230
         H            3.172988866124     0.642075316812    -1.107044738324     1.007825032230
         H            3.261104866124     1.033571316812     0.621846261676     1.007825032230
         H            3.913738866124    -0.506013683188     0.026530261676     1.007825032230
         H           -0.995280133876    -1.811094683188    -0.970871738324     1.007825032230

  Basis Set: AUG-CC-PVTZ
    Blend: AUG-CC-PVTZ
  Basis Set: (AUG-CC-PVTZ AUX)
    Blend: AUG-CC-PVTZ-JKFIT
	 Reference Energy          =    -719.7530979479314510 [Eh]
	 Singles Energy            =      -0.0000000000000000 [Eh]
	 Same-Spin Energy          =      -0.4152799842607184 [Eh]
	 Opposite-Spin Energy      =      -1.2381089767438427 [Eh]
	 Correlation Energy        =      -1.6533889610045611 [Eh]
	 Total Energy              =    -721.4064869089360172 [Eh]

	 ================> DF-SCS-MP2 Energies <==================
	-----------------------------------------------------------
	 SCS Same-Spin Scale       =       0.3333333333333333 [-]
	 SCS Opposite-Spin Scale   =       1.2000000000000000 [-]
	 SCS Same-Spin Energy      =      -0.1384266614202395 [Eh]
	 SCS Opposite-Spin Energy  =      -1.4857307720926112 [Eh]
	 SCS Correlation Energy    =      -1.6241574335128506 [Eh]
	 SCS Total Energy          =    -721.3772553814443427 [Eh]
	-----------------------------------------------------------

  Dipole Moment: [D]
     X:     5.8852      Y:    -2.9322      Z:    -1.4636     Total:     6.7361

*** Psi4 exiting successfully. Buy a developer a beer!
