                               Psi4 1.3.2 release

  ==> Input File <==

--------------------------------------------------------------------------
#psi4
#
memory 32 gb

molecule  {
-1 1
  P       -0.9206940     0.0325050    -0.1379180
  O        0.6460740    -0.4769070    -0.3459610
  O       -1.0869660    -0.1237460     1.5140700
  O       -1.7761100    -1.0113720    -0.8028300
  O       -1.0265937     1.6998401    -0.4881247
  C        1.6724330     0.4007460     0.1532460
  C        3.0061220    -0.2801360    -0.0629140
  H        1.6230780     1.3579470    -0.3750000
  H        1.5019730     0.5929700     1.2191390
  H        3.0451600    -1.2240850     0.4853350
  H        3.1601600    -0.4835910    -1.1252110
  H        3.8211450     0.3599160     0.2891820
  H       -1.5629250    -0.9540910     1.6878470
units angstrom
no_reorient  #important for SAPT in psi4, default
symmetry c1  #important for SAPT in psi4, default
}

set PROPERTIES_ORIGIN ["COM"]
properties('MP2/aug-cc-pvtz', properties = ['dipole'])
--------------------------------------------------------------------------

    Molecular point group: c1
  Charge       = -1
  Multiplicity = 1
  Basis Set: AUG-CC-PVTZ
    Blend: AUG-CC-PVTZ
  Basis Set: (AUG-CC-PVTZ AUX)
    Blend: AUG-CC-PVTZ-JKFIT

    Orbital Energies [Eh]
    ---------------------

    Doubly Occupied:

       1A    -79.908523     2A    -20.418582     3A    -20.413604
       4A    -20.321592     5A    -20.311377     6A    -11.144778
       7A    -11.104308     8A     -7.420275     9A     -5.319146
      10A     -5.318346    11A     -5.316110    12A     -1.235021
      13A     -1.190019    14A     -1.097683    15A     -1.006771
      16A     -0.893145    17A     -0.714538    18A     -0.619589
      19A     -0.540212    20A     -0.519024    21A     -0.473934
      22A     -0.449523    23A     -0.431604    24A     -0.425983
      25A     -0.394445    26A     -0.375012    27A     -0.355261
      28A     -0.320992    29A     -0.307299    30A     -0.275332
      31A     -0.269849    32A     -0.230610    33A     -0.225083

  @DF-RHF Final Energy:  -719.71327535598334

   => Energetics <=

    Nuclear Repulsion Energy =            416.3745398220099787
    One-Electron Energy =               -1833.4804899162809306
    Two-Electron Energy =                 697.3926747382877238
    Total Energy =                       -719.7132753559833418
  Basis Set: (AUG-CC-PVTZ AUX)
    Blend: AUG-CC-PVTZ-RI
    Molecular point group: c1

    Geometry (in Angstrom), charge = -1, multiplicity = 1:

       Center              X                  Y                   Z               Mass
    ------------   -----------------  -----------------  -----------------  -----------------
         P           -0.820082610243     0.004464786424    -0.114282861207    30.973761998420
         O            0.746685389757    -0.504947213576    -0.322325861207    15.994914619570
         O           -0.986354610243    -0.151786213576     1.537705138793    15.994914619570
         O           -1.675498610243    -1.039412213576    -0.779194861207    15.994914619570
         O           -0.925982310243     1.671799886424    -0.464489561207    15.994914619570
         C            1.773044389757     0.372705786424     0.176881138793    12.000000000000
         C            3.106733389757    -0.308176213576    -0.039278861207    12.000000000000
         H            1.723689389757     1.329906786424    -0.351364861207     1.007825032230
         H            1.602584389757     0.564929786424     1.242774138793     1.007825032230
         H            3.145771389757    -1.252125213576     0.508970138793     1.007825032230
         H            3.260771389757    -0.511631213576    -1.101575861207     1.007825032230
         H            3.921756389757     0.331875786424     0.312817138793     1.007825032230
         H           -1.462313610243    -0.982131213576     1.711482138793     1.007825032230

  Basis Set: AUG-CC-PVTZ
    Blend: AUG-CC-PVTZ
  Basis Set: (AUG-CC-PVTZ AUX)
    Blend: AUG-CC-PVTZ-JKFIT
	 Reference Energy          =    -719.7132753559833418 [Eh]
	 Singles Energy            =      -0.0000000000000000 [Eh]
	 Same-Spin Energy          =      -0.4181169975040209 [Eh]
	 Opposite-Spin Energy      =      -1.2461996011765983 [Eh]
	 Correlation Energy        =      -1.6643165986806192 [Eh]
	 Total Energy              =    -721.3775919546640125 [Eh]

	 ================> DF-SCS-MP2 Energies <==================
	-----------------------------------------------------------
	 SCS Same-Spin Scale       =       0.3333333333333333 [-]
	 SCS Opposite-Spin Scale   =       1.2000000000000000 [-]
	 SCS Same-Spin Energy      =      -0.1393723325013403 [Eh]
	 SCS Opposite-Spin Energy  =      -1.4954395214119180 [Eh]
	 SCS Correlation Energy    =      -1.6348118539132583 [Eh]
	 SCS Total Energy          =    -721.3480872098965619 [Eh]
	-----------------------------------------------------------

  Dipole Moment: [D]
     X:     5.2960      Y:    -2.1991      Z:     2.9568     Total:     6.4519

*** Psi4 exiting successfully. Buy a developer a beer!
