                               Psi4 1.3.2 release

  ==> Input File <==

--------------------------------------------------------------------------
#psi4
#
memory 32 gb

molecule  {
-1 1
  P       -0.9206940     0.0325050    -0.1379180
  O        0.6248639    -0.4220508    -0.3931053
  O       -1.0869660    -0.1237460     1.5140700
  O       -1.7761100    -1.0113720    -0.8028300
  O       -1.0141860     1.5044880    -0.4470930
  C        1.6724330     0.4007460     0.1532460
  C        3.0061220    -0.2801360    -0.0629140
  H        1.5789186     1.3373287    -0.4051278
  H        1.5019730     0.5929700     1.2191390
  H        3.0451600    -1.2240850     0.4853350
  H        3.1601600    -0.4835910    -1.1252110
  H        3.8211450     0.3599160     0.2891820
  H       -1.5629250    -0.9540910     1.6878470
units angstrom
no_reorient  #important for SAPT in psi4, default
symmetry c1  #important for SAPT in psi4, default
}

set PROPERTIES_ORIGIN ["COM"]
properties('MP2/aug-cc-pvtz', properties = ['dipole'])
--------------------------------------------------------------------------

    Molecular point group: c1
  Charge       = -1
  Multiplicity = 1
  Basis Set: AUG-CC-PVTZ
    Blend: AUG-CC-PVTZ
  Basis Set: (AUG-CC-PVTZ AUX)
    Blend: AUG-CC-PVTZ-JKFIT

    Orbital Energies [Eh]
    ---------------------

    Doubly Occupied:

       1A    -79.876523     2A    -20.406021     3A    -20.398870
       4A    -20.303254     5A    -20.298375     6A    -11.142176
       7A    -11.103704     8A     -7.392430     9A     -5.291254
      10A     -5.290543    11A     -5.289016    12A     -1.231921
      13A     -1.181331    14A     -1.093898    15A     -1.057982
      16A     -0.891382    17A     -0.713307    18A     -0.605300
      19A     -0.534992    20A     -0.516848    21A     -0.466059
      22A     -0.446865    23A     -0.428187    24A     -0.424415
      25A     -0.394604    26A     -0.370266    27A     -0.356372
      28A     -0.325202    29A     -0.305424    30A     -0.282551
      31A     -0.264338    32A     -0.248036    33A     -0.234375

  @DF-RHF Final Energy:  -719.75600734655472

   => Energetics <=

    Nuclear Repulsion Energy =            425.2164728978552262
    One-Electron Energy =               -1851.6133210584891913
    Two-Electron Energy =                 706.6408408140791835
    Total Energy =                       -719.7560073465547248
  Basis Set: (AUG-CC-PVTZ AUX)
    Blend: AUG-CC-PVTZ-RI
    Molecular point group: c1

    Geometry (in Angstrom), charge = -1, multiplicity = 1:

       Center              X                  Y                   Z               Mass
    ------------   -----------------  -----------------  -----------------  -----------------
         P           -0.818600225958     0.022608729130    -0.113257791718    30.973761998420
         O            0.726957674042    -0.431947070870    -0.368445091718    15.994914619570
         O           -0.984872225958    -0.133642270870     1.538730208282    15.994914619570
         O           -1.674016225958    -1.021268270870    -0.778169791718    15.994914619570
         O           -0.912092225958     1.494591729130    -0.422432791718    15.994914619570
         C            1.774526774042     0.390849729130     0.177906208282    12.000000000000
         C            3.108215774042    -0.290032270870    -0.038253791718    12.000000000000
         H            1.681012374042     1.327432429130    -0.380467591718     1.007825032230
         H            1.604066774042     0.583073729130     1.243799208282     1.007825032230
         H            3.147253774042    -1.233981270870     0.509995208282     1.007825032230
         H            3.262253774042    -0.493487270870    -1.100550791718     1.007825032230
         H            3.923238774042     0.350019729130     0.313842208282     1.007825032230
         H           -1.460831225958    -0.963987270870     1.712507208282     1.007825032230

  Basis Set: AUG-CC-PVTZ
    Blend: AUG-CC-PVTZ
  Basis Set: (AUG-CC-PVTZ AUX)
    Blend: AUG-CC-PVTZ-JKFIT
	 Reference Energy          =    -719.7560073465547248 [Eh]
	 Singles Energy            =      -0.0000000000000000 [Eh]
	 Same-Spin Energy          =      -0.4143826780803879 [Eh]
	 Opposite-Spin Energy      =      -1.2358019024329923 [Eh]
	 Correlation Energy        =      -1.6501845805133801 [Eh]
	 Total Energy              =    -721.4061919270681074 [Eh]

	 ================> DF-SCS-MP2 Energies <==================
	-----------------------------------------------------------
	 SCS Same-Spin Scale       =       0.3333333333333333 [-]
	 SCS Opposite-Spin Scale   =       1.2000000000000000 [-]
	 SCS Same-Spin Energy      =      -0.1381275593601293 [Eh]
	 SCS Opposite-Spin Energy  =      -1.4829622829195908 [Eh]
	 SCS Correlation Energy    =      -1.6210898422797200 [Eh]
	 SCS Total Energy          =    -721.3770971888344548 [Eh]
	-----------------------------------------------------------

  Dipole Moment: [D]
     X:     5.3183      Y:    -1.2375      Z:     2.7757     Total:     6.1254

*** Psi4 exiting successfully. Buy a developer a beer!
