                               Psi4 1.3.2 release

  ==> Input File <==

--------------------------------------------------------------------------
#psi4
#
memory 32 gb

molecule  {
-1 1
  P       -0.9206940     0.0325050    -0.1379180
  O        0.6637578    -0.4935424    -0.3524394
  O       -1.0869660    -0.1237460     1.5140700
  O       -1.7761100    -1.0113720    -0.8028300
  O       -1.0141860     1.5044880    -0.4470930
  C        1.6724330     0.4007460     0.1532460
  C        2.9935988    -0.3007301    -0.0736991
  H        1.6230780     1.3579470    -0.3750000
  H        1.5019730     0.5929700     1.2191390
  H        3.0451600    -1.2240850     0.4853350
  H        3.1601600    -0.4835910    -1.1252110
  H        3.8211450     0.3599160     0.2891820
  H       -1.5629250    -0.9540910     1.6878470
units angstrom
no_reorient  #important for SAPT in psi4, default
symmetry c1  #important for SAPT in psi4, default
}

set PROPERTIES_ORIGIN ["COM"]
properties('MP2/aug-cc-pvtz', properties = ['dipole'])
--------------------------------------------------------------------------

    Molecular point group: c1
  Charge       = -1
  Multiplicity = 1
  Basis Set: AUG-CC-PVTZ
    Blend: AUG-CC-PVTZ
  Basis Set: (AUG-CC-PVTZ AUX)
    Blend: AUG-CC-PVTZ-JKFIT

    Orbital Energies [Eh]
    ---------------------

    Doubly Occupied:

       1A    -79.882605     2A    -20.407099     3A    -20.400149
       4A    -20.306973     5A    -20.306426     6A    -11.138932
       7A    -11.099486     8A     -7.397847     9A     -5.296591
      10A     -5.295864    11A     -5.294473    12A     -1.225306
      13A     -1.178277    14A     -1.098740    15A     -1.062796
      16A     -0.885761    17A     -0.707233    18A     -0.605065
      19A     -0.532390    20A     -0.513768    21A     -0.465742
      22A     -0.442195    23A     -0.427569    24A     -0.411710
      25A     -0.397538    26A     -0.372901    27A     -0.354195
      28A     -0.328640    29A     -0.303644    30A     -0.285601
      31A     -0.266663    32A     -0.254210    33A     -0.239720

  @DF-RHF Final Energy:  -719.75386510682722

   => Energetics <=

    Nuclear Repulsion Energy =            423.6398133278622140
    One-Electron Energy =               -1848.4151420100085943
    Two-Electron Energy =                 705.0214635753192169
    Total Energy =                       -719.7538651068272202
  Basis Set: (AUG-CC-PVTZ AUX)
    Blend: AUG-CC-PVTZ-RI
    Molecular point group: c1

    Geometry (in Angstrom), charge = -1, multiplicity = 1:

       Center              X                  Y                   Z               Mass
    ------------   -----------------  -----------------  -----------------  -----------------
         P           -0.822730862977     0.033567509427    -0.117668898233    30.973761998420
         O            0.761720937023    -0.492479890573    -0.332190298233    15.994914619570
         O           -0.989002862977    -0.122683490573     1.534319101767    15.994914619570
         O           -1.678146862977    -1.010309490573    -0.782580898233    15.994914619570
         O           -0.916222862977     1.505550509427    -0.426843898233    15.994914619570
         C            1.770396137023     0.401808509427     0.173495101767    12.000000000000
         C            3.091561937023    -0.299667590573    -0.053449998233    12.000000000000
         H            1.721041137023     1.359009509427    -0.354750898233     1.007825032230
         H            1.599936137023     0.594032509427     1.239388101767     1.007825032230
         H            3.143123137023    -1.223022490573     0.505584101767     1.007825032230
         H            3.258123137023    -0.482528490573    -1.104961898233     1.007825032230
         H            3.919108137023     0.360978509427     0.309431101767     1.007825032230
         H           -1.464961862977    -0.953028490573     1.708096101767     1.007825032230

  Basis Set: AUG-CC-PVTZ
    Blend: AUG-CC-PVTZ
  Basis Set: (AUG-CC-PVTZ AUX)
    Blend: AUG-CC-PVTZ-JKFIT
	 Reference Energy          =    -719.7538651068272202 [Eh]
	 Singles Energy            =      -0.0000000000000000 [Eh]
	 Same-Spin Energy          =      -0.4150843658400968 [Eh]
	 Opposite-Spin Energy      =      -1.2378144854279953 [Eh]
	 Correlation Energy        =      -1.6528988512680922 [Eh]
	 Total Energy              =    -721.4067639580953255 [Eh]

	 ================> DF-SCS-MP2 Energies <==================
	-----------------------------------------------------------
	 SCS Same-Spin Scale       =       0.3333333333333333 [-]
	 SCS Opposite-Spin Scale   =       1.2000000000000000 [-]
	 SCS Same-Spin Energy      =      -0.1383614552800323 [Eh]
	 SCS Opposite-Spin Energy  =      -1.4853773825135943 [Eh]
	 SCS Correlation Energy    =      -1.6237388377936266 [Eh]
	 SCS Total Energy          =    -721.3776039446208870 [Eh]
	-----------------------------------------------------------

  Dipole Moment: [D]
     X:     4.9621      Y:    -1.0836      Z:     2.7009     Total:     5.7525

*** Psi4 exiting successfully. Buy a developer a beer!
