                               Psi4 1.3.2 release

  ==> Input File <==

--------------------------------------------------------------------------
#psi4
#
memory 32 gb

molecule  {
-1 1
  P       -0.9347448     0.0072629    -0.1414633
  O        0.6460740    -0.4769070    -0.3459610
  O       -1.0869660    -0.1237460     1.5140700
  O       -1.7761100    -1.0113720    -0.8028300
  O       -1.0141860     1.5044880    -0.4470930
  C        1.6724330     0.4007460     0.1532460
  C        3.0061220    -0.2801360    -0.0629140
  H        1.6230780     1.3579470    -0.3750000
  H        1.5019730     0.5929700     1.2191390
  H        3.0451600    -1.2240850     0.4853350
  H        3.1601600    -0.4835910    -1.1252110
  H        3.8211450     0.3599160     0.2891820
  H       -1.5637421    -0.9569473     1.6711318
units angstrom
no_reorient  #important for SAPT in psi4, default
symmetry c1  #important for SAPT in psi4, default
}

set PROPERTIES_ORIGIN ["COM"]
properties('MP2/aug-cc-pvtz', properties = ['dipole'])
--------------------------------------------------------------------------

    Molecular point group: c1
  Charge       = -1
  Multiplicity = 1
  Basis Set: AUG-CC-PVTZ
    Blend: AUG-CC-PVTZ
  Basis Set: (AUG-CC-PVTZ AUX)
    Blend: AUG-CC-PVTZ-JKFIT

    Orbital Energies [Eh]
    ---------------------

    Doubly Occupied:

       1A    -79.880047     2A    -20.406983     3A    -20.398392
       4A    -20.311476     5A    -20.299719     6A    -11.139013
       7A    -11.099903     8A     -7.395802     9A     -5.294561
      10A     -5.293866    11A     -5.292398    12A     -1.227498
      13A     -1.178581    14A     -1.104625    15A     -1.056864
      16A     -0.887300    17A     -0.708035    18A     -0.602784
      19A     -0.531968    20A     -0.511204    21A     -0.469343
      22A     -0.441572    23A     -0.427208    24A     -0.420844
      25A     -0.394702    26A     -0.369663    27A     -0.359048
      28A     -0.325295    29A     -0.302423    30A     -0.286604
      31A     -0.273293    32A     -0.247383    33A     -0.237657

  @DF-RHF Final Energy:  -719.75519223530057

   => Energetics <=

    Nuclear Repulsion Energy =            424.0937891574508285
    One-Electron Energy =               -1849.3458585151352054
    Two-Electron Energy =                 705.4968771223838075
    Total Energy =                       -719.7551922353005693
  Basis Set: (AUG-CC-PVTZ AUX)
    Blend: AUG-CC-PVTZ-RI
    Molecular point group: c1

    Geometry (in Angstrom), charge = -1, multiplicity = 1:

       Center              X                  Y                   Z               Mass
    ------------   -----------------  -----------------  -----------------  -----------------
         P           -0.832232859665     0.010497486552    -0.122065278745    30.973761998420
         O            0.748585940335    -0.473672413448    -0.326562978745    15.994914619570
         O           -0.984454059665    -0.120511413448     1.533468021255    15.994914619570
         O           -1.673598059665    -1.008137413448    -0.783431978745    15.994914619570
         O           -0.911674059665     1.507722586552    -0.427694978745    15.994914619570
         C            1.774944940335     0.403980586552     0.172644021255    12.000000000000
         C            3.108633940335    -0.276901413448    -0.043515978745    12.000000000000
         H            1.725589940335     1.361181586552    -0.355601978745     1.007825032230
         H            1.604484940335     0.596204586552     1.238537021255     1.007825032230
         H            3.147671940335    -1.220850413448     0.504733021255     1.007825032230
         H            3.262671940335    -0.480356413448    -1.105812978745     1.007825032230
         H            3.923656940335     0.363150586552     0.308580021255     1.007825032230
         H           -1.461230159665    -0.953712713448     1.690529821255     1.007825032230

  Basis Set: AUG-CC-PVTZ
    Blend: AUG-CC-PVTZ
  Basis Set: (AUG-CC-PVTZ AUX)
    Blend: AUG-CC-PVTZ-JKFIT
	 Reference Energy          =    -719.7551922353005693 [Eh]
	 Singles Energy            =      -0.0000000000000000 [Eh]
	 Same-Spin Energy          =      -0.4147254603758942 [Eh]
	 Opposite-Spin Energy      =      -1.2368657767004141 [Eh]
	 Correlation Energy        =      -1.6515912370763082 [Eh]
	 Total Energy              =    -721.4067834723769010 [Eh]

	 ================> DF-SCS-MP2 Energies <==================
	-----------------------------------------------------------
	 SCS Same-Spin Scale       =       0.3333333333333333 [-]
	 SCS Opposite-Spin Scale   =       1.2000000000000000 [-]
	 SCS Same-Spin Energy      =      -0.1382418201252981 [Eh]
	 SCS Opposite-Spin Energy  =      -1.4842389320404969 [Eh]
	 SCS Correlation Energy    =      -1.6224807521657949 [Eh]
	 SCS Total Energy          =    -721.3776729874663260 [Eh]
	-----------------------------------------------------------

  Dipole Moment: [D]
     X:     4.9341      Y:    -1.4050      Z:     2.6412     Total:     5.7702

*** Psi4 exiting successfully. Buy a developer a beer!
