                               Psi4 1.3.2 release

  ==> Input File <==

--------------------------------------------------------------------------
#psi4
#
memory 32 gb

molecule  {
-1 1
  P       -0.9254117     0.0204456    -0.1444228
  O        0.6460740    -0.4769070    -0.3459610
  O       -1.0869660    -0.1237460     1.5140700
  O       -1.7761100    -1.0113720    -0.8028300
  O       -1.0141860     1.5044880    -0.4470930
  C        1.6811950     0.3926399     0.1493245
  C        3.0061220    -0.2801360    -0.0629140
  H        1.6230780     1.3579470    -0.3750000
  H        1.5019730     0.5929700     1.2191390
  H        3.0451600    -1.2240850     0.4853350
  H        3.1601600    -0.4835910    -1.1252110
  H        3.8211450     0.3599160     0.2891820
  H       -1.5629250    -0.9540910     1.6878470
units angstrom
no_reorient  #important for SAPT in psi4, default
symmetry c1  #important for SAPT in psi4, default
}

set PROPERTIES_ORIGIN ["COM"]
properties('MP2/aug-cc-pvtz', properties = ['dipole'])
--------------------------------------------------------------------------

    Molecular point group: c1
  Charge       = -1
  Multiplicity = 1
  Basis Set: AUG-CC-PVTZ
    Blend: AUG-CC-PVTZ
  Basis Set: (AUG-CC-PVTZ AUX)
    Blend: AUG-CC-PVTZ-JKFIT

    Orbital Energies [Eh]
    ---------------------

    Doubly Occupied:

       1A    -79.880105     2A    -20.404393     3A    -20.399784
       4A    -20.308221     5A    -20.302267     6A    -11.140581
       7A    -11.100637     8A     -7.395663     9A     -5.294448
      10A     -5.293709    11A     -5.292290    12A     -1.226927
      13A     -1.177473    14A     -1.099709    15A     -1.060716
      16A     -0.891162    17A     -0.707970    18A     -0.603445
      19A     -0.533157    20A     -0.511710    21A     -0.466185
      22A     -0.444207    23A     -0.426967    24A     -0.421542
      25A     -0.393952    26A     -0.369563    27A     -0.357319
      28A     -0.326405    29A     -0.302106    30A     -0.286043
      31A     -0.268785    32A     -0.250909    33A     -0.238469

  @DF-RHF Final Energy:  -719.75604640769780

   => Energetics <=

    Nuclear Repulsion Energy =            424.1325974205734610
    One-Electron Energy =               -1849.4236473553712585
    Two-Electron Energy =                 705.5350035270998887
    Total Energy =                       -719.7560464076977951
  Basis Set: (AUG-CC-PVTZ AUX)
    Blend: AUG-CC-PVTZ-RI
    Molecular point group: c1

    Geometry (in Angstrom), charge = -1, multiplicity = 1:

       Center              X                  Y                   Z               Mass
    ------------   -----------------  -----------------  -----------------  -----------------
         P           -0.826060139989     0.021168807895    -0.124049750823    30.973761998420
         O            0.745425560011    -0.476183792105    -0.325587950823    15.994914619570
         O           -0.987614439989    -0.123022792105     1.534443049177    15.994914619570
         O           -1.676758439989    -1.010648792105    -0.782456950823    15.994914619570
         O           -0.914834439989     1.505211207895    -0.426719950823    15.994914619570
         C            1.780546560011     0.393363107895     0.169697549177    12.000000000000
         C            3.105473560011    -0.279412792105    -0.042540950823    12.000000000000
         H            1.722429560011     1.358670207895    -0.354626950823     1.007825032230
         H            1.601324560011     0.593693207895     1.239512049177     1.007825032230
         H            3.144511560011    -1.223361792105     0.505708049177     1.007825032230
         H            3.259511560011    -0.482867792105    -1.104837950823     1.007825032230
         H            3.920496560011     0.360639207895     0.309555049177     1.007825032230
         H           -1.463573439989    -0.953367792105     1.708220049177     1.007825032230

  Basis Set: AUG-CC-PVTZ
    Blend: AUG-CC-PVTZ
  Basis Set: (AUG-CC-PVTZ AUX)
    Blend: AUG-CC-PVTZ-JKFIT
	 Reference Energy          =    -719.7560464076977951 [Eh]
	 Singles Energy            =      -0.0000000000000000 [Eh]
	 Same-Spin Energy          =      -0.4147528531924020 [Eh]
	 Opposite-Spin Energy      =      -1.2368343507754844 [Eh]
	 Correlation Energy        =      -1.6515872039678863 [Eh]
	 Total Energy              =    -721.4076336116656876 [Eh]

	 ================> DF-SCS-MP2 Energies <==================
	-----------------------------------------------------------
	 SCS Same-Spin Scale       =       0.3333333333333333 [-]
	 SCS Opposite-Spin Scale   =       1.2000000000000000 [-]
	 SCS Same-Spin Energy      =      -0.1382509510641340 [Eh]
	 SCS Opposite-Spin Energy  =      -1.4842012209305813 [Eh]
	 SCS Correlation Energy    =      -1.6224521719947154 [Eh]
	 SCS Total Energy          =    -721.3784985796925184 [Eh]
	-----------------------------------------------------------

  Dipole Moment: [D]
     X:     5.0828      Y:    -1.2573      Z:     2.6251     Total:     5.8572

*** Psi4 exiting successfully. Buy a developer a beer!
