                               Psi4 1.3.2 release

  ==> Input File <==

--------------------------------------------------------------------------
#psi4
#
memory 32 gb

molecule  {
-1 1
  P       -0.9109011     0.0565065    -0.1249565
  O        0.6460740    -0.4769070    -0.3459610
  O       -1.0869660    -0.1237460     1.5140700
  O       -1.7761100    -1.0113720    -0.8028300
  O       -1.0141860     1.5044880    -0.4470930
  C        1.6546751     0.4167570     0.1609746
  C        3.0061220    -0.2801360    -0.0629140
  H        1.6230780     1.3579470    -0.3750000
  H        1.5019730     0.5929700     1.2191390
  H        3.0451600    -1.2240850     0.4853350
  H        3.1601600    -0.4835910    -1.1252110
  H        3.8211450     0.3599160     0.2891820
  H       -1.5629250    -0.9540910     1.6878470
units angstrom
no_reorient  #important for SAPT in psi4, default
symmetry c1  #important for SAPT in psi4, default
}

set PROPERTIES_ORIGIN ["COM"]
properties('MP2/aug-cc-pvtz', properties = ['dipole'])
--------------------------------------------------------------------------

    Molecular point group: c1
  Charge       = -1
  Multiplicity = 1
  Basis Set: AUG-CC-PVTZ
    Blend: AUG-CC-PVTZ
  Basis Set: (AUG-CC-PVTZ AUX)
    Blend: AUG-CC-PVTZ-JKFIT

    Orbital Energies [Eh]
    ---------------------

    Doubly Occupied:

       1A    -79.880253     2A    -20.407116     3A    -20.402352
       4A    -20.308559     5A    -20.299277     6A    -11.140574
       7A    -11.101593     8A     -7.395854     9A     -5.294624
      10A     -5.293887    11A     -5.292468    12A     -1.230418
      13A     -1.181612    14A     -1.099719    15A     -1.054474
      16A     -0.883864    17A     -0.712575    18A     -0.608889
      19A     -0.536438    20A     -0.515582    21A     -0.464516
      22A     -0.443924    23A     -0.427330    24A     -0.419104
      25A     -0.398440    26A     -0.372902    27A     -0.349234
      28A     -0.329737    29A     -0.309257    30A     -0.284063
      31A     -0.267770    32A     -0.247793    33A     -0.234901

  @DF-RHF Final Energy:  -719.75431957737942

   => Energetics <=

    Nuclear Repulsion Energy =            424.4491419371107668
    One-Electron Energy =               -1850.0287220796167276
    Two-Electron Energy =                 705.8252605651266549
    Total Energy =                       -719.7543195773794196
  Basis Set: (AUG-CC-PVTZ AUX)
    Blend: AUG-CC-PVTZ-RI
    Molecular point group: c1

    Geometry (in Angstrom), charge = -1, multiplicity = 1:

       Center              X                  Y                   Z               Mass
    ------------   -----------------  -----------------  -----------------  -----------------
         P           -0.812599209443     0.045978965785    -0.110525399148    30.973761998420
         O            0.744375890557    -0.487434534215    -0.331529899148    15.994914619570
         O           -0.988664109443    -0.134273534215     1.528501100852    15.994914619570
         O           -1.677808109443    -1.021899534215    -0.788398899148    15.994914619570
         O           -0.915884109443     1.493960465785    -0.432661899148    15.994914619570
         C            1.752976990557     0.406229465785     0.175405700852    12.000000000000
         C            3.104423890557    -0.290663534215    -0.048482899148    12.000000000000
         H            1.721379890557     1.347419465785    -0.360568899148     1.007825032230
         H            1.600274890557     0.582442465785     1.233570100852     1.007825032230
         H            3.143461890557    -1.234612534215     0.499766100852     1.007825032230
         H            3.258461890557    -0.494118534215    -1.110779899148     1.007825032230
         H            3.919446890557     0.349388465785     0.303613100852     1.007825032230
         H           -1.464623109443    -0.964618534215     1.702278100852     1.007825032230

  Basis Set: AUG-CC-PVTZ
    Blend: AUG-CC-PVTZ
  Basis Set: (AUG-CC-PVTZ AUX)
    Blend: AUG-CC-PVTZ-JKFIT
	 Reference Energy          =    -719.7543195773794196 [Eh]
	 Singles Energy            =      -0.0000000000000000 [Eh]
	 Same-Spin Energy          =      -0.4147160571761527 [Eh]
	 Opposite-Spin Energy      =      -1.2369520764892035 [Eh]
	 Correlation Energy        =      -1.6516681336653563 [Eh]
	 Total Energy              =    -721.4059877110447587 [Eh]

	 ================> DF-SCS-MP2 Energies <==================
	-----------------------------------------------------------
	 SCS Same-Spin Scale       =       0.3333333333333333 [-]
	 SCS Opposite-Spin Scale   =       1.2000000000000000 [-]
	 SCS Same-Spin Energy      =      -0.1382386857253842 [Eh]
	 SCS Opposite-Spin Energy  =      -1.4843424917870440 [Eh]
	 SCS Correlation Energy    =      -1.6225811775124281 [Eh]
	 SCS Total Energy          =    -721.3769007548918353 [Eh]
	-----------------------------------------------------------

  Dipole Moment: [D]
     X:     5.2046      Y:    -0.7949      Z:     2.8520     Total:     5.9878

*** Psi4 exiting successfully. Buy a developer a beer!
