                               Psi4 1.3.2 release

  ==> Input File <==

--------------------------------------------------------------------------
#psi4
#
memory 32 gb

molecule  {
-1 1
  P       -0.9206940     0.0325050    -0.1379180
  O        0.6423420    -0.4679274    -0.3539169
  O       -1.0869660    -0.1237460     1.5140700
  O       -1.7761100    -1.0113720    -0.8028300
  O       -1.0141860     1.5044880    -0.4470930
  C        1.6724330     0.4007460     0.1532460
  C        3.0061220    -0.2801360    -0.0629140
  H        1.6157054     1.3546914    -0.3801241
  H        1.5019730     0.5929700     1.2191390
  H        3.0451600    -1.2240850     0.4853350
  H        3.1601600    -0.4835910    -1.1252110
  H        3.8211450     0.3599160     0.2891820
  H       -1.5629250    -0.9540910     1.6878470
units angstrom
no_reorient  #important for SAPT in psi4, default
symmetry c1  #important for SAPT in psi4, default
}

set PROPERTIES_ORIGIN ["COM"]
properties('MP2/aug-cc-pvtz', properties = ['dipole'])
--------------------------------------------------------------------------

    Molecular point group: c1
  Charge       = -1
  Multiplicity = 1
  Basis Set: AUG-CC-PVTZ
    Blend: AUG-CC-PVTZ
  Basis Set: (AUG-CC-PVTZ AUX)
    Blend: AUG-CC-PVTZ-JKFIT

    Orbital Energies [Eh]
    ---------------------

    Doubly Occupied:

       1A    -79.879559     2A    -20.405408     3A    -20.400335
       4A    -20.304886     5A    -20.303351     6A    -11.140815
       7A    -11.101436     8A     -7.395133     9A     -5.293930
      10A     -5.293182    11A     -5.291757    12A     -1.228616
      13A     -1.179279    14A     -1.096520    15A     -1.060686
      16A     -0.889125    17A     -0.710114    18A     -0.605240
      19A     -0.534418    20A     -0.513580    21A     -0.465544
      22A     -0.444407    23A     -0.427027    24A     -0.421461
      25A     -0.395219    26A     -0.370586    27A     -0.355025
      28A     -0.327027    29A     -0.304857    30A     -0.284699
      31A     -0.265654    32A     -0.251725    33A     -0.237391

  @DF-RHF Final Energy:  -719.75678852141084

   => Energetics <=

    Nuclear Repulsion Energy =            424.4006454074960857
    One-Electron Energy =               -1849.9588868806222308
    Two-Electron Energy =                 705.8014529517153051
    Total Energy =                       -719.7567885214108401
  Basis Set: (AUG-CC-PVTZ AUX)
    Blend: AUG-CC-PVTZ-RI
    Molecular point group: c1

    Geometry (in Angstrom), charge = -1, multiplicity = 1:

       Center              X                  Y                   Z               Mass
    ------------   -----------------  -----------------  -----------------  -----------------
         P           -0.821133301447     0.028339062029    -0.118473891985    30.973761998420
         O            0.741902698553    -0.472093337971    -0.334472791985    15.994914619570
         O           -0.987405301447    -0.127911937971     1.533514108015    15.994914619570
         O           -1.676549301447    -1.015537937971    -0.783385891985    15.994914619570
         O           -0.914625301447     1.500322062029    -0.427648891985    15.994914619570
         C            1.771993698553     0.396580062029     0.172690108015    12.000000000000
         C            3.105682698553    -0.284301937971    -0.043469891985    12.000000000000
         H            1.715266098553     1.350525462029    -0.360679991985     1.007825032230
         H            1.601533698553     0.588804062029     1.238583108015     1.007825032230
         H            3.144720698553    -1.228250937971     0.504779108015     1.007825032230
         H            3.259720698553    -0.487756937971    -1.105766891985     1.007825032230
         H            3.920705698553     0.355750062029     0.308626108015     1.007825032230
         H           -1.463364301447    -0.958256937971     1.707291108015     1.007825032230

  Basis Set: AUG-CC-PVTZ
    Blend: AUG-CC-PVTZ
  Basis Set: (AUG-CC-PVTZ AUX)
    Blend: AUG-CC-PVTZ-JKFIT
	 Reference Energy          =    -719.7567885214108401 [Eh]
	 Singles Energy            =      -0.0000000000000000 [Eh]
	 Same-Spin Energy          =      -0.4146502430231698 [Eh]
	 Opposite-Spin Energy      =      -1.2366306628485186 [Eh]
	 Correlation Energy        =      -1.6512809058716884 [Eh]
	 Total Energy              =    -721.4080694272824985 [Eh]

	 ================> DF-SCS-MP2 Energies <==================
	-----------------------------------------------------------
	 SCS Same-Spin Scale       =       0.3333333333333333 [-]
	 SCS Opposite-Spin Scale   =       1.2000000000000000 [-]
	 SCS Same-Spin Energy      =      -0.1382167476743899 [Eh]
	 SCS Opposite-Spin Energy  =      -1.4839567954182222 [Eh]
	 SCS Correlation Energy    =      -1.6221735430926121 [Eh]
	 SCS Total Energy          =    -721.3789620645034120 [Eh]
	-----------------------------------------------------------

  Dipole Moment: [D]
     X:     5.1566      Y:    -1.1248      Z:     2.7134     Total:     5.9345

*** Psi4 exiting successfully. Buy a developer a beer!
