                               Psi4 1.3.2 release

  ==> Input File <==

--------------------------------------------------------------------------
#psi4
#
memory 32 gb

molecule  {
-1 1
  P       -0.9206940     0.0325050    -0.1379180
  O        0.6369320    -0.4627724    -0.4312539
  O       -1.1689260    -0.0946862     1.5062622
  O       -1.7761100    -1.0113720    -0.8028300
  O       -1.0141860     1.5044880    -0.4470930
  C        1.6724330     0.4007460     0.1532460
  C        3.0061220    -0.2801360    -0.0629140
  H        1.6230780     1.3579470    -0.3750000
  H        1.5019730     0.5929700     1.2191390
  H        3.0451600    -1.2240850     0.4853350
  H        3.1601600    -0.4835910    -1.1252110
  H        3.8211450     0.3599160     0.2891820
  H       -1.5629250    -0.9540910     1.6878470
units angstrom
no_reorient  #important for SAPT in psi4, default
symmetry c1  #important for SAPT in psi4, default
}

set PROPERTIES_ORIGIN ["COM"]
properties('MP2/aug-cc-pvtz', properties = ['dipole'])
--------------------------------------------------------------------------

    Molecular point group: c1
  Charge       = -1
  Multiplicity = 1
  Basis Set: AUG-CC-PVTZ
    Blend: AUG-CC-PVTZ
  Basis Set: (AUG-CC-PVTZ AUX)
    Blend: AUG-CC-PVTZ-JKFIT

    Orbital Energies [Eh]
    ---------------------

    Doubly Occupied:

       1A    -79.878770     2A    -20.407890     3A    -20.405755
       4A    -20.300102     5A    -20.299857     6A    -11.145446
       7A    -11.103929     8A     -7.394292     9A     -5.292917
      10A     -5.292509    11A     -5.290840    12A     -1.225271
      13A     -1.180721    14A     -1.092487    15A     -1.057558
      16A     -0.892085    17A     -0.711125    18A     -0.604695
      19A     -0.536444    20A     -0.514591    21A     -0.464321
      22A     -0.445043    23A     -0.425995    24A     -0.420772
      25A     -0.393361    26A     -0.375389    27A     -0.351619
      28A     -0.331144    29A     -0.310351    30A     -0.280876
      31A     -0.261873    32A     -0.248839    33A     -0.233930

  @DF-RHF Final Energy:  -719.75219921196253

   => Energetics <=

    Nuclear Repulsion Energy =            423.2457210581762297
    One-Electron Energy =               -1847.6542444151778000
    Two-Electron Energy =                 704.6563241450389796
    Total Energy =                       -719.7521992119625338
  Basis Set: (AUG-CC-PVTZ AUX)
    Blend: AUG-CC-PVTZ-RI
    Molecular point group: c1

    Geometry (in Angstrom), charge = -1, multiplicity = 1:

       Center              X                  Y                   Z               Mass
    ------------   -----------------  -----------------  -----------------  -----------------
         P           -0.810012971227     0.023934724050    -0.107620167290    30.973761998420
         O            0.747613028773    -0.471342675950    -0.400956067290    15.994914619570
         O           -1.058244971227    -0.103256475950     1.536560032710    15.994914619570
         O           -1.665428971227    -1.019942275950    -0.772532167290    15.994914619570
         O           -0.903504971227     1.495917724050    -0.416795167290    15.994914619570
         C            1.783114028773     0.392175724050     0.183543832710    12.000000000000
         C            3.116803028773    -0.288706275950    -0.032616167290    12.000000000000
         H            1.733759028773     1.349376724050    -0.344702167290     1.007825032230
         H            1.612654028773     0.584399724050     1.249436832710     1.007825032230
         H            3.155841028773    -1.232655275950     0.515632832710     1.007825032230
         H            3.270841028773    -0.492161275950    -1.094913167290     1.007825032230
         H            3.931826028773     0.351345724050     0.319479832710     1.007825032230
         H           -1.452243971227    -0.962661275950     1.718144832710     1.007825032230

  Basis Set: AUG-CC-PVTZ
    Blend: AUG-CC-PVTZ
  Basis Set: (AUG-CC-PVTZ AUX)
    Blend: AUG-CC-PVTZ-JKFIT
	 Reference Energy          =    -719.7521992119625338 [Eh]
	 Singles Energy            =      -0.0000000000000000 [Eh]
	 Same-Spin Energy          =      -0.4147910178634657 [Eh]
	 Opposite-Spin Energy      =      -1.2374593578536173 [Eh]
	 Correlation Energy        =      -1.6522503757170830 [Eh]
	 Total Energy              =    -721.4044495876796645 [Eh]

	 ================> DF-SCS-MP2 Energies <==================
	-----------------------------------------------------------
	 SCS Same-Spin Scale       =       0.3333333333333333 [-]
	 SCS Opposite-Spin Scale   =       1.2000000000000000 [-]
	 SCS Same-Spin Energy      =      -0.1382636726211552 [Eh]
	 SCS Opposite-Spin Energy  =      -1.4849512294243408 [Eh]
	 SCS Correlation Energy    =      -1.6232149020454960 [Eh]
	 SCS Total Energy          =    -721.3754141140079810 [Eh]
	-----------------------------------------------------------

  Dipole Moment: [D]
     X:     5.4267      Y:    -1.1644      Z:     2.8792     Total:     6.2526

*** Psi4 exiting successfully. Buy a developer a beer!
