                               Psi4 1.4a3.dev225

  ==> Input File <==

--------------------------------------------------------------------------
#psi4
#
memory 32 gb

molecule  {
-1 1
  P       -0.9277810     0.0961130     0.0976350
  O        0.6463760     0.5937280    -0.0402780
  O       -1.0769050    -0.8632740    -1.2547320
  O       -1.7527520     1.3345500    -0.1191100
  O       -1.0827680    -0.7945940     1.3071650
  C        1.6614230    -0.4105840     0.1296040
  C        3.0075080     0.2459920    -0.0890990
  H        1.5881620    -0.8381400     1.1347230
  H        1.5022440    -1.2178370    -0.5954040
  H        3.0701330     0.6620790    -1.0974680
  H        3.1582490     1.0535750     0.6314230
  H        3.8108830    -0.4860100     0.0361070
  H       -1.0970454    -1.7434297    -0.9763686
units angstrom
no_reorient  #important for SAPT in psi4, default
symmetry c1  #important for SAPT in psi4, default
}

set PROPERTIES_ORIGIN ["COM"]
properties('MP2/aug-cc-pvtz', properties = ['dipole'])
--------------------------------------------------------------------------

    Molecular point group: c1
  Charge       = -1
  Multiplicity = 1
  Basis Set: AUG-CC-PVTZ
    Blend: AUG-CC-PVTZ
  Basis Set: (AUG-CC-PVTZ AUX)
    Blend: AUG-CC-PVTZ-JKFIT

    Orbital Energies [Eh]
    ---------------------

    Doubly Occupied:

       1A    -79.880725     2A    -20.402970     3A    -20.402933
       4A    -20.311553     5A    -20.297307     6A    -11.146365
       7A    -11.104129     8A     -7.396229     9A     -5.295073
      10A     -5.294241    11A     -5.292835    12A     -1.235646
      13A     -1.189097    14A     -1.098973    15A     -1.059529
      16A     -0.892356    17A     -0.714458    18A     -0.612899
      19A     -0.543010    20A     -0.518647    21A     -0.473469
      22A     -0.449509    23A     -0.428138    24A     -0.420128
      25A     -0.394697    26A     -0.379056    27A     -0.344932
      28A     -0.337111    29A     -0.309461    30A     -0.285191
      31A     -0.267576    32A     -0.250578    33A     -0.236215

  @DF-RHF Final Energy:  -719.75590557896862

   => Energetics <=

    Nuclear Repulsion Energy =            424.7679749490160361
    One-Electron Energy =               -1850.5176900020719586
    Two-Electron Energy =                 705.9938094740873566
    Total Energy =                       -719.7559055789686226
  Basis Set: (AUG-CC-PVTZ AUX)
    Blend: AUG-CC-PVTZ-RI
    Molecular point group: c1

    Geometry (in Angstrom), charge = -1, multiplicity = 1:

       Center              X                  Y                   Z               Mass
    ------------   -----------------  -----------------  -----------------  -----------------
         P           -0.825196588233     0.074215537948     0.090229619130    30.973761998420
         O            0.748960411767     0.571830537948    -0.047683380870    15.994914619570
         O           -0.974320588233    -0.885171462052    -1.262137380870    15.994914619570
         O           -1.650167588233     1.312652537948    -0.126515380870    15.994914619570
         O           -0.980183588233    -0.816491462052     1.299759619130    15.994914619570
         C            1.764007411767    -0.432481462052     0.122198619130    12.000000000000
         C            3.110092411767     0.224094537948    -0.096504380870    12.000000000000
         H            1.690746411767    -0.860037462052     1.127317619130     1.007825032230
         H            1.604828411767    -1.239734462052    -0.602809380870     1.007825032230
         H            3.172717411767     0.640181537948    -1.104873380870     1.007825032230
         H            3.260833411767     1.031677537948     0.624017619130     1.007825032230
         H            3.913467411767    -0.507907462052     0.028701619130     1.007825032230
         H           -0.994460988233    -1.765327162052    -0.983773980870     1.007825032230

  Basis Set: AUG-CC-PVTZ
    Blend: AUG-CC-PVTZ
  Basis Set: (AUG-CC-PVTZ AUX)
    Blend: AUG-CC-PVTZ-JKFIT
	 Reference Energy          =    -719.7559055789686226 [Eh]
	 Singles Energy            =      -0.0000000000000000 [Eh]
	 Same-Spin Energy          =      -0.4142948795961500 [Eh]
	 Opposite-Spin Energy      =      -1.2356874033997536 [Eh]
	 Correlation Energy        =      -1.6499822829959037 [Eh]
	 Total Energy              =    -721.4058878619645157 [Eh]

	 ================> DF-SCS-MP2 Energies <==================
	-----------------------------------------------------------
	 SCS Same-Spin Scale       =       0.3333333333333333 [-]
	 SCS Opposite-Spin Scale   =       1.2000000000000000 [-]
	 SCS Same-Spin Energy      =      -0.1380982931987166 [Eh]
	 SCS Opposite-Spin Energy  =      -1.4828248840797043 [Eh]
	 SCS Correlation Energy    =      -1.6209231772784209 [Eh]
	 SCS Total Energy          =    -721.3768287562470505 [Eh]
	-----------------------------------------------------------

  Dipole Moment: [D]
     X:     5.8730      Y:    -2.9560      Z:    -1.3702     Total:     6.7162

*** Psi4 exiting successfully. Buy a developer a beer!
