                               Psi4 1.4a3.dev225

  ==> Input File <==

--------------------------------------------------------------------------
#psi4
#
memory 32 gb

molecule  {
-1 1
  P       -0.9277810     0.0961130     0.0976350
  O        0.6463760     0.5937280    -0.0402780
  O       -1.0769050    -0.8632740    -1.2547320
  O       -1.7527520     1.3345500    -0.1191100
  O       -1.0807153    -0.7827972     1.2911456
  C        1.6614230    -0.4105840     0.1296040
  C        3.0075080     0.2459920    -0.0890990
  H        1.5881620    -0.8381400     1.1347230
  H        1.5022440    -1.2178370    -0.5954040
  H        3.0701330     0.6620790    -1.0974680
  H        3.1582490     1.0535750     0.6314230
  H        3.8108830    -0.4860100     0.0361070
  H       -1.0981360    -1.7910910    -0.9612950
units angstrom
no_reorient  #important for SAPT in psi4, default
symmetry c1  #important for SAPT in psi4, default
}

set PROPERTIES_ORIGIN ["COM"]
properties('MP2/aug-cc-pvtz', properties = ['dipole'])
--------------------------------------------------------------------------

    Molecular point group: c1
  Charge       = -1
  Multiplicity = 1
  Basis Set: AUG-CC-PVTZ
    Blend: AUG-CC-PVTZ
  Basis Set: (AUG-CC-PVTZ AUX)
    Blend: AUG-CC-PVTZ-JKFIT

    Orbital Energies [Eh]
    ---------------------

    Doubly Occupied:

       1A    -79.876332     2A    -20.405904     3A    -20.401159
       4A    -20.310124     5A    -20.295319     6A    -11.145661
       7A    -11.103602     8A     -7.392623     9A     -5.291370
      10A     -5.290623    11A     -5.289312    12A     -1.230492
      13A     -1.180283    14A     -1.102091    15A     -1.060352
      16A     -0.891647    17A     -0.713604    18A     -0.604502
      19A     -0.536548    20A     -0.517153    21A     -0.470216
      22A     -0.448449    23A     -0.427630    24A     -0.419066
      25A     -0.394921    26A     -0.378106    27A     -0.344076
      28A     -0.336368    29A     -0.308896    30A     -0.286613
      31A     -0.268809    32A     -0.249555    33A     -0.235858

  @DF-RHF Final Energy:  -719.75641205916838

   => Energetics <=

    Nuclear Repulsion Energy =            425.2997026947691666
    One-Electron Energy =               -1851.6977037590183954
    Two-Electron Energy =                 706.6415890050808457
    Total Energy =                       -719.7564120591683832
  Basis Set: (AUG-CC-PVTZ AUX)
    Blend: AUG-CC-PVTZ-RI
    Molecular point group: c1

    Geometry (in Angstrom), charge = -1, multiplicity = 1:

       Center              X                  Y                   Z               Mass
    ------------   -----------------  -----------------  -----------------  -----------------
         P           -0.825450456498     0.073090304824     0.092157912483    30.973761998420
         O            0.748706543502     0.570705304824    -0.045755087517    15.994914619570
         O           -0.974574456498    -0.886296695176    -1.260209087517    15.994914619570
         O           -1.650421456498     1.311527304824    -0.124587087517    15.994914619570
         O           -0.978384756498    -0.805819895176     1.285668512483    15.994914619570
         C            1.763753543502    -0.433606695176     0.124126912483    12.000000000000
         C            3.109838543502     0.222969304824    -0.094576087517    12.000000000000
         H            1.690492543502    -0.861162695176     1.129245912483     1.007825032230
         H            1.604574543502    -1.240859695176    -0.600881087517     1.007825032230
         H            3.172463543502     0.639056304824    -1.102945087517     1.007825032230
         H            3.260579543502     1.030552304824     0.625945912483     1.007825032230
         H            3.913213543502    -0.509032695176     0.030629912483     1.007825032230
         H           -0.995805456498    -1.814113695176    -0.966772087517     1.007825032230

  Basis Set: AUG-CC-PVTZ
    Blend: AUG-CC-PVTZ
  Basis Set: (AUG-CC-PVTZ AUX)
    Blend: AUG-CC-PVTZ-JKFIT
	 Reference Energy          =    -719.7564120591683832 [Eh]
	 Singles Energy            =      -0.0000000000000000 [Eh]
	 Same-Spin Energy          =      -0.4144610978353458 [Eh]
	 Opposite-Spin Energy      =      -1.2360536723155331 [Eh]
	 Correlation Energy        =      -1.6505147701508789 [Eh]
	 Total Energy              =    -721.4069268293192181 [Eh]

	 ================> DF-SCS-MP2 Energies <==================
	-----------------------------------------------------------
	 SCS Same-Spin Scale       =       0.3333333333333333 [-]
	 SCS Opposite-Spin Scale   =       1.2000000000000000 [-]
	 SCS Same-Spin Energy      =      -0.1381536992784486 [Eh]
	 SCS Opposite-Spin Energy  =      -1.4832644067786396 [Eh]
	 SCS Correlation Energy    =      -1.6214181060570882 [Eh]
	 SCS Total Energy          =    -721.3778301652254186 [Eh]
	-----------------------------------------------------------

  Dipole Moment: [D]
     X:     5.8411      Y:    -3.0642      Z:    -1.2729     Total:     6.7177

*** Psi4 exiting successfully. Buy a developer a beer!
