                               Psi4 1.3.2 release

  ==> Input File <==

--------------------------------------------------------------------------
#psi4
#
memory 32 gb

molecule  {
-1 1
  P       -0.9277133     0.0198894    -0.1397536
  O        0.6460740    -0.4769070    -0.3459610
  O       -1.0869660    -0.1237460     1.5140700
  O       -1.7761100    -1.0113720    -0.8028300
  O       -1.0141860     1.5044880    -0.4470930
  C        1.6724330     0.4007460     0.1532460
  C        3.0061220    -0.2801360    -0.0629140
  H        1.6230780     1.3579470    -0.3750000
  H        1.5019730     0.5929700     1.2191390
  H        3.0451600    -1.2240850     0.4853350
  H        3.1601600    -0.4835910    -1.1252110
  H        3.8211450     0.3599160     0.2891820
  H       -1.5633517    -0.9555508     1.6794957
units angstrom
no_reorient  #important for SAPT in psi4, default
symmetry c1  #important for SAPT in psi4, default
}

set PROPERTIES_ORIGIN ["COM"]
properties('MP2/aug-cc-pvtz', properties = ['dipole'])
--------------------------------------------------------------------------

    Molecular point group: c1
  Charge       = -1
  Multiplicity = 1
  Basis Set: AUG-CC-PVTZ
    Blend: AUG-CC-PVTZ
  Basis Set: (AUG-CC-PVTZ AUX)
    Blend: AUG-CC-PVTZ-JKFIT

    Orbital Energies [Eh]
    ---------------------

    Doubly Occupied:

       1A    -79.880159     2A    -20.406137     3A    -20.399503
       4A    -20.308373     5A    -20.302038     6A    -11.139764
       7A    -11.100432     8A     -7.395755     9A     -5.294539
      10A     -5.293800    11A     -5.292373    12A     -1.227637
      13A     -1.178753    14A     -1.099659    15A     -1.060229
      16A     -0.887974    17A     -0.708760    18A     -0.604004
      19A     -0.533119    20A     -0.512044    21A     -0.467348
      22A     -0.442741    23A     -0.426918    24A     -0.420836
      25A     -0.394832    26A     -0.370141    27A     -0.356989
      28A     -0.326270    29A     -0.303440    30A     -0.285779
      31A     -0.268949    32A     -0.250606    33A     -0.238229

  @DF-RHF Final Energy:  -719.75625368231169

   => Energetics <=

    Nuclear Repulsion Energy =            424.1591640095041953
    One-Electron Energy =               -1849.4745807426622832
    Two-Electron Energy =                 705.5591630508464505
    Total Energy =                       -719.7562536823116943
  Basis Set: (AUG-CC-PVTZ AUX)
    Blend: AUG-CC-PVTZ-RI
    Molecular point group: c1

    Geometry (in Angstrom), charge = -1, multiplicity = 1:

       Center              X                  Y                   Z               Mass
    ------------   -----------------  -----------------  -----------------  -----------------
         P           -0.826946838188     0.019984014795    -0.120846658798    30.973761998420
         O            0.746840461812    -0.476812385205    -0.327054058798    15.994914619570
         O           -0.986199538188    -0.123651385205     1.532976941202    15.994914619570
         O           -1.675343538188    -1.011277385205    -0.783923058798    15.994914619570
         O           -0.913419538188     1.504582614795    -0.428186058798    15.994914619570
         C            1.773199461812     0.400840614795     0.172152941202    12.000000000000
         C            3.106888461812    -0.280041385205    -0.044007058798    12.000000000000
         H            1.723844461812     1.358041614795    -0.356093058798     1.007825032230
         H            1.602739461812     0.593064614795     1.238045941202     1.007825032230
         H            3.145926461812    -1.223990385205     0.504241941202     1.007825032230
         H            3.260926461812    -0.483496385205    -1.106304058798     1.007825032230
         H            3.921911461812     0.360010614795     0.308088941202     1.007825032230
         H           -1.462585238188    -0.955456185205     1.698402641202     1.007825032230

  Basis Set: AUG-CC-PVTZ
    Blend: AUG-CC-PVTZ
  Basis Set: (AUG-CC-PVTZ AUX)
    Blend: AUG-CC-PVTZ-JKFIT
	 Reference Energy          =    -719.7562536823116943 [Eh]
	 Singles Energy            =      -0.0000000000000000 [Eh]
	 Same-Spin Energy          =      -0.4147230440961383 [Eh]
	 Opposite-Spin Energy      =      -1.2368441633477181 [Eh]
	 Correlation Energy        =      -1.6515672074438563 [Eh]
	 Total Energy              =    -721.4078208897554987 [Eh]

	 ================> DF-SCS-MP2 Energies <==================
	-----------------------------------------------------------
	 SCS Same-Spin Scale       =       0.3333333333333333 [-]
	 SCS Opposite-Spin Scale   =       1.2000000000000000 [-]
	 SCS Same-Spin Energy      =      -0.1382410146987127 [Eh]
	 SCS Opposite-Spin Energy  =      -1.4842129960172616 [Eh]
	 SCS Correlation Energy    =      -1.6224540107159744 [Eh]
	 SCS Total Energy          =    -721.3787076930276498 [Eh]
	-----------------------------------------------------------

  Dipole Moment: [D]
     X:     5.0274      Y:    -1.2540      Z:     2.6700     Total:     5.8289

*** Psi4 exiting successfully. Buy a developer a beer!
