                               Psi4 1.3.2 release

  ==> Input File <==

--------------------------------------------------------------------------
#psi4
#
memory 32 gb

molecule  {
-1 1
  P       -0.9206940     0.0325050    -0.1379180
  O        0.5949195    -0.4254174    -0.3256214
  O       -1.0869660    -0.1237460     1.5140700
  O       -1.7761100    -1.0113720    -0.8028300
  O       -1.0141860     1.5044880    -0.4470930
  C        1.6724330     0.4007460     0.1532460
  C        3.0412395    -0.2171347    -0.0301769
  H        1.6230780     1.3579470    -0.3750000
  H        1.5019730     0.5929700     1.2191390
  H        3.0451600    -1.2240850     0.4853350
  H        3.1601600    -0.4835910    -1.1252110
  H        3.8211450     0.3599160     0.2891820
  H       -1.5629250    -0.9540910     1.6878470
units angstrom
no_reorient  #important for SAPT in psi4, default
symmetry c1  #important for SAPT in psi4, default
}

set PROPERTIES_ORIGIN ["COM"]
properties('MP2/aug-cc-pvtz', properties = ['dipole'])
--------------------------------------------------------------------------

    Molecular point group: c1
  Charge       = -1
  Multiplicity = 1
  Basis Set: AUG-CC-PVTZ
    Blend: AUG-CC-PVTZ
  Basis Set: (AUG-CC-PVTZ AUX)
    Blend: AUG-CC-PVTZ-JKFIT

    Orbital Energies [Eh]
    ---------------------

    Doubly Occupied:

       1A    -79.872847     2A    -20.402016     3A    -20.400080
       4A    -20.301991     5A    -20.296495     6A    -11.146501
       7A    -11.107240     8A     -7.389382     9A     -5.288380
      10A     -5.287439    11A     -5.285951    12A     -1.239458
      13A     -1.179097    14A     -1.092386    15A     -1.056590
      16A     -0.898073    17A     -0.719683    18A     -0.606180
      19A     -0.539662    20A     -0.511990    21A     -0.473198
      22A     -0.448124    23A     -0.445338    24A     -0.423613
      25A     -0.386356    26A     -0.364228    27A     -0.355935
      28A     -0.323096    29A     -0.306962    30A     -0.283010
      31A     -0.263289    32A     -0.246808    33A     -0.232793

  @DF-RHF Final Energy:  -719.74938887804137

   => Energetics <=

    Nuclear Repulsion Energy =            426.1066592652599638
    One-Electron Energy =               -1853.3637122314589760
    Two-Electron Energy =                 707.5076640881575258
    Total Energy =                       -719.7493888780413727
  Basis Set: (AUG-CC-PVTZ AUX)
    Blend: AUG-CC-PVTZ-RI
    Molecular point group: c1

    Geometry (in Angstrom), charge = -1, multiplicity = 1:

       Center              X                  Y                   Z               Mass
    ------------   -----------------  -----------------  -----------------  -----------------
         P           -0.818495880886     0.016825172206    -0.125278619829    30.973761998420
         O            0.697117619114    -0.441097227794    -0.312982019829    15.994914619570
         O           -0.984767880886    -0.139425827794     1.526709380171    15.994914619570
         O           -1.673911880886    -1.027051827794    -0.790190619829    15.994914619570
         O           -0.911987880886     1.488808172206    -0.434453619829    15.994914619570
         C            1.774631119114     0.385066172206     0.165885380171    12.000000000000
         C            3.143437619114    -0.232814527794    -0.017537519829    12.000000000000
         H            1.725276119114     1.342267172206    -0.362360619829     1.007825032230
         H            1.604171119114     0.577290172206     1.231778380171     1.007825032230
         H            3.147358119114    -1.239764827794     0.497974380171     1.007825032230
         H            3.262358119114    -0.499270827794    -1.112571619829     1.007825032230
         H            3.923343119114     0.344236172206     0.301821380171     1.007825032230
         H           -1.460726880886    -0.969770827794     1.700486380171     1.007825032230

  Basis Set: AUG-CC-PVTZ
    Blend: AUG-CC-PVTZ
  Basis Set: (AUG-CC-PVTZ AUX)
    Blend: AUG-CC-PVTZ-JKFIT
	 Reference Energy          =    -719.7493888780413727 [Eh]
	 Singles Energy            =      -0.0000000000000000 [Eh]
	 Same-Spin Energy          =      -0.4139573389005662 [Eh]
	 Opposite-Spin Energy      =      -1.2346661353965960 [Eh]
	 Correlation Energy        =      -1.6486234742971622 [Eh]
	 Total Energy              =    -721.3980123523385828 [Eh]

	 ================> DF-SCS-MP2 Energies <==================
	-----------------------------------------------------------
	 SCS Same-Spin Scale       =       0.3333333333333333 [-]
	 SCS Opposite-Spin Scale   =       1.2000000000000000 [-]
	 SCS Same-Spin Energy      =      -0.1379857796335220 [Eh]
	 SCS Opposite-Spin Energy  =      -1.4815993624759152 [Eh]
	 SCS Correlation Energy    =      -1.6195851421094372 [Eh]
	 SCS Total Energy          =    -721.3689740201508585 [Eh]
	-----------------------------------------------------------

  Dipole Moment: [D]
     X:     5.5666      Y:    -1.1730      Z:     2.6920     Total:     6.2936

*** Psi4 exiting successfully. Buy a developer a beer!
