                               Psi4 1.3.2 release

  ==> Input File <==

--------------------------------------------------------------------------
#psi4
#
memory 32 gb

molecule  {
-1 1
  P       -0.9206940     0.0325050    -0.1379180
  O        0.6617808    -0.5121504    -0.3137631
  O       -1.0869660    -0.1237460     1.5140700
  O       -1.7761100    -1.0113720    -0.8028300
  O       -1.0141860     1.5044880    -0.4470930
  C        1.6724330     0.4007460     0.1532460
  C        3.0061220    -0.2801360    -0.0629140
  H        1.6526002     1.3702381    -0.3541051
  H        1.5019730     0.5929700     1.2191390
  H        3.0451600    -1.2240850     0.4853350
  H        3.1601600    -0.4835910    -1.1252110
  H        3.8211450     0.3599160     0.2891820
  H       -1.5629250    -0.9540910     1.6878470
units angstrom
no_reorient  #important for SAPT in psi4, default
symmetry c1  #important for SAPT in psi4, default
}

set PROPERTIES_ORIGIN ["COM"]
properties('MP2/aug-cc-pvtz', properties = ['dipole'])
--------------------------------------------------------------------------

    Molecular point group: c1
  Charge       = -1
  Multiplicity = 1
  Basis Set: AUG-CC-PVTZ
    Blend: AUG-CC-PVTZ
  Basis Set: (AUG-CC-PVTZ AUX)
    Blend: AUG-CC-PVTZ-JKFIT

    Orbital Energies [Eh]
    ---------------------

    Doubly Occupied:

       1A    -79.882905     2A    -20.405075     3A    -20.401564
       4A    -20.308401     5A    -20.306879     6A    -11.139217
       7A    -11.098966     8A     -7.398158     9A     -5.296940
      10A     -5.296132    11A     -5.294799    12A     -1.225473
      13A     -1.177075    14A     -1.099421    15A     -1.063496
      16A     -0.886571    17A     -0.706932    18A     -0.605162
      19A     -0.533589    20A     -0.510030    21A     -0.465462
      22A     -0.442021    23A     -0.426118    24A     -0.418167
      25A     -0.395055    26A     -0.370895    27A     -0.354156
      28A     -0.329339    29A     -0.302667    30A     -0.286778
      31A     -0.267324    32A     -0.255001    33A     -0.240466

  @DF-RHF Final Energy:  -719.75412886880076

   => Energetics <=

    Nuclear Repulsion Energy =            423.5230886742562006
    One-Electron Energy =               -1848.1739704040251127
    Two-Electron Energy =                 704.8967528609682631
    Total Energy =                       -719.7541288688007626
  Basis Set: (AUG-CC-PVTZ AUX)
    Blend: AUG-CC-PVTZ-RI
    Molecular point group: c1

    Geometry (in Angstrom), charge = -1, multiplicity = 1:

       Center              X                  Y                   Z               Mass
    ------------   -----------------  -----------------  -----------------  -----------------
         P           -0.823918136784     0.033872443667    -0.123821709744    30.973761998420
         O            0.758556663216    -0.510782956333    -0.299666809744    15.994914619570
         O           -0.990190136784    -0.122378556333     1.528166290256    15.994914619570
         O           -1.679334136784    -1.010004556333    -0.788733709744    15.994914619570
         O           -0.917410136784     1.505855443667    -0.432996709744    15.994914619570
         C            1.769208863216     0.402113443667     0.167342290256    12.000000000000
         C            3.102897863216    -0.278768556333    -0.048817709744    12.000000000000
         H            1.749376063216     1.371605543667    -0.340008809744     1.007825032230
         H            1.598748863216     0.594337443667     1.233235290256     1.007825032230
         H            3.141935863216    -1.222717556333     0.499431290256     1.007825032230
         H            3.256935863216    -0.482223556333    -1.111114709744     1.007825032230
         H            3.917920863216     0.361283443667     0.303278290256     1.007825032230
         H           -1.466149136784    -0.952723556333     1.701943290256     1.007825032230

  Basis Set: AUG-CC-PVTZ
    Blend: AUG-CC-PVTZ
  Basis Set: (AUG-CC-PVTZ AUX)
    Blend: AUG-CC-PVTZ-JKFIT
	 Reference Energy          =    -719.7541288688007626 [Eh]
	 Singles Energy            =      -0.0000000000000000 [Eh]
	 Same-Spin Energy          =      -0.4150844759985287 [Eh]
	 Opposite-Spin Energy      =      -1.2377896762061624 [Eh]
	 Correlation Energy        =      -1.6528741522046912 [Eh]
	 Total Energy              =    -721.4070030210054938 [Eh]

	 ================> DF-SCS-MP2 Energies <==================
	-----------------------------------------------------------
	 SCS Same-Spin Scale       =       0.3333333333333333 [-]
	 SCS Opposite-Spin Scale   =       1.2000000000000000 [-]
	 SCS Same-Spin Energy      =      -0.1383614919995096 [Eh]
	 SCS Opposite-Spin Energy  =      -1.4853476114473949 [Eh]
	 SCS Correlation Energy    =      -1.6237091034469044 [Eh]
	 SCS Total Energy          =    -721.3778379722476757 [Eh]
	-----------------------------------------------------------

  Dipole Moment: [D]
     X:     4.9725      Y:    -1.0190      Z:     2.6493     Total:     5.7257

*** Psi4 exiting successfully. Buy a developer a beer!
