                               Psi4 1.4a3.dev225

  ==> Input File <==

--------------------------------------------------------------------------
#psi4
#
memory 32 gb

molecule  {
-1 1
  P       -0.9277810     0.0961130     0.0976350
  O        0.6463760     0.5937280    -0.0402780
  O       -1.0769050    -0.8632740    -1.2547320
  O       -1.7527520     1.3345500    -0.1191100
  O       -1.0827680    -0.7945940     1.3071650
  C        1.6614230    -0.4105840     0.1296040
  C        3.0075080     0.2459920    -0.0890990
  H        1.5881620    -0.8381400     1.1347230
  H        1.5022440    -1.2178370    -0.5954040
  H        3.0701330     0.6620790    -1.0974680
  H        3.1582490     1.0535750     0.6314230
  H        3.8108830    -0.4860100     0.0361070
  H       -1.0992266    -1.8387523    -0.9462214
units angstrom
no_reorient  #important for SAPT in psi4, default
symmetry c1  #important for SAPT in psi4, default
}

set PROPERTIES_ORIGIN ["COM"]
properties('MP2/aug-cc-pvtz', properties = ['dipole'])
--------------------------------------------------------------------------

    Molecular point group: c1
  Charge       = -1
  Multiplicity = 1
  Basis Set: AUG-CC-PVTZ
    Blend: AUG-CC-PVTZ
  Basis Set: (AUG-CC-PVTZ AUX)
    Blend: AUG-CC-PVTZ-JKFIT

    Orbital Energies [Eh]
    ---------------------

    Doubly Occupied:

       1A    -79.879661     2A    -20.411500     3A    -20.402319
       4A    -20.310267     5A    -20.297110     6A    -11.145882
       7A    -11.103797     8A     -7.395187     9A     -5.294017
      10A     -5.293204    11A     -5.291796    12A     -1.227539
      13A     -1.174153    14A     -1.095456    15A     -1.058907
      16A     -0.891921    17A     -0.713855    18A     -0.600389
      19A     -0.531774    20A     -0.516418    21A     -0.467856
      22A     -0.447950    23A     -0.427189    24A     -0.418876
      25A     -0.393568    26A     -0.377236    27A     -0.343101
      28A     -0.335577    29A     -0.308583    30A     -0.284420
      31A     -0.266353    32A     -0.249680    33A     -0.235345

  @DF-RHF Final Energy:  -719.74985302022151

   => Energetics <=

    Nuclear Repulsion Energy =            424.1174296871776619
    One-Electron Energy =               -1849.3527959499904227
    Two-Electron Energy =                 705.4855132425911961
    Total Energy =                       -719.7498530202215079
  Basis Set: (AUG-CC-PVTZ AUX)
    Blend: AUG-CC-PVTZ-RI
    Molecular point group: c1

    Geometry (in Angstrom), charge = -1, multiplicity = 1:

       Center              X                  Y                   Z               Mass
    ------------   -----------------  -----------------  -----------------  -----------------
         P           -0.825179002141     0.074984083688     0.089986555029    30.973761998420
         O            0.748977997859     0.572599083688    -0.047926444971    15.994914619570
         O           -0.974303002141    -0.884402916312    -1.262380444971    15.994914619570
         O           -1.650150002141     1.313421083688    -0.126758444971    15.994914619570
         O           -0.980166002141    -0.815722916312     1.299516555029    15.994914619570
         C            1.764024997859    -0.431712916312     0.121955555029    12.000000000000
         C            3.110109997859     0.224863083688    -0.096747444971    12.000000000000
         H            1.690763997859    -0.859268916312     1.127074555029     1.007825032230
         H            1.604845997859    -1.238965916312    -0.603052444971     1.007825032230
         H            3.172734997859     0.640950083688    -1.105116444971     1.007825032230
         H            3.260850997859     1.032446083688     0.623774555029     1.007825032230
         H            3.913484997859    -0.507138916312     0.028458555029     1.007825032230
         H           -0.996624602141    -1.859881216312    -0.953869844971     1.007825032230

  Basis Set: AUG-CC-PVTZ
    Blend: AUG-CC-PVTZ
  Basis Set: (AUG-CC-PVTZ AUX)
    Blend: AUG-CC-PVTZ-JKFIT
	 Reference Energy          =    -719.7498530202215079 [Eh]
	 Singles Energy            =      -0.0000000000000000 [Eh]
	 Same-Spin Energy          =      -0.4154387049894925 [Eh]
	 Opposite-Spin Energy      =      -1.2385543685057443 [Eh]
	 Correlation Energy        =      -1.6539930734952368 [Eh]
	 Total Energy              =    -721.4038460937167656 [Eh]

	 ================> DF-SCS-MP2 Energies <==================
	-----------------------------------------------------------
	 SCS Same-Spin Scale       =       0.3333333333333333 [-]
	 SCS Opposite-Spin Scale   =       1.2000000000000000 [-]
	 SCS Same-Spin Energy      =      -0.1384795683298308 [Eh]
	 SCS Opposite-Spin Energy  =      -1.4862652422068932 [Eh]
	 SCS Correlation Energy    =      -1.6247448105367239 [Eh]
	 SCS Total Energy          =    -721.3745978307582618 [Eh]
	-----------------------------------------------------------

  Dipole Moment: [D]
     X:     5.8534      Y:    -3.0382      Z:    -1.3643     Total:     6.7345

*** Psi4 exiting successfully. Buy a developer a beer!
