                               Psi4 1.3.2 release

  ==> Input File <==

--------------------------------------------------------------------------
#psi4
#
memory 32 gb

molecule  {
-1 1
  P       -0.9206940     0.0325050    -0.1379180
  O        0.6460740    -0.4769070    -0.3459610
  O       -1.1069066    -0.1424848     1.7121892
  O       -1.7761100    -1.0113720    -0.8028300
  O       -1.0141860     1.5044880    -0.4470930
  C        1.6724330     0.4007460     0.1532460
  C        3.0061220    -0.2801360    -0.0629140
  H        1.6230780     1.3579470    -0.3750000
  H        1.5019730     0.5929700     1.2191390
  H        3.0451600    -1.2240850     0.4853350
  H        3.1601600    -0.4835910    -1.1252110
  H        3.8211450     0.3599160     0.2891820
  H       -1.5629250    -0.9540910     1.6878470
units angstrom
no_reorient  #important for SAPT in psi4, default
symmetry c1  #important for SAPT in psi4, default
}

set PROPERTIES_ORIGIN ["COM"]
properties('MP2/aug-cc-pvtz', properties = ['dipole'])
--------------------------------------------------------------------------

    Molecular point group: c1
  Charge       = -1
  Multiplicity = 1
  Basis Set: AUG-CC-PVTZ
    Blend: AUG-CC-PVTZ
  Basis Set: (AUG-CC-PVTZ AUX)
    Blend: AUG-CC-PVTZ-JKFIT

    Orbital Energies [Eh]
    ---------------------

    Doubly Occupied:

       1A    -79.900264     2A    -20.413382     3A    -20.391430
       4A    -20.323745     5A    -20.319841     6A    -11.145716
       7A    -11.104535     8A     -7.414151     9A     -5.312733
      10A     -5.311922    11A     -5.310574    12A     -1.225066
      13A     -1.157381    14A     -1.110690    15A     -1.074661
      16A     -0.893317    17A     -0.714623    18A     -0.592694
      19A     -0.525227    20A     -0.499626    21A     -0.466068
      22A     -0.450593    23A     -0.428010    24A     -0.421628
      25A     -0.392835    26A     -0.371117    27A     -0.355026
      28A     -0.328603    29A     -0.306893    30A     -0.294292
      31A     -0.274379    32A     -0.265752    33A     -0.252996

  @DF-RHF Final Energy:  -719.73390285914445

   => Energetics <=

    Nuclear Repulsion Energy =            417.4407658143550179
    One-Electron Energy =               -1835.6497981708573661
    Two-Electron Energy =                 698.4751294973578979
    Total Energy =                       -719.7339028591444503
  Basis Set: (AUG-CC-PVTZ AUX)
    Blend: AUG-CC-PVTZ-RI
    Molecular point group: c1

    Geometry (in Angstrom), charge = -1, multiplicity = 1:

       Center              X                  Y                   Z               Mass
    ------------   -----------------  -----------------  -----------------  -----------------
         P           -0.819118708363     0.031859630519    -0.144884356276    30.973761998420
         O            0.747649291637    -0.477552369481    -0.352927356276    15.994914619570
         O           -1.005331308363    -0.143130169481     1.705222843724    15.994914619570
         O           -1.674534708363    -1.012017369481    -0.809796356276    15.994914619570
         O           -0.912610708363     1.503842630519    -0.454059356276    15.994914619570
         C            1.774008291637     0.400100630519     0.146279643724    12.000000000000
         C            3.107697291637    -0.280781369481    -0.069880356276    12.000000000000
         H            1.724653291637     1.357301630519    -0.381966356276     1.007825032230
         H            1.603548291637     0.592324630519     1.212172643724     1.007825032230
         H            3.146735291637    -1.224730369481     0.478368643724     1.007825032230
         H            3.261735291637    -0.484236369481    -1.132177356276     1.007825032230
         H            3.922720291637     0.359270630519     0.282215643724     1.007825032230
         H           -1.461349708363    -0.954736369481     1.680880643724     1.007825032230

  Basis Set: AUG-CC-PVTZ
    Blend: AUG-CC-PVTZ
  Basis Set: (AUG-CC-PVTZ AUX)
    Blend: AUG-CC-PVTZ-JKFIT
	 Reference Energy          =    -719.7339028591444503 [Eh]
	 Singles Energy            =      -0.0000000000000000 [Eh]
	 Same-Spin Energy          =      -0.4165156087404072 [Eh]
	 Opposite-Spin Energy      =      -1.2427915922903856 [Eh]
	 Correlation Energy        =      -1.6593072010307928 [Eh]
	 Total Energy              =    -721.3932100601751927 [Eh]

	 ================> DF-SCS-MP2 Energies <==================
	-----------------------------------------------------------
	 SCS Same-Spin Scale       =       0.3333333333333333 [-]
	 SCS Opposite-Spin Scale   =       1.2000000000000000 [-]
	 SCS Same-Spin Energy      =      -0.1388385362468024 [Eh]
	 SCS Opposite-Spin Energy  =      -1.4913499107484627 [Eh]
	 SCS Correlation Energy    =      -1.6301884469952650 [Eh]
	 SCS Total Energy          =    -721.3640913061396986 [Eh]
	-----------------------------------------------------------

  Dipole Moment: [D]
     X:     5.3880      Y:    -0.9036      Z:     1.4921     Total:     5.6633

*** Psi4 exiting successfully. Buy a developer a beer!
