                               Psi4 1.3.2 release

  ==> Input File <==

--------------------------------------------------------------------------
#psi4
#
memory 32 gb

molecule  {
-1 1
  P       -0.9206940     0.0325050    -0.1379180
  O        0.8347747    -0.5382603    -0.3710176
  O       -1.0869660    -0.1237460     1.5140700
  O       -1.7761100    -1.0113720    -0.8028300
  O       -1.0141860     1.5044880    -0.4470930
  C        1.6724330     0.4007460     0.1532460
  C        3.0061220    -0.2801360    -0.0629140
  H        1.6230780     1.3579470    -0.3750000
  H        1.5019730     0.5929700     1.2191390
  H        3.0451600    -1.2240850     0.4853350
  H        3.1601600    -0.4835910    -1.1252110
  H        3.8211450     0.3599160     0.2891820
  H       -1.5629250    -0.9540910     1.6878470
units angstrom
no_reorient  #important for SAPT in psi4, default
symmetry c1  #important for SAPT in psi4, default
}

set PROPERTIES_ORIGIN ["COM"]
properties('MP2/aug-cc-pvtz', properties = ['dipole'])
--------------------------------------------------------------------------

    Molecular point group: c1
  Charge       = -1
  Multiplicity = 1
  Basis Set: AUG-CC-PVTZ
    Blend: AUG-CC-PVTZ
  Basis Set: (AUG-CC-PVTZ AUX)
    Blend: AUG-CC-PVTZ-JKFIT

    Orbital Energies [Eh]
    ---------------------

    Doubly Occupied:

       1A    -79.902709     2A    -20.421429     3A    -20.393589
       4A    -20.324364     5A    -20.322904     6A    -11.120000
       7A    -11.083781     8A     -7.416722     9A     -5.315207
      10A     -5.314577    11A     -5.313096    12A     -1.225086
      13A     -1.187232    14A     -1.115206    15A     -1.076671
      16A     -0.862677    17A     -0.689273    18A     -0.610632
      19A     -0.528886    20A     -0.509587    21A     -0.477282
      22A     -0.433684    23A     -0.426849    24A     -0.407962
      25A     -0.391560    26A     -0.377744    27A     -0.363216
      28A     -0.326046    29A     -0.297380    30A     -0.280512
      31A     -0.268673    32A     -0.266254    33A     -0.254776

  @DF-RHF Final Energy:  -719.72747544009042

   => Energetics <=

    Nuclear Repulsion Energy =            419.8480635672861467
    One-Electron Energy =               -1840.5399489913925208
    Two-Electron Energy =                 700.9644099840160152
    Total Energy =                       -719.7274754400904158
  Basis Set: (AUG-CC-PVTZ AUX)
    Blend: AUG-CC-PVTZ-RI
    Molecular point group: c1

    Geometry (in Angstrom), charge = -1, multiplicity = 1:

       Center              X                  Y                   Z               Mass
    ------------   -----------------  -----------------  -----------------  -----------------
         P           -0.845816227432     0.037312536661    -0.116327018030    30.973761998420
         O            0.909652472568    -0.533452763339    -0.349426618030    15.994914619570
         O           -1.012088227432    -0.118938463339     1.535660981970    15.994914619570
         O           -1.701232227432    -1.006564463339    -0.781239018030    15.994914619570
         O           -0.939308227432     1.509295536661    -0.425502018030    15.994914619570
         C            1.747310772568     0.405553536661     0.174836981970    12.000000000000
         C            3.080999772568    -0.275328463339    -0.041323018030    12.000000000000
         H            1.697955772568     1.362754536661    -0.353409018030     1.007825032230
         H            1.576850772568     0.597777536661     1.240729981970     1.007825032230
         H            3.120037772568    -1.219277463339     0.506925981970     1.007825032230
         H            3.235037772568    -0.478783463339    -1.103620018030     1.007825032230
         H            3.896022772568     0.364723536661     0.310772981970     1.007825032230
         H           -1.488047227432    -0.949283463339     1.709437981970     1.007825032230

  Basis Set: AUG-CC-PVTZ
    Blend: AUG-CC-PVTZ
  Basis Set: (AUG-CC-PVTZ AUX)
    Blend: AUG-CC-PVTZ-JKFIT
	 Reference Energy          =    -719.7274754400904158 [Eh]
	 Singles Energy            =      -0.0000000000000000 [Eh]
	 Same-Spin Energy          =      -0.4176790101556107 [Eh]
	 Opposite-Spin Energy      =      -1.2433731233733927 [Eh]
	 Correlation Energy        =      -1.6610521335290034 [Eh]
	 Total Energy              =    -721.3885275736193989 [Eh]

	 ================> DF-SCS-MP2 Energies <==================
	-----------------------------------------------------------
	 SCS Same-Spin Scale       =       0.3333333333333333 [-]
	 SCS Opposite-Spin Scale   =       1.2000000000000000 [-]
	 SCS Same-Spin Energy      =      -0.1392263367185369 [Eh]
	 SCS Opposite-Spin Energy  =      -1.4920477480480712 [Eh]
	 SCS Correlation Energy    =      -1.6312740847666081 [Eh]
	 SCS Total Energy          =    -721.3587495248569894 [Eh]
	-----------------------------------------------------------

  Dipole Moment: [D]
     X:     3.6458      Y:    -0.9733      Z:     2.7104     Total:     4.6460

*** Psi4 exiting successfully. Buy a developer a beer!
