                               Psi4 1.3.2 release

  ==> Input File <==

--------------------------------------------------------------------------
#psi4
#
memory 32 gb

molecule  {
-1 1
  P       -0.9488419    -0.0180192    -0.1445043
  O        0.6460740    -0.4769070    -0.3459610
  O       -1.0869660    -0.1237460     1.5140700
  O       -1.7761100    -1.0113720    -0.8028300
  O       -1.0141860     1.5044880    -0.4470930
  C        1.6724330     0.4007460     0.1532460
  C        3.0061220    -0.2801360    -0.0629140
  H        1.6230780     1.3579470    -0.3750000
  H        1.5019730     0.5929700     1.2191390
  H        3.0451600    -1.2240850     0.4853350
  H        3.1601600    -0.4835910    -1.1252110
  H        3.8211450     0.3599160     0.2891820
  H       -1.5644140    -0.9595498     1.6543687
units angstrom
no_reorient  #important for SAPT in psi4, default
symmetry c1  #important for SAPT in psi4, default
}

set PROPERTIES_ORIGIN ["COM"]
properties('MP2/aug-cc-pvtz', properties = ['dipole'])
--------------------------------------------------------------------------

    Molecular point group: c1
  Charge       = -1
  Multiplicity = 1
  Basis Set: AUG-CC-PVTZ
    Blend: AUG-CC-PVTZ
  Basis Set: (AUG-CC-PVTZ AUX)
    Blend: AUG-CC-PVTZ-JKFIT

    Orbital Energies [Eh]
    ---------------------

    Doubly Occupied:

       1A    -79.879626     2A    -20.408757     3A    -20.396139
       4A    -20.317625     5A    -20.295086     6A    -11.137505
       7A    -11.098837     8A     -7.395916     9A     -5.294583
      10A     -5.294054    11A     -5.292439    12A     -1.227900
      13A     -1.177993    14A     -1.117995    15A     -1.046730
      16A     -0.885914    17A     -0.706558    18A     -0.600357
      19A     -0.529698    20A     -0.509527    21A     -0.473696
      22A     -0.439293    23A     -0.428489    24A     -0.420914
      25A     -0.395279    26A     -0.368972    27A     -0.362376
      28A     -0.324540    29A     -0.301115    30A     -0.287825
      31A     -0.282637    32A     -0.239779    33A     -0.234498

  @DF-RHF Final Energy:  -719.75064278575996

   => Energetics <=

    Nuclear Repulsion Energy =            423.9792315211170717
    One-Electron Energy =               -1849.1144440380671767
    Two-Electron Energy =                 705.3845697311901404
    Total Energy =                       -719.7506427857599647
  Basis Set: (AUG-CC-PVTZ AUX)
    Blend: AUG-CC-PVTZ-RI
    Molecular point group: c1

    Geometry (in Angstrom), charge = -1, multiplicity = 1:

       Center              X                  Y                   Z               Mass
    ------------   -----------------  -----------------  -----------------  -----------------
         P           -0.842831431016    -0.008498995184    -0.124217597524    30.973761998420
         O            0.752084468984    -0.467386795184    -0.325674297524    15.994914619570
         O           -0.980955531016    -0.114225795184     1.534356702476    15.994914619570
         O           -1.670099531016    -1.001851795184    -0.782543297524    15.994914619570
         O           -0.908175531016     1.514008204816    -0.426806297524    15.994914619570
         C            1.778443468984     0.410266204816     0.173532702476    12.000000000000
         C            3.112132468984    -0.270615795184    -0.042627297524    12.000000000000
         H            1.729088468984     1.367467204816    -0.354713297524     1.007825032230
         H            1.607983468984     0.602490204816     1.239425702476     1.007825032230
         H            3.151170468984    -1.214564795184     0.505621702476     1.007825032230
         H            3.266170468984    -0.474070795184    -1.104924297524     1.007825032230
         H            3.927155468984     0.369436204816     0.309468702476     1.007825032230
         H           -1.458403531016    -0.950029595184     1.674655402476     1.007825032230

  Basis Set: AUG-CC-PVTZ
    Blend: AUG-CC-PVTZ
  Basis Set: (AUG-CC-PVTZ AUX)
    Blend: AUG-CC-PVTZ-JKFIT
	 Reference Energy          =    -719.7506427857599647 [Eh]
	 Singles Energy            =      -0.0000000000000000 [Eh]
	 Same-Spin Energy          =      -0.4147410471529727 [Eh]
	 Opposite-Spin Energy      =      -1.2369515253915817 [Eh]
	 Correlation Energy        =      -1.6516925725445544 [Eh]
	 Total Energy              =    -721.4023353583045264 [Eh]

	 ================> DF-SCS-MP2 Energies <==================
	-----------------------------------------------------------
	 SCS Same-Spin Scale       =       0.3333333333333333 [-]
	 SCS Opposite-Spin Scale   =       1.2000000000000000 [-]
	 SCS Same-Spin Energy      =      -0.1382470157176575 [Eh]
	 SCS Opposite-Spin Energy  =      -1.4843418304698981 [Eh]
	 SCS Correlation Energy    =      -1.6225888461875557 [Eh]
	 SCS Total Energy          =    -721.3732316319475331 [Eh]
	-----------------------------------------------------------

  Dipole Moment: [D]
     X:     4.7494      Y:    -1.7070      Z:     2.5893     Total:     5.6723

*** Psi4 exiting successfully. Buy a developer a beer!
