                               Psi4 1.4a3.dev225

  ==> Input File <==

--------------------------------------------------------------------------
#psi4
#
memory 32 gb

molecule  {
-1 1
  P       -0.9277810     0.0961130     0.0976350
  O        0.6463760     0.5937280    -0.0402780
  O       -1.0769050    -0.8632740    -1.2547320
  O       -1.7527520     1.3345500    -0.1191100
  O       -1.0878997    -0.8240860     1.3472135
  C        1.6614230    -0.4105840     0.1296040
  C        3.0075080     0.2459920    -0.0890990
  H        1.5881620    -0.8381400     1.1347230
  H        1.5022440    -1.2178370    -0.5954040
  H        3.0701330     0.6620790    -1.0974680
  H        3.1582490     1.0535750     0.6314230
  H        3.8108830    -0.4860100     0.0361070
  H       -1.0981360    -1.7910910    -0.9612950
units angstrom
no_reorient  #important for SAPT in psi4, default
symmetry c1  #important for SAPT in psi4, default
}

set PROPERTIES_ORIGIN ["COM"]
properties('MP2/aug-cc-pvtz', properties = ['dipole'])
--------------------------------------------------------------------------

    Molecular point group: c1
  Charge       = -1
  Multiplicity = 1
  Basis Set: AUG-CC-PVTZ
    Blend: AUG-CC-PVTZ
  Basis Set: (AUG-CC-PVTZ AUX)
    Blend: AUG-CC-PVTZ-JKFIT

    Orbital Energies [Eh]
    ---------------------

    Doubly Occupied:

       1A    -79.888922     2A    -20.411319     3A    -20.406160
       4A    -20.312681     5A    -20.301727     6A    -11.147276
       7A    -11.104858     8A     -7.402892     9A     -5.301869
      10A     -5.300956    11A     -5.299280    12A     -1.231891
      13A     -1.184422    14A     -1.089913    15A     -1.051870
      16A     -0.893349    17A     -0.715495    18A     -0.609415
      19A     -0.539465    20A     -0.519314    21A     -0.472560
      22A     -0.449853    23A     -0.428049    24A     -0.420734
      25A     -0.392683    26A     -0.378270    27A     -0.344208
      28A     -0.336024    29A     -0.309043    30A     -0.280452
      31A     -0.264377    32A     -0.249431    33A     -0.234904

  @DF-RHF Final Energy:  -719.74883888430782

   => Energetics <=

    Nuclear Repulsion Energy =            422.3319311293840883
    One-Electron Energy =               -1845.6142145886249182
    Two-Electron Energy =                 703.5334445749329007
    Total Energy =                       -719.7488388843078155
  Basis Set: (AUG-CC-PVTZ AUX)
    Blend: AUG-CC-PVTZ-RI
    Molecular point group: c1

    Geometry (in Angstrom), charge = -1, multiplicity = 1:

       Center              X                  Y                   Z               Mass
    ------------   -----------------  -----------------  -----------------  -----------------
         P           -0.824531148308     0.078373575803     0.084983523570    30.973761998420
         O            0.749625851692     0.575988575803    -0.052929476430    15.994914619570
         O           -0.973655148308    -0.881013424197    -1.267383476430    15.994914619570
         O           -1.649502148308     1.316810575803    -0.131761476430    15.994914619570
         O           -0.984649848308    -0.841825424197     1.334562023570    15.994914619570
         C            1.764672851692    -0.428323424197     0.116952523570    12.000000000000
         C            3.110757851692     0.228252575803    -0.101750476430    12.000000000000
         H            1.691411851692    -0.855879424197     1.122071523570     1.007825032230
         H            1.605493851692    -1.235576424197    -0.608055476430     1.007825032230
         H            3.173382851692     0.644339575803    -1.110119476430     1.007825032230
         H            3.261498851692     1.035835575803     0.618771523570     1.007825032230
         H            3.914132851692    -0.503749424197     0.023455523570     1.007825032230
         H           -0.994886148308    -1.808830424197    -0.973946476430     1.007825032230

  Basis Set: AUG-CC-PVTZ
    Blend: AUG-CC-PVTZ
  Basis Set: (AUG-CC-PVTZ AUX)
    Blend: AUG-CC-PVTZ-JKFIT
	 Reference Energy          =    -719.7488388843078155 [Eh]
	 Singles Energy            =      -0.0000000000000000 [Eh]
	 Same-Spin Energy          =      -0.4158797359602309 [Eh]
	 Opposite-Spin Energy      =      -1.2396418848321242 [Eh]
	 Correlation Energy        =      -1.6555216207923551 [Eh]
	 Total Energy              =    -721.4043605051001578 [Eh]

	 ================> DF-SCS-MP2 Energies <==================
	-----------------------------------------------------------
	 SCS Same-Spin Scale       =       0.3333333333333333 [-]
	 SCS Opposite-Spin Scale   =       1.2000000000000000 [-]
	 SCS Same-Spin Energy      =      -0.1386265786534103 [Eh]
	 SCS Opposite-Spin Energy  =      -1.4875702617985491 [Eh]
	 SCS Correlation Energy    =      -1.6261968404519593 [Eh]
	 SCS Total Energy          =    -721.3750357247597549 [Eh]
	-----------------------------------------------------------

  Dipole Moment: [D]
     X:     5.9183      Y:    -2.8330      Z:    -1.6059     Total:     6.7551

*** Psi4 exiting successfully. Buy a developer a beer!
