                               Psi4 1.4a3.dev225

  ==> Input File <==

--------------------------------------------------------------------------
#psi4
#
memory 32 gb

molecule  {
-1 1
  P       -0.9277810     0.0961130     0.0976350
  O        0.6653797     0.5997354    -0.0419429
  O       -1.0769050    -0.8632740    -1.2547320
  O       -1.7527520     1.3345500    -0.1191100
  O       -1.0827680    -0.7945940     1.3071650
  C        1.6614230    -0.4105840     0.1296040
  C        3.0075080     0.2459920    -0.0890990
  H        1.5881620    -0.8381400     1.1347230
  H        1.5022440    -1.2178370    -0.5954040
  H        3.0701330     0.6620790    -1.0974680
  H        3.1582490     1.0535750     0.6314230
  H        3.8108830    -0.4860100     0.0361070
  H       -1.0981360    -1.7910910    -0.9612950
units angstrom
no_reorient  #important for SAPT in psi4, default
symmetry c1  #important for SAPT in psi4, default
}

set PROPERTIES_ORIGIN ["COM"]
properties('MP2/aug-cc-pvtz', properties = ['dipole'])
--------------------------------------------------------------------------

    Molecular point group: c1
  Charge       = -1
  Multiplicity = 1
  Basis Set: AUG-CC-PVTZ
    Blend: AUG-CC-PVTZ
  Basis Set: (AUG-CC-PVTZ AUX)
    Blend: AUG-CC-PVTZ-JKFIT

    Orbital Energies [Eh]
    ---------------------

    Doubly Occupied:

       1A    -79.882867     2A    -20.409189     3A    -20.402211
       4A    -20.312953     5A    -20.299168     6A    -11.143727
       7A    -11.102115     8A     -7.398099     9A     -5.296901
      10A     -5.296093    11A     -5.294705    12A     -1.229562
      13A     -1.182365    14A     -1.099221    15A     -1.060848
      16A     -0.889455    17A     -0.711827    18A     -0.606397
      19A     -0.537002    20A     -0.517356    21A     -0.471622
      22A     -0.447961    23A     -0.426332    24A     -0.418148
      25A     -0.394766    26A     -0.378371    27A     -0.345221
      28A     -0.335538    29A     -0.307194    30A     -0.285709
      31A     -0.268168    32A     -0.251915    33A     -0.237610

  @DF-RHF Final Energy:  -719.75426328966762

   => Energetics <=

    Nuclear Repulsion Energy =            423.9428092092721840
    One-Electron Energy =               -1848.9129083687839739
    Two-Electron Energy =                 705.2158358698442271
    Total Energy =                       -719.7542632896676196
  Basis Set: (AUG-CC-PVTZ AUX)
    Blend: AUG-CC-PVTZ-RI
    Molecular point group: c1

    Geometry (in Angstrom), charge = -1, multiplicity = 1:

       Center              X                  Y                   Z               Mass
    ------------   -----------------  -----------------  -----------------  -----------------
         P           -0.827619488448     0.073831110297     0.090321125914    30.973761998420
         O            0.765541211552     0.577453510297    -0.049256774086    15.994914619570
         O           -0.976743488448    -0.885555889703    -1.262045874086    15.994914619570
         O           -1.652590488448     1.312268110297    -0.126423874086    15.994914619570
         O           -0.982606488448    -0.816875889703     1.299851125914    15.994914619570
         C            1.761584511552    -0.432865889703     0.122290125914    12.000000000000
         C            3.107669511552     0.223710110297    -0.096412874086    12.000000000000
         H            1.688323511552    -0.860421889703     1.127409125914     1.007825032230
         H            1.602405511552    -1.240118889703    -0.602717874086     1.007825032230
         H            3.170294511552     0.639797110297    -1.104781874086     1.007825032230
         H            3.258410511552     1.031293110297     0.624109125914     1.007825032230
         H            3.911044511552    -0.508291889703     0.028793125914     1.007825032230
         H           -0.997974488448    -1.813372889703    -0.968608874086     1.007825032230

  Basis Set: AUG-CC-PVTZ
    Blend: AUG-CC-PVTZ
  Basis Set: (AUG-CC-PVTZ AUX)
    Blend: AUG-CC-PVTZ-JKFIT
	 Reference Energy          =    -719.7542632896676196 [Eh]
	 Singles Energy            =      -0.0000000000000000 [Eh]
	 Same-Spin Energy          =      -0.4151092308033870 [Eh]
	 Opposite-Spin Energy      =      -1.2376323369722044 [Eh]
	 Correlation Energy        =      -1.6527415677755914 [Eh]
	 Total Energy              =    -721.4070048574432121 [Eh]

	 ================> DF-SCS-MP2 Energies <==================
	-----------------------------------------------------------
	 SCS Same-Spin Scale       =       0.3333333333333333 [-]
	 SCS Opposite-Spin Scale   =       1.2000000000000000 [-]
	 SCS Same-Spin Energy      =      -0.1383697436011290 [Eh]
	 SCS Opposite-Spin Energy  =      -1.4851588043666453 [Eh]
	 SCS Correlation Energy    =      -1.6235285479677743 [Eh]
	 SCS Total Energy          =    -721.3777918376354137 [Eh]
	-----------------------------------------------------------

  Dipole Moment: [D]
     X:     5.7056      Y:    -3.0088      Z:    -1.3621     Total:     6.5926

*** Psi4 exiting successfully. Buy a developer a beer!
