                               Psi4 1.3.2 release

  ==> Input File <==

--------------------------------------------------------------------------
#psi4
#
memory 32 gb

molecule  {
-1 1
  P       -0.9206940     0.0325050    -0.1379180
  O        0.6460740    -0.4769070    -0.3459610
  O       -1.0869660    -0.1237460     1.5140700
  O       -1.7761100    -1.0113720    -0.8028300
  O       -1.0017783     1.3091359    -0.4060613
  C        1.6724330     0.4007460     0.1532460
  C        3.0061220    -0.2801360    -0.0629140
  H        1.6230780     1.3579470    -0.3750000
  H        1.5019730     0.5929700     1.2191390
  H        3.0451600    -1.2240850     0.4853350
  H        3.1601600    -0.4835910    -1.1252110
  H        3.8211450     0.3599160     0.2891820
  H       -1.5629250    -0.9540910     1.6878470
units angstrom
no_reorient  #important for SAPT in psi4, default
symmetry c1  #important for SAPT in psi4, default
}

set PROPERTIES_ORIGIN ["COM"]
properties('MP2/aug-cc-pvtz', properties = ['dipole'])
--------------------------------------------------------------------------

    Molecular point group: c1
  Charge       = -1
  Multiplicity = 1
  Basis Set: AUG-CC-PVTZ
    Blend: AUG-CC-PVTZ
  Basis Set: (AUG-CC-PVTZ AUX)
    Blend: AUG-CC-PVTZ-JKFIT

    Orbital Energies [Eh]
    ---------------------

    Doubly Occupied:

       1A    -79.831729     2A    -20.389518     3A    -20.385247
       4A    -20.293767     5A    -20.286146     6A    -11.136258
       7A    -11.097561     8A     -7.361121     9A     -5.261190
      10A     -5.257604    11A     -5.256509    12A     -1.239984
      13A     -1.167585    14A     -1.152118    15A     -1.059408
      16A     -0.883929    17A     -0.704329    18A     -0.589922
      19A     -0.531674    20A     -0.506650    21A     -0.461937
      22A     -0.441512    23A     -0.426012    24A     -0.416359
      25A     -0.399116    26A     -0.375794    27A     -0.363697
      28A     -0.332894    29A     -0.307003    30A     -0.299435
      31A     -0.279921    32A     -0.245384    33A     -0.237315

  @DF-RHF Final Energy:  -719.71516510958600

   => Energetics <=

    Nuclear Repulsion Energy =            433.8044498141197778
    One-Electron Energy =               -1869.0819731963090362
    Two-Electron Energy =                 715.5623582726032055
    Total Energy =                       -719.7151651095859961
  Basis Set: (AUG-CC-PVTZ AUX)
    Blend: AUG-CC-PVTZ-RI
    Molecular point group: c1

    Geometry (in Angstrom), charge = -1, multiplicity = 1:

       Center              X                  Y                   Z               Mass
    ------------   -----------------  -----------------  -----------------  -----------------
         P           -0.823257962461     0.054458880737    -0.124783606680    30.973761998420
         O            0.743510037539    -0.454953119263    -0.332826606680    15.994914619570
         O           -0.989529962461    -0.101792119263     1.527204393320    15.994914619570
         O           -1.678673962461    -0.989418119263    -0.789695606680    15.994914619570
         O           -0.904342262461     1.331089780737    -0.392926906680    15.994914619570
         C            1.769869037539     0.422699880737     0.166380393320    12.000000000000
         C            3.103558037539    -0.258182119263    -0.049779606680    12.000000000000
         H            1.720514037539     1.379900880737    -0.361865606680     1.007825032230
         H            1.599409037539     0.614923880737     1.232273393320     1.007825032230
         H            3.142596037539    -1.202131119263     0.498469393320     1.007825032230
         H            3.257596037539    -0.461637119263    -1.112076606680     1.007825032230
         H            3.918581037539     0.381869880737     0.302316393320     1.007825032230
         H           -1.465488962461    -0.932137119263     1.700981393320     1.007825032230

  Basis Set: AUG-CC-PVTZ
    Blend: AUG-CC-PVTZ
  Basis Set: (AUG-CC-PVTZ AUX)
    Blend: AUG-CC-PVTZ-JKFIT
	 Reference Energy          =    -719.7151651095859961 [Eh]
	 Singles Energy            =      -0.0000000000000000 [Eh]
	 Same-Spin Energy          =      -0.4107212970484924 [Eh]
	 Opposite-Spin Energy      =      -1.2270505955954585 [Eh]
	 Correlation Energy        =      -1.6377718926439508 [Eh]
	 Total Energy              =    -721.3529370022299645 [Eh]

	 ================> DF-SCS-MP2 Energies <==================
	-----------------------------------------------------------
	 SCS Same-Spin Scale       =       0.3333333333333333 [-]
	 SCS Opposite-Spin Scale   =       1.2000000000000000 [-]
	 SCS Same-Spin Energy      =      -0.1369070990161641 [Eh]
	 SCS Opposite-Spin Energy  =      -1.4724607147145501 [Eh]
	 SCS Correlation Energy    =      -1.6093678137307141 [Eh]
	 SCS Total Energy          =    -721.3245329233167240 [Eh]
	-----------------------------------------------------------

  Dipole Moment: [D]
     X:     4.9514      Y:    -0.0045      Z:     2.4318     Total:     5.5163

*** Psi4 exiting successfully. Buy a developer a beer!
