                               Psi4 1.3.2 release

  ==> Input File <==

--------------------------------------------------------------------------
#psi4
#
memory 32 gb

molecule  {
-1 1
  P       -0.9206940     0.0325050    -0.1379180
  O        0.6700972    -0.5293577    -0.2974484
  O       -1.0869660    -0.1237460     1.5140700
  O       -1.7761100    -1.0113720    -0.8028300
  O       -1.0141860     1.5044880    -0.4470930
  C        1.6724330     0.4007460     0.1532460
  C        3.0061220    -0.2801360    -0.0629140
  H        1.6673726     1.3759416    -0.3434243
  H        1.5019730     0.5929700     1.2191390
  H        3.0451600    -1.2240850     0.4853350
  H        3.1601600    -0.4835910    -1.1252110
  H        3.8211450     0.3599160     0.2891820
  H       -1.5629250    -0.9540910     1.6878470
units angstrom
no_reorient  #important for SAPT in psi4, default
symmetry c1  #important for SAPT in psi4, default
}

set PROPERTIES_ORIGIN ["COM"]
properties('MP2/aug-cc-pvtz', properties = ['dipole'])
--------------------------------------------------------------------------

    Molecular point group: c1
  Charge       = -1
  Multiplicity = 1
  Basis Set: AUG-CC-PVTZ
    Blend: AUG-CC-PVTZ
  Basis Set: (AUG-CC-PVTZ AUX)
    Blend: AUG-CC-PVTZ-JKFIT

    Orbital Energies [Eh]
    ---------------------

    Doubly Occupied:

       1A    -79.884314     2A    -20.405018     3A    -20.401974
       4A    -20.310431     5A    -20.307770     6A    -11.138527
       7A    -11.097930     8A     -7.399444     9A     -5.298222
      10A     -5.297385    11A     -5.296084    12A     -1.224292
      13A     -1.176134    14A     -1.100643    15A     -1.064647
      16A     -0.885480    17A     -0.705679    18A     -0.605115
      19A     -0.533159    20A     -0.508571    21A     -0.465553
      22A     -0.441116    23A     -0.425814    24A     -0.416793
      25A     -0.394753    26A     -0.371032    27A     -0.354022
      28A     -0.330128    29A     -0.301518    30A     -0.287575
      31A     -0.268084    32A     -0.256171    33A     -0.241712

  @DF-RHF Final Energy:  -719.75212217819774

   => Energetics <=

    Nuclear Repulsion Energy =            423.1573216995861344
    One-Electron Energy =               -1847.4287031140568160
    Two-Electron Energy =                 704.5192592362728874
    Total Energy =                       -719.7521221781977374
  Basis Set: (AUG-CC-PVTZ AUX)
    Blend: AUG-CC-PVTZ-RI
    Molecular point group: c1

    Geometry (in Angstrom), charge = -1, multiplicity = 1:

       Center              X                  Y                   Z               Mass
    ------------   -----------------  -----------------  -----------------  -----------------
         P           -0.825101398094     0.036028286588    -0.125995436187    30.973761998420
         O            0.765689801906    -0.525834413412    -0.285525836187    15.994914619570
         O           -0.991373398094    -0.120222713412     1.525992563813    15.994914619570
         O           -1.680517398094    -1.007848713412    -0.790907436187    15.994914619570
         O           -0.918593398094     1.508011286588    -0.435170436187    15.994914619570
         C            1.768025601906     0.404269286588     0.165168563813    12.000000000000
         C            3.101714601906    -0.276612713412    -0.050991436187    12.000000000000
         H            1.762965201906     1.379464886588    -0.331501736187     1.007825032230
         H            1.597565601906     0.596493286588     1.231061563813     1.007825032230
         H            3.140752601906    -1.220561713412     0.497257563813     1.007825032230
         H            3.255752601906    -0.480067713412    -1.113288436187     1.007825032230
         H            3.916737601906     0.363439286588     0.301104563813     1.007825032230
         H           -1.467332398094    -0.950567713412     1.699769563813     1.007825032230

  Basis Set: AUG-CC-PVTZ
    Blend: AUG-CC-PVTZ
  Basis Set: (AUG-CC-PVTZ AUX)
    Blend: AUG-CC-PVTZ-JKFIT
	 Reference Energy          =    -719.7521221781977374 [Eh]
	 Singles Energy            =      -0.0000000000000000 [Eh]
	 Same-Spin Energy          =      -0.4153025898148964 [Eh]
	 Opposite-Spin Energy      =      -1.2383421581397274 [Eh]
	 Correlation Energy        =      -1.6536447479546239 [Eh]
	 Total Energy              =    -721.4057669261524097 [Eh]

	 ================> DF-SCS-MP2 Energies <==================
	-----------------------------------------------------------
	 SCS Same-Spin Scale       =       0.3333333333333333 [-]
	 SCS Opposite-Spin Scale   =       1.2000000000000000 [-]
	 SCS Same-Spin Energy      =      -0.1384341966049655 [Eh]
	 SCS Opposite-Spin Energy  =      -1.4860105897676728 [Eh]
	 SCS Correlation Energy    =      -1.6244447863726381 [Eh]
	 SCS Total Energy          =    -721.3765669645704293 [Eh]
	-----------------------------------------------------------

  Dipole Moment: [D]
     X:     4.8934      Y:    -0.9787      Z:     2.6235     Total:     5.6379

*** Psi4 exiting successfully. Buy a developer a beer!
