                               Psi4 1.3.2 release

  ==> Input File <==

--------------------------------------------------------------------------
#psi4
#
memory 32 gb

molecule  {
-1 1
  P       -0.9206940     0.0325050    -0.1379180
  O        0.6287028    -0.4600042    -0.3393305
  O       -1.0869660    -0.1237460     1.5140700
  O       -1.7761100    -1.0113720    -0.8028300
  O       -1.0141860     1.5044880    -0.4470930
  C        1.6724330     0.4007460     0.1532460
  C        3.0182390    -0.2593345    -0.0520631
  H        1.6230780     1.3579470    -0.3750000
  H        1.5019730     0.5929700     1.2191390
  H        3.0451600    -1.2240850     0.4853350
  H        3.1601600    -0.4835910    -1.1252110
  H        3.8211450     0.3599160     0.2891820
  H       -1.5629250    -0.9540910     1.6878470
units angstrom
no_reorient  #important for SAPT in psi4, default
symmetry c1  #important for SAPT in psi4, default
}

set PROPERTIES_ORIGIN ["COM"]
properties('MP2/aug-cc-pvtz', properties = ['dipole'])
--------------------------------------------------------------------------

    Molecular point group: c1
  Charge       = -1
  Multiplicity = 1
  Basis Set: AUG-CC-PVTZ
    Blend: AUG-CC-PVTZ
  Basis Set: (AUG-CC-PVTZ AUX)
    Blend: AUG-CC-PVTZ-JKFIT

    Orbital Energies [Eh]
    ---------------------

    Doubly Occupied:

       1A    -79.877783     2A    -20.403557     3A    -20.401068
       4A    -20.304131     5A    -20.301741     6A    -11.142299
       7A    -11.102749     8A     -7.393594     9A     -5.292443
      10A     -5.291644    11A     -5.290216    12A     -1.231240
      13A     -1.179176    14A     -1.095470    15A     -1.059691
      16A     -0.891644    17A     -0.712272    18A     -0.605486
      19A     -0.536149    20A     -0.512300    21A     -0.466076
      22A     -0.445440    23A     -0.431385    24A     -0.424866
      25A     -0.392440    26A     -0.368417    27A     -0.355316
      28A     -0.326155    29A     -0.305394    30A     -0.284519
      31A     -0.265141    32A     -0.250582    33A     -0.236277

  @DF-RHF Final Energy:  -719.75677423965158

   => Energetics <=

    Nuclear Repulsion Energy =            424.8378716549629530
    One-Electron Energy =               -1850.8359701588044572
    Two-Electron Energy =                 706.2413242641898705
    Total Energy =                       -719.7567742396515769
  Basis Set: (AUG-CC-PVTZ AUX)
    Blend: AUG-CC-PVTZ-RI
    Molecular point group: c1

    Geometry (in Angstrom), charge = -1, multiplicity = 1:

       Center              X                  Y                   Z               Mass
    ------------   -----------------  -----------------  -----------------  -----------------
         P           -0.820610714608     0.025302031173    -0.121423348989    30.973761998420
         O            0.728786085392    -0.467207168827    -0.322835848989    15.994914619570
         O           -0.986882714608    -0.130948968827     1.530564651011    15.994914619570
         O           -1.676026714608    -1.018574968827    -0.786335348989    15.994914619570
         O           -0.914102714608     1.497285031173    -0.430598348989    15.994914619570
         C            1.772516285392     0.393543031173     0.169740651011    12.000000000000
         C            3.118322285392    -0.266537468827    -0.035568448989    12.000000000000
         H            1.723161285392     1.350744031173    -0.358505348989     1.007825032230
         H            1.602056285392     0.585767031173     1.235633651011     1.007825032230
         H            3.145243285392    -1.231287968827     0.501829651011     1.007825032230
         H            3.260243285392    -0.490793968827    -1.108716348989     1.007825032230
         H            3.921228285392     0.352713031173     0.305676651011     1.007825032230
         H           -1.462841714608    -0.961293968827     1.704341651011     1.007825032230

  Basis Set: AUG-CC-PVTZ
    Blend: AUG-CC-PVTZ
  Basis Set: (AUG-CC-PVTZ AUX)
    Blend: AUG-CC-PVTZ-JKFIT
	 Reference Energy          =    -719.7567742396515769 [Eh]
	 Singles Energy            =      -0.0000000000000000 [Eh]
	 Same-Spin Energy          =      -0.4144164563694019 [Eh]
	 Opposite-Spin Energy      =      -1.2359843933332741 [Eh]
	 Correlation Energy        =      -1.6504008497026761 [Eh]
	 Total Energy              =    -721.4071750893542685 [Eh]

	 ================> DF-SCS-MP2 Energies <==================
	-----------------------------------------------------------
	 SCS Same-Spin Scale       =       0.3333333333333333 [-]
	 SCS Opposite-Spin Scale   =       1.2000000000000000 [-]
	 SCS Same-Spin Energy      =      -0.1381388187898006 [Eh]
	 SCS Opposite-Spin Energy  =      -1.4831812719999289 [Eh]
	 SCS Correlation Energy    =      -1.6213200907897296 [Eh]
	 SCS Total Energy          =    -721.3780943304412858 [Eh]
	-----------------------------------------------------------

  Dipole Moment: [D]
     X:     5.2750      Y:    -1.1246      Z:     2.6990     Total:     6.0311

*** Psi4 exiting successfully. Buy a developer a beer!
