                               Psi4 1.3.2 release

  ==> Input File <==

--------------------------------------------------------------------------
#psi4
#
memory 32 gb

molecule  {
-1 1
  P       -0.9066939     0.0576995    -0.1338695
  O        0.6460740    -0.4769070    -0.3459610
  O       -1.0869660    -0.1237460     1.5140700
  O       -1.7761100    -1.0113720    -0.8028300
  O       -1.0141860     1.5044880    -0.4470930
  C        1.6724330     0.4007460     0.1532460
  C        3.0061220    -0.2801360    -0.0629140
  H        1.6230780     1.3579470    -0.3750000
  H        1.5019730     0.5929700     1.2191390
  H        3.0451600    -1.2240850     0.4853350
  H        3.1601600    -0.4835910    -1.1252110
  H        3.8211450     0.3599160     0.2891820
  H       -1.5619629    -0.9509818     1.7045093
units angstrom
no_reorient  #important for SAPT in psi4, default
symmetry c1  #important for SAPT in psi4, default
}

set PROPERTIES_ORIGIN ["COM"]
properties('MP2/aug-cc-pvtz', properties = ['dipole'])
--------------------------------------------------------------------------

    Molecular point group: c1
  Charge       = -1
  Multiplicity = 1
  Basis Set: AUG-CC-PVTZ
    Blend: AUG-CC-PVTZ
  Basis Set: (AUG-CC-PVTZ AUX)
    Blend: AUG-CC-PVTZ-JKFIT

    Orbital Energies [Eh]
    ---------------------

    Doubly Occupied:

       1A    -79.880110     2A    -20.403764     3A    -20.402764
       4A    -20.308981     5A    -20.298991     6A    -11.142002
       7A    -11.101999     8A     -7.395650     9A     -5.294420
      10A     -5.293690    11A     -5.292281    12A     -1.229136
      13A     -1.178884    14A     -1.100625    15A     -1.054697
      16A     -0.889918    17A     -0.710876    18A     -0.607680
      19A     -0.536604    20A     -0.514567    21A     -0.462269
      22A     -0.446292    23A     -0.427120    24A     -0.420741
      25A     -0.396837    26A     -0.371685    27A     -0.350577
      28A     -0.330306    29A     -0.306700    30A     -0.284544
      31A     -0.268342    32A     -0.247609    33A     -0.235114

  @DF-RHF Final Energy:  -719.75478182528730

   => Energetics <=

    Nuclear Repulsion Energy =            424.3855999244045734
    One-Electron Energy =               -1849.9092147385324552
    Two-Electron Energy =                 705.7688329888406997
    Total Energy =                       -719.7547818252872958
  Basis Set: (AUG-CC-PVTZ AUX)
    Blend: AUG-CC-PVTZ-RI
    Molecular point group: c1

    Geometry (in Angstrom), charge = -1, multiplicity = 1:

       Center              X                  Y                   Z               Mass
    ------------   -----------------  -----------------  -----------------  -----------------
         P           -0.811147019193     0.048388336357    -0.116622250238    30.973761998420
         O            0.741620880807    -0.486218163643    -0.328713750238    15.994914619570
         O           -0.991419119193    -0.133057163643     1.531317249762    15.994914619570
         O           -1.680563119193    -1.020683163643    -0.785582750238    15.994914619570
         O           -0.918639119193     1.495176836357    -0.429845750238    15.994914619570
         C            1.767979880807     0.391434836357     0.170493249762    12.000000000000
         C            3.101668880807    -0.289447163643    -0.045666750238    12.000000000000
         H            1.718624880807     1.348635836357    -0.357752750238     1.007825032230
         H            1.597519880807     0.583658836357     1.236386249762     1.007825032230
         H            3.140706880807    -1.233396163643     0.502582249762     1.007825032230
         H            3.255706880807    -0.492902163643    -1.107963750238     1.007825032230
         H            3.916691880807     0.350604836357     0.306429249762     1.007825032230
         H           -1.466416019193    -0.960292963643     1.721756549762     1.007825032230

  Basis Set: AUG-CC-PVTZ
    Blend: AUG-CC-PVTZ
  Basis Set: (AUG-CC-PVTZ AUX)
    Blend: AUG-CC-PVTZ-JKFIT
	 Reference Energy          =    -719.7547818252872958 [Eh]
	 Singles Energy            =      -0.0000000000000000 [Eh]
	 Same-Spin Energy          =      -0.4147366283726358 [Eh]
	 Opposite-Spin Energy      =      -1.2368639962431596 [Eh]
	 Correlation Energy        =      -1.6516006246157953 [Eh]
	 Total Energy              =    -721.4063824499030488 [Eh]

	 ================> DF-SCS-MP2 Energies <==================
	-----------------------------------------------------------
	 SCS Same-Spin Scale       =       0.3333333333333333 [-]
	 SCS Opposite-Spin Scale   =       1.2000000000000000 [-]
	 SCS Same-Spin Energy      =      -0.1382455427908786 [Eh]
	 SCS Opposite-Spin Energy  =      -1.4842367954917914 [Eh]
	 SCS Correlation Energy    =      -1.6224823382826701 [Eh]
	 SCS Total Energy          =    -721.3772641635699756 [Eh]
	-----------------------------------------------------------

  Dipole Moment: [D]
     X:     5.3113      Y:    -0.8013      Z:     2.7676     Total:     6.0425

*** Psi4 exiting successfully. Buy a developer a beer!
