                               Psi4 1.3.2 release

  ==> Input File <==

--------------------------------------------------------------------------
#psi4
#
memory 32 gb

molecule  {
-1 1
  P       -0.8927487     0.0828388    -0.1293190
  O        0.6460740    -0.4769070    -0.3459610
  O       -1.0869660    -0.1237460     1.5140700
  O       -1.7761100    -1.0113720    -0.8028300
  O       -1.0141860     1.5044880    -0.4470930
  C        1.6724330     0.4007460     0.1532460
  C        3.0061220    -0.2801360    -0.0629140
  H        1.6230780     1.3579470    -0.3750000
  H        1.5019730     0.5929700     1.2191390
  H        3.0451600    -1.2240850     0.4853350
  H        3.1601600    -0.4835910    -1.1252110
  H        3.8211450     0.3599160     0.2891820
  H       -1.5608561    -0.9476206     1.7211135
units angstrom
no_reorient  #important for SAPT in psi4, default
symmetry c1  #important for SAPT in psi4, default
}

set PROPERTIES_ORIGIN ["COM"]
properties('MP2/aug-cc-pvtz', properties = ['dipole'])
--------------------------------------------------------------------------

    Molecular point group: c1
  Charge       = -1
  Multiplicity = 1
  Basis Set: AUG-CC-PVTZ
    Blend: AUG-CC-PVTZ
  Basis Set: (AUG-CC-PVTZ AUX)
    Blend: AUG-CC-PVTZ-JKFIT

    Orbital Energies [Eh]
    ---------------------

    Doubly Occupied:

       1A    -79.879776     2A    -20.404877     3A    -20.402315
       4A    -20.313573     5A    -20.292703     6A    -11.143480
       7A    -11.103028     8A     -7.395613     9A     -5.294305
      10A     -5.293691    11A     -5.292218    12A     -1.230857
      13A     -1.178783    14A     -1.110570    15A     -1.041939
      16A     -0.891142    17A     -0.712242    18A     -0.610134
      19A     -0.538934    20A     -0.516243    21A     -0.459832
      22A     -0.448668    23A     -0.427841    24A     -0.420546
      25A     -0.399098    26A     -0.372782    27A     -0.347519
      28A     -0.333255    29A     -0.308878    30A     -0.284185
      31A     -0.275366    32A     -0.238079    33A     -0.229550

  @DF-RHF Final Energy:  -719.75005443055613

   => Energetics <=

    Nuclear Repulsion Energy =            424.5598911724404161
    One-Electron Energy =               -1850.2358524105902688
    Two-Electron Energy =                 705.9259068075936057
    Total Energy =                       -719.7500544305561334
  Basis Set: (AUG-CC-PVTZ AUX)
    Blend: AUG-CC-PVTZ-RI
    Molecular point group: c1

    Geometry (in Angstrom), charge = -1, multiplicity = 1:

       Center              X                  Y                   Z               Mass
    ------------   -----------------  -----------------  -----------------  -----------------
         P           -0.800666215052     0.067271285338    -0.113333188356    30.973761998420
         O            0.738156484948    -0.492474514662    -0.329975188356    15.994914619570
         O           -0.994883515052    -0.139313514662     1.530055811644    15.994914619570
         O           -1.684027515052    -1.026939514662    -0.786844188356    15.994914619570
         O           -0.922103515052     1.488920485338    -0.431107188356    15.994914619570
         C            1.764515484948     0.385178485338     0.169231811644    12.000000000000
         C            3.098204484948    -0.295703514662    -0.046928188356    12.000000000000
         H            1.715160484948     1.342379485338    -0.359014188356     1.007825032230
         H            1.594055484948     0.577402485338     1.235124811644     1.007825032230
         H            3.137242484948    -1.239652514662     0.501320811644     1.007825032230
         H            3.252242484948    -0.499158514662    -1.109225188356     1.007825032230
         H            3.913227484948     0.344348485338     0.305167811644     1.007825032230
         H           -1.468773615052    -0.963188114662     1.737099311644     1.007825032230

  Basis Set: AUG-CC-PVTZ
    Blend: AUG-CC-PVTZ
  Basis Set: (AUG-CC-PVTZ AUX)
    Blend: AUG-CC-PVTZ-JKFIT
	 Reference Energy          =    -719.7500544305561334 [Eh]
	 Singles Energy            =      -0.0000000000000000 [Eh]
	 Same-Spin Energy          =      -0.4147637551323834 [Eh]
	 Opposite-Spin Energy      =      -1.2369494084567429 [Eh]
	 Correlation Energy        =      -1.6517131635891262 [Eh]
	 Total Energy              =    -721.4017675941452126 [Eh]

	 ================> DF-SCS-MP2 Energies <==================
	-----------------------------------------------------------
	 SCS Same-Spin Scale       =       0.3333333333333333 [-]
	 SCS Opposite-Spin Scale   =       1.2000000000000000 [-]
	 SCS Same-Spin Energy      =      -0.1382545850441278 [Eh]
	 SCS Opposite-Spin Energy  =      -1.4843392901480914 [Eh]
	 SCS Correlation Energy    =      -1.6225938751922193 [Eh]
	 SCS Total Energy          =    -721.3726483057483847 [Eh]
	-----------------------------------------------------------

  Dipole Moment: [D]
     X:     5.5037      Y:    -0.5000      Z:     2.8420     Total:     6.2143

*** Psi4 exiting successfully. Buy a developer a beer!
