                               Psi4 1.3.2 release

  ==> Input File <==

--------------------------------------------------------------------------
#psi4
#
memory 32 gb

molecule  {
-1 1
  P       -0.9206940     0.0325050    -0.1379180
  O        0.6509216    -0.4896453    -0.2600979
  O       -1.0045503    -0.1523776     1.5173499
  O       -1.7761100    -1.0113720    -0.8028300
  O       -1.0141860     1.5044880    -0.4470930
  C        1.6724330     0.4007460     0.1532460
  C        3.0061220    -0.2801360    -0.0629140
  H        1.6230780     1.3579470    -0.3750000
  H        1.5019730     0.5929700     1.2191390
  H        3.0451600    -1.2240850     0.4853350
  H        3.1601600    -0.4835910    -1.1252110
  H        3.8211450     0.3599160     0.2891820
  H       -1.5629250    -0.9540910     1.6878470
units angstrom
no_reorient  #important for SAPT in psi4, default
symmetry c1  #important for SAPT in psi4, default
}

set PROPERTIES_ORIGIN ["COM"]
properties('MP2/aug-cc-pvtz', properties = ['dipole'])
--------------------------------------------------------------------------

    Molecular point group: c1
  Charge       = -1
  Multiplicity = 1
  Basis Set: AUG-CC-PVTZ
    Blend: AUG-CC-PVTZ
  Basis Set: (AUG-CC-PVTZ AUX)
    Blend: AUG-CC-PVTZ-JKFIT

    Orbital Energies [Eh]
    ---------------------

    Doubly Occupied:

       1A    -79.881428     2A    -20.402994     3A    -20.394652
       4A    -20.310181     5A    -20.308698     6A    -11.135992
       7A    -11.098219     8A     -7.396992     9A     -5.295950
      10A     -5.294835    11A     -5.293680    12A     -1.230365
      13A     -1.173765    14A     -1.100956    15A     -1.064780
      16A     -0.885418    17A     -0.707968    18A     -0.603932
      19A     -0.531447    20A     -0.508156    21A     -0.466885
      22A     -0.442809    23A     -0.426815    24A     -0.420118
      25A     -0.396351    26A     -0.365399    27A     -0.357538
      28A     -0.326178    29A     -0.296500    30A     -0.288752
      31A     -0.268525    32A     -0.255564    33A     -0.241680

  @DF-RHF Final Energy:  -719.75352441456300

   => Energetics <=

    Nuclear Repulsion Energy =            425.1953384152232047
    One-Electron Energy =               -1851.5506824574561051
    Two-Electron Energy =                 706.6018196276698973
    Total Energy =                       -719.7535244145630031
  Basis Set: (AUG-CC-PVTZ AUX)
    Blend: AUG-CC-PVTZ-RI
    Molecular point group: c1

    Geometry (in Angstrom), charge = -1, multiplicity = 1:

       Center              X                  Y                   Z               Mass
    ------------   -----------------  -----------------  -----------------  -----------------
         P           -0.832836405504     0.034755482029    -0.130939877510    30.973761998420
         O            0.738779194496    -0.487394817971    -0.253119777510    15.994914619570
         O           -0.916692705504    -0.150127117971     1.524328022490    15.994914619570
         O           -1.688252405504    -1.009121517971    -0.795851877510    15.994914619570
         O           -0.926328405504     1.506738482029    -0.440114877510    15.994914619570
         C            1.760290594496     0.402996482029     0.160224122490    12.000000000000
         C            3.093979594496    -0.277885517971    -0.055935877510    12.000000000000
         H            1.710935594496     1.360197482029    -0.368021877510     1.007825032230
         H            1.589830594496     0.595220482029     1.226117122490     1.007825032230
         H            3.133017594496    -1.221834517971     0.492313122490     1.007825032230
         H            3.248017594496    -0.481340517971    -1.118232877510     1.007825032230
         H            3.909002594496     0.362166482029     0.296160122490     1.007825032230
         H           -1.475067405504    -0.951840517971     1.694825122490     1.007825032230

  Basis Set: AUG-CC-PVTZ
    Blend: AUG-CC-PVTZ
  Basis Set: (AUG-CC-PVTZ AUX)
    Blend: AUG-CC-PVTZ-JKFIT
	 Reference Energy          =    -719.7535244145630031 [Eh]
	 Singles Energy            =      -0.0000000000000000 [Eh]
	 Same-Spin Energy          =      -0.4150986269224824 [Eh]
	 Opposite-Spin Energy      =      -1.2372070808749687 [Eh]
	 Correlation Energy        =      -1.6523057077974510 [Eh]
	 Total Energy              =    -721.4058301223604985 [Eh]

	 ================> DF-SCS-MP2 Energies <==================
	-----------------------------------------------------------
	 SCS Same-Spin Scale       =       0.3333333333333333 [-]
	 SCS Opposite-Spin Scale   =       1.2000000000000000 [-]
	 SCS Same-Spin Energy      =      -0.1383662089741608 [Eh]
	 SCS Opposite-Spin Energy  =      -1.4846484970499623 [Eh]
	 SCS Correlation Energy    =      -1.6230147060241231 [Eh]
	 SCS Total Energy          =    -721.3765391205871538 [Eh]
	-----------------------------------------------------------

  Dipole Moment: [D]
     X:     4.8269      Y:    -1.0381      Z:     2.5228     Total:     5.5445

*** Psi4 exiting successfully. Buy a developer a beer!
