                               Psi4 1.3.2 release

  ==> Input File <==

--------------------------------------------------------------------------
#psi4
#
memory 32 gb

molecule  {
-1 1
  P       -0.9206940     0.0325050    -0.1379180
  O        0.6460740    -0.4769070    -0.3459610
  O       -1.0969363    -0.1331154     1.6131296
  O       -1.7761100    -1.0113720    -0.8028300
  O       -1.0141860     1.5044880    -0.4470930
  C        1.6724330     0.4007460     0.1532460
  C        3.0061220    -0.2801360    -0.0629140
  H        1.6230780     1.3579470    -0.3750000
  H        1.5019730     0.5929700     1.2191390
  H        3.0451600    -1.2240850     0.4853350
  H        3.1601600    -0.4835910    -1.1252110
  H        3.8211450     0.3599160     0.2891820
  H       -1.5629250    -0.9540910     1.6878470
units angstrom
no_reorient  #important for SAPT in psi4, default
symmetry c1  #important for SAPT in psi4, default
}

set PROPERTIES_ORIGIN ["COM"]
properties('MP2/aug-cc-pvtz', properties = ['dipole'])
--------------------------------------------------------------------------

    Molecular point group: c1
  Charge       = -1
  Multiplicity = 1
  Basis Set: AUG-CC-PVTZ
    Blend: AUG-CC-PVTZ
  Basis Set: (AUG-CC-PVTZ AUX)
    Blend: AUG-CC-PVTZ-JKFIT

    Orbital Energies [Eh]
    ---------------------

    Doubly Occupied:

       1A    -79.890883     2A    -20.407092     3A    -20.398519
       4A    -20.314545     5A    -20.312178     6A    -11.143136
       7A    -11.102760     8A     -7.405288     9A     -5.303961
      10A     -5.303196    11A     -5.301866    12A     -1.223978
      13A     -1.169263    14A     -1.104366    15A     -1.067953
      16A     -0.890992    17A     -0.712045    18A     -0.596242
      19A     -0.527881    20A     -0.509926    21A     -0.464864
      22A     -0.447507    23A     -0.426874    24A     -0.420624
      25A     -0.394695    26A     -0.367352    27A     -0.357114
      28A     -0.329986    29A     -0.305907    30A     -0.289922
      31A     -0.271020    32A     -0.259336    33A     -0.245618

  @DF-RHF Final Energy:  -719.74863387146547

   => Energetics <=

    Nuclear Repulsion Energy =            420.7149198656080671
    One-Electron Energy =               -1842.3933327490672127
    Two-Electron Energy =                 701.9297790119937872
    Total Energy =                       -719.7486338714654721
  Basis Set: (AUG-CC-PVTZ AUX)
    Blend: AUG-CC-PVTZ-RI
    Molecular point group: c1

    Geometry (in Angstrom), charge = -1, multiplicity = 1:

       Center              X                  Y                   Z               Mass
    ------------   -----------------  -----------------  -----------------  -----------------
         P           -0.820394497358     0.030660732050    -0.132208795110    30.973761998420
         O            0.746373502642    -0.478751267950    -0.340251795110    15.994914619570
         O           -0.996636797358    -0.134959667950     1.618838804890    15.994914619570
         O           -1.675810497358    -1.013216267950    -0.797120795110    15.994914619570
         O           -0.913886497358     1.502643732050    -0.441383795110    15.994914619570
         C            1.772732502642     0.398901732050     0.158955204890    12.000000000000
         C            3.106421502642    -0.281980267950    -0.057204795110    12.000000000000
         H            1.723377502642     1.356102732050    -0.369290795110     1.007825032230
         H            1.602272502642     0.591125732050     1.224848204890     1.007825032230
         H            3.145459502642    -1.225929267950     0.491044204890     1.007825032230
         H            3.260459502642    -0.485435267950    -1.119501795110     1.007825032230
         H            3.921444502642     0.358071732050     0.294891204890     1.007825032230
         H           -1.462625497358    -0.955935267950     1.693556204890     1.007825032230

  Basis Set: AUG-CC-PVTZ
    Blend: AUG-CC-PVTZ
  Basis Set: (AUG-CC-PVTZ AUX)
    Blend: AUG-CC-PVTZ-JKFIT
	 Reference Energy          =    -719.7486338714654721 [Eh]
	 Singles Energy            =      -0.0000000000000000 [Eh]
	 Same-Spin Energy          =      -0.4154784100218106 [Eh]
	 Opposite-Spin Energy      =      -1.2395643071545588 [Eh]
	 Correlation Energy        =      -1.6550427171763693 [Eh]
	 Total Energy              =    -721.4036765886418152 [Eh]

	 ================> DF-SCS-MP2 Energies <==================
	-----------------------------------------------------------
	 SCS Same-Spin Scale       =       0.3333333333333333 [-]
	 SCS Opposite-Spin Scale   =       1.2000000000000000 [-]
	 SCS Same-Spin Energy      =      -0.1384928033406035 [Eh]
	 SCS Opposite-Spin Energy  =      -1.4874771685854704 [Eh]
	 SCS Correlation Energy    =      -1.6259699719260738 [Eh]
	 SCS Total Energy          =    -721.3746038433915828 [Eh]
	-----------------------------------------------------------

  Dipole Moment: [D]
     X:     5.2583      Y:    -1.0030      Z:     2.0928     Total:     5.7477

*** Psi4 exiting successfully. Buy a developer a beer!
