                               Psi4 1.3.2 release

  ==> Input File <==

--------------------------------------------------------------------------
#psi4
#
memory 32 gb

molecule  {
-1 1
  P       -0.9206940     0.0325050    -0.1379180
  O        0.6207375    -0.5568193    -0.3229322
  O       -1.0869660    -0.1237460     1.5140700
  O       -1.7761100    -1.0113720    -0.8028300
  O       -1.0912360     1.5009675    -0.4304880
  C        1.6724330     0.4007460     0.1532460
  C        3.0061220    -0.2801360    -0.0629140
  H        1.6230780     1.3579470    -0.3750000
  H        1.5019730     0.5929700     1.2191390
  H        3.0451600    -1.2240850     0.4853350
  H        3.1601600    -0.4835910    -1.1252110
  H        3.8211450     0.3599160     0.2891820
  H       -1.5629250    -0.9540910     1.6878470
units angstrom
no_reorient  #important for SAPT in psi4, default
symmetry c1  #important for SAPT in psi4, default
}

set PROPERTIES_ORIGIN ["COM"]
properties('MP2/aug-cc-pvtz', properties = ['dipole'])
--------------------------------------------------------------------------

    Molecular point group: c1
  Charge       = -1
  Multiplicity = 1
  Basis Set: AUG-CC-PVTZ
    Blend: AUG-CC-PVTZ
  Basis Set: (AUG-CC-PVTZ AUX)
    Blend: AUG-CC-PVTZ-JKFIT

    Orbital Energies [Eh]
    ---------------------

    Doubly Occupied:

       1A    -79.877117     2A    -20.407418     3A    -20.399519
       4A    -20.307072     5A    -20.296965     6A    -11.149650
       7A    -11.105581     8A     -7.392866     9A     -5.291650
      10A     -5.290803    11A     -5.289514    12A     -1.220915
      13A     -1.169270    14A     -1.094305    15A     -1.057432
      16A     -0.894433    17A     -0.712195    18A     -0.600819
      19A     -0.529855    20A     -0.511213    21A     -0.461028
      22A     -0.443231    23A     -0.426280    24A     -0.417169
      25A     -0.395183    26A     -0.373370    27A     -0.349432
      28A     -0.332844    29A     -0.310801    30A     -0.283449
      31A     -0.264927    32A     -0.248327    33A     -0.233806

  @DF-RHF Final Energy:  -719.74813141127515

   => Energetics <=

    Nuclear Repulsion Energy =            422.9493921903339242
    One-Electron Energy =               -1847.1181740638537576
    Two-Electron Energy =                 704.4206504622447937
    Total Energy =                       -719.7481314112751534
  Basis Set: (AUG-CC-PVTZ AUX)
    Blend: AUG-CC-PVTZ-RI
    Molecular point group: c1

    Geometry (in Angstrom), charge = -1, multiplicity = 1:

       Center              X                  Y                   Z               Mass
    ------------   -----------------  -----------------  -----------------  -----------------
         P           -0.808569018597     0.040137806022    -0.124604732881    30.973761998420
         O            0.732862481403    -0.549186493978    -0.309618932881    15.994914619570
         O           -0.974841018597    -0.116113193978     1.527383267119    15.994914619570
         O           -1.663985018597    -1.003739193978    -0.789516732881    15.994914619570
         O           -0.979111018597     1.508600306022    -0.417174732881    15.994914619570
         C            1.784557981403     0.408378806022     0.166559267119    12.000000000000
         C            3.118246981403    -0.272503193978    -0.049600732881    12.000000000000
         H            1.735202981403     1.365579806022    -0.361686732881     1.007825032230
         H            1.614097981403     0.600602806022     1.232452267119     1.007825032230
         H            3.157284981403    -1.216452193978     0.498648267119     1.007825032230
         H            3.272284981403    -0.475958193978    -1.111897732881     1.007825032230
         H            3.933269981403     0.367548806022     0.302495267119     1.007825032230
         H           -1.450800018597    -0.946458193978     1.701160267119     1.007825032230

  Basis Set: AUG-CC-PVTZ
    Blend: AUG-CC-PVTZ
  Basis Set: (AUG-CC-PVTZ AUX)
    Blend: AUG-CC-PVTZ-JKFIT
	 Reference Energy          =    -719.7481314112751534 [Eh]
	 Singles Energy            =      -0.0000000000000000 [Eh]
	 Same-Spin Energy          =      -0.4151835753151653 [Eh]
	 Opposite-Spin Energy      =      -1.2387123164301763 [Eh]
	 Correlation Energy        =      -1.6538958917453415 [Eh]
	 Total Energy              =    -721.4020273030205317 [Eh]

	 ================> DF-SCS-MP2 Energies <==================
	-----------------------------------------------------------
	 SCS Same-Spin Scale       =       0.3333333333333333 [-]
	 SCS Opposite-Spin Scale   =       1.2000000000000000 [-]
	 SCS Same-Spin Energy      =      -0.1383945251050551 [Eh]
	 SCS Opposite-Spin Energy  =      -1.4864547797162115 [Eh]
	 SCS Correlation Energy    =      -1.6248493048212667 [Eh]
	 SCS Total Energy          =    -721.3729807160964356 [Eh]
	-----------------------------------------------------------

  Dipole Moment: [D]
     X:     5.5796      Y:    -0.8840      Z:     2.6468     Total:     6.2385

*** Psi4 exiting successfully. Buy a developer a beer!
