                               Psi4 1.4a3.dev225

  ==> Input File <==

--------------------------------------------------------------------------
#psi4
#
memory 32 gb

molecule  {
-1 1
  P       -0.9277810     0.0961130     0.0976350
  O        0.6463760     0.5937280    -0.0402780
  O       -1.0769050    -0.8632740    -1.2547320
  O       -1.7527520     1.3345500    -0.1191100
  O       -1.0827680    -0.7945940     1.3071650
  C        1.6473054    -0.3966158     0.1272412
  C        3.0075080     0.2459920    -0.0890990
  H        1.5881620    -0.8381400     1.1347230
  H        1.5022440    -1.2178370    -0.5954040
  H        3.0701330     0.6620790    -1.0974680
  H        3.1582490     1.0535750     0.6314230
  H        3.8108830    -0.4860100     0.0361070
  H       -1.0981360    -1.7910910    -0.9612950
units angstrom
no_reorient  #important for SAPT in psi4, default
symmetry c1  #important for SAPT in psi4, default
}

set PROPERTIES_ORIGIN ["COM"]
properties('MP2/aug-cc-pvtz', properties = ['dipole'])
--------------------------------------------------------------------------

    Molecular point group: c1
  Charge       = -1
  Multiplicity = 1
  Basis Set: AUG-CC-PVTZ
    Blend: AUG-CC-PVTZ
  Basis Set: (AUG-CC-PVTZ AUX)
    Blend: AUG-CC-PVTZ-JKFIT

    Orbital Energies [Eh]
    ---------------------

    Doubly Occupied:

       1A    -79.881379     2A    -20.408153     3A    -20.404456
       4A    -20.311678     5A    -20.298051     6A    -11.146225
       7A    -11.103264     8A     -7.396902     9A     -5.295742
      10A     -5.294919    11A     -5.293493    12A     -1.235116
      13A     -1.185036    14A     -1.098485    15A     -1.060043
      16A     -0.889598    17A     -0.713145    18A     -0.608134
      19A     -0.539811    20A     -0.516928    21A     -0.471961
      22A     -0.450628    23A     -0.428239    24A     -0.421027
      25A     -0.394865    26A     -0.376503    27A     -0.344541
      28A     -0.335489    29A     -0.307335    30A     -0.285644
      31A     -0.267816    32A     -0.251091    33A     -0.236647

  @DF-RHF Final Energy:  -719.75560981635681

   => Energetics <=

    Nuclear Repulsion Energy =            424.7886266611047290
    One-Electron Energy =               -1850.5837866102560838
    Two-Electron Energy =                 706.0395501327946022
    Total Energy =                       -719.7556098163568095
  Basis Set: (AUG-CC-PVTZ AUX)
    Blend: AUG-CC-PVTZ-RI
    Molecular point group: c1

    Geometry (in Angstrom), charge = -1, multiplicity = 1:

       Center              X                  Y                   Z               Mass
    ------------   -----------------  -----------------  -----------------  -----------------
         P           -0.823832509606     0.073258867594     0.090334915207    30.973761998420
         O            0.750324490394     0.570873867594    -0.047578084793    15.994914619570
         O           -0.972956509606    -0.886128132406    -1.262032084793    15.994914619570
         O           -1.648803509606     1.311695867594    -0.126410084793    15.994914619570
         O           -0.978819509606    -0.817448132406     1.299864915207    15.994914619570
         C            1.751253890394    -0.419469932406     0.119941115207    12.000000000000
         C            3.111456490394     0.223137867594    -0.096399084793    12.000000000000
         H            1.692110490394    -0.860994132406     1.127422915207     1.007825032230
         H            1.606192490394    -1.240691132406    -0.602704084793     1.007825032230
         H            3.174081490394     0.639224867594    -1.104768084793     1.007825032230
         H            3.262197490394     1.030720867594     0.624122915207     1.007825032230
         H            3.914831490394    -0.508864132406     0.028806915207     1.007825032230
         H           -0.994187509606    -1.813945132406    -0.968595084793     1.007825032230

  Basis Set: AUG-CC-PVTZ
    Blend: AUG-CC-PVTZ
  Basis Set: (AUG-CC-PVTZ AUX)
    Blend: AUG-CC-PVTZ-JKFIT
	 Reference Energy          =    -719.7556098163568095 [Eh]
	 Singles Energy            =      -0.0000000000000000 [Eh]
	 Same-Spin Energy          =      -0.4148298465332735 [Eh]
	 Opposite-Spin Energy      =      -1.2368152432994839 [Eh]
	 Correlation Energy        =      -1.6516450898327575 [Eh]
	 Total Energy              =    -721.4072549061895643 [Eh]

	 ================> DF-SCS-MP2 Energies <==================
	-----------------------------------------------------------
	 SCS Same-Spin Scale       =       0.3333333333333333 [-]
	 SCS Opposite-Spin Scale   =       1.2000000000000000 [-]
	 SCS Same-Spin Energy      =      -0.1382766155110912 [Eh]
	 SCS Opposite-Spin Energy  =      -1.4841782919593807 [Eh]
	 SCS Correlation Energy    =      -1.6224549074704717 [Eh]
	 SCS Total Energy          =    -721.3780647238272650 [Eh]
	-----------------------------------------------------------

  Dipole Moment: [D]
     X:     5.7759      Y:    -2.9593      Z:    -1.3728     Total:     6.6334

*** Psi4 exiting successfully. Buy a developer a beer!
