                               Psi4 1.4a3.dev225

  ==> Input File <==

--------------------------------------------------------------------------
#psi4
#
memory 32 gb

molecule  {
-1 1
  P       -0.9277810     0.0961130     0.0976350
  O        0.6463760     0.5937280    -0.0402780
  O       -1.0769050    -0.8632740    -1.2547320
  O       -1.7527520     1.3345500    -0.1191100
  O       -1.0776363    -0.7651020     1.2671165
  C        1.6614230    -0.4105840     0.1296040
  C        3.0075080     0.2459920    -0.0890990
  H        1.5881620    -0.8381400     1.1347230
  H        1.5022440    -1.2178370    -0.5954040
  H        3.0701330     0.6620790    -1.0974680
  H        3.1582490     1.0535750     0.6314230
  H        3.8108830    -0.4860100     0.0361070
  H       -1.0981360    -1.7910910    -0.9612950
units angstrom
no_reorient  #important for SAPT in psi4, default
symmetry c1  #important for SAPT in psi4, default
}

set PROPERTIES_ORIGIN ["COM"]
properties('MP2/aug-cc-pvtz', properties = ['dipole'])
--------------------------------------------------------------------------

    Molecular point group: c1
  Charge       = -1
  Multiplicity = 1
  Basis Set: AUG-CC-PVTZ
    Blend: AUG-CC-PVTZ
  Basis Set: (AUG-CC-PVTZ AUX)
    Blend: AUG-CC-PVTZ-JKFIT

    Orbital Energies [Eh]
    ---------------------

    Doubly Occupied:

       1A    -79.870198     2A    -20.403512     3A    -20.398936
       4A    -20.308871     5A    -20.292477     6A    -11.144970
       7A    -11.103064     8A     -7.387846     9A     -5.286417
      10A     -5.285871    11A     -5.284611    12A     -1.230500
      13A     -1.178522    14A     -1.110778    15A     -1.060659
      16A     -0.890911    17A     -0.712792    18A     -0.602352
      19A     -0.535380    20A     -0.516215    21A     -0.469345
      22A     -0.448037    23A     -0.427785    24A     -0.418431
      25A     -0.396296    26A     -0.378243    27A     -0.344309
      28A     -0.336382    29A     -0.308665    30A     -0.289371
      31A     -0.272042    32A     -0.248176    33A     -0.235698

  @DF-RHF Final Energy:  -719.75669383631941

   => Energetics <=

    Nuclear Repulsion Energy =            426.6355019365782368
    One-Electron Energy =               -1854.4290743242615918
    Two-Electron Energy =                 708.0368785513638841
    Total Energy =                       -719.7566938363194140
  Basis Set: (AUG-CC-PVTZ AUX)
    Blend: AUG-CC-PVTZ-RI
    Molecular point group: c1

    Geometry (in Angstrom), charge = -1, multiplicity = 1:

       Center              X                  Y                   Z               Mass
    ------------   -----------------  -----------------  -----------------  -----------------
         P           -0.825844442067     0.070826045833     0.095232650588    30.973761998420
         O            0.748312557933     0.568441045833    -0.042680349412    15.994914619570
         O           -0.974968442067    -0.888560954167    -1.257134349412    15.994914619570
         O           -1.650815442067     1.309263045833    -0.121512349412    15.994914619570
         O           -0.975699742067    -0.790388954167     1.264714150588    15.994914619570
         C            1.763359557933    -0.435870954167     0.127201650588    12.000000000000
         C            3.109444557933     0.220705045833    -0.091501349412    12.000000000000
         H            1.690098557933    -0.863426954167     1.132320650588     1.007825032230
         H            1.604180557933    -1.243123954167    -0.597806349412     1.007825032230
         H            3.172069557933     0.636792045833    -1.099870349412     1.007825032230
         H            3.260185557933     1.028288045833     0.629020650588     1.007825032230
         H            3.912819557933    -0.511296954167     0.033704650588     1.007825032230
         H           -0.996199442067    -1.816377954167    -0.963697349412     1.007825032230

  Basis Set: AUG-CC-PVTZ
    Blend: AUG-CC-PVTZ
  Basis Set: (AUG-CC-PVTZ AUX)
    Blend: AUG-CC-PVTZ-JKFIT
	 Reference Energy          =    -719.7566938363194140 [Eh]
	 Singles Energy            =      -0.0000000000000000 [Eh]
	 Same-Spin Energy          =      -0.4138392055531607 [Eh]
	 Opposite-Spin Energy      =      -1.2345145236733188 [Eh]
	 Correlation Energy        =      -1.6483537292264794 [Eh]
	 Total Energy              =    -721.4050475655459422 [Eh]

	 ================> DF-SCS-MP2 Energies <==================
	-----------------------------------------------------------
	 SCS Same-Spin Scale       =       0.3333333333333333 [-]
	 SCS Opposite-Spin Scale   =       1.2000000000000000 [-]
	 SCS Same-Spin Energy      =      -0.1379464018510536 [Eh]
	 SCS Opposite-Spin Energy  =      -1.4814174284079826 [Eh]
	 SCS Correlation Energy    =      -1.6193638302590361 [Eh]
	 SCS Total Energy          =    -721.3760576665785038 [Eh]
	-----------------------------------------------------------

  Dipole Moment: [D]
     X:     5.8080      Y:    -3.1628      Z:    -1.1293     Total:     6.7090

*** Psi4 exiting successfully. Buy a developer a beer!
