                               Psi4 1.3.2 release

  ==> Input File <==

--------------------------------------------------------------------------
#psi4
#
memory 32 gb

molecule  {
-1 1
  P       -0.8788627     0.1079151    -0.1242679
  O        0.6460740    -0.4769070    -0.3459610
  O       -1.0869660    -0.1237460     1.5140700
  O       -1.7761100    -1.0113720    -0.8028300
  O       -1.0141860     1.5044880    -0.4470930
  C        1.6724330     0.4007460     0.1532460
  C        3.0061220    -0.2801360    -0.0629140
  H        1.6230780     1.3579470    -0.3750000
  H        1.5019730     0.5929700     1.2191390
  H        3.0451600    -1.2240850     0.4853350
  H        3.1601600    -0.4835910    -1.1252110
  H        3.8211450     0.3599160     0.2891820
  H       -1.5596050    -0.9440084     1.7376547
units angstrom
no_reorient  #important for SAPT in psi4, default
symmetry c1  #important for SAPT in psi4, default
}

set PROPERTIES_ORIGIN ["COM"]
properties('MP2/aug-cc-pvtz', properties = ['dipole'])
--------------------------------------------------------------------------

    Molecular point group: c1
  Charge       = -1
  Multiplicity = 1
  Basis Set: AUG-CC-PVTZ
    Blend: AUG-CC-PVTZ
  Basis Set: (AUG-CC-PVTZ AUX)
    Blend: AUG-CC-PVTZ-JKFIT

    Orbital Energies [Eh]
    ---------------------

    Doubly Occupied:

       1A    -79.879229     2A    -20.406938     3A    -20.400973
       4A    -20.318119     5A    -20.286416     6A    -11.144946
       7A    -11.104043     8A     -7.395613     9A     -5.294176
      10A     -5.293767    11A     -5.292160    12A     -1.233040
      13A     -1.178687    14A     -1.122285    15A     -1.027532
      16A     -0.892304    17A     -0.713575    18A     -0.612583
      19A     -0.541256    20A     -0.517909    21A     -0.458367
      22A     -0.451047    23A     -0.428740    24A     -0.420239
      25A     -0.401636    26A     -0.374012    27A     -0.346556
      28A     -0.336279    29A     -0.311259    30A     -0.282888
      31A     -0.282324    32A     -0.227995    33A     -0.222283

  @DF-RHF Final Energy:  -719.74242960274614

   => Energetics <=

    Nuclear Repulsion Energy =            424.7508587724158815
    One-Electron Energy =               -1850.5882282126167411
    Two-Electron Energy =                 706.0949398374546035
    Total Energy =                       -719.7424296027461423
  Basis Set: (AUG-CC-PVTZ AUX)
    Blend: AUG-CC-PVTZ-RI
    Molecular point group: c1

    Geometry (in Angstrom), charge = -1, multiplicity = 1:

       Center              X                  Y                   Z               Mass
    ------------   -----------------  -----------------  -----------------  -----------------
         P           -0.790231105211     0.086104821341    -0.109667061887    30.973761998420
         O            0.734705594789    -0.498717278659    -0.331360161887    15.994914619570
         O           -0.998334405211    -0.145556278659     1.528670838113    15.994914619570
         O           -1.687478405211    -1.033182278659    -0.788229161887    15.994914619570
         O           -0.925554405211     1.482677721341    -0.432492161887    15.994914619570
         C            1.761064594789     0.378935721341     0.167846838113    12.000000000000
         C            3.094753594789    -0.301946278659    -0.048313161887    12.000000000000
         H            1.711709594789     1.336136721341    -0.360399161887     1.007825032230
         H            1.590604594789     0.571159721341     1.233739838113     1.007825032230
         H            3.133791594789    -1.245895278659     0.499935838113     1.007825032230
         H            3.248791594789    -0.505401278659    -1.110610161887     1.007825032230
         H            3.909776594789     0.338105721341     0.303782838113     1.007825032230
         H           -1.470973405211    -0.965818678659     1.752255538113     1.007825032230

  Basis Set: AUG-CC-PVTZ
    Blend: AUG-CC-PVTZ
  Basis Set: (AUG-CC-PVTZ AUX)
    Blend: AUG-CC-PVTZ-JKFIT
	 Reference Energy          =    -719.7424296027461423 [Eh]
	 Singles Energy            =      -0.0000000000000000 [Eh]
	 Same-Spin Energy          =      -0.4148072080896050 [Eh]
	 Opposite-Spin Energy      =      -1.2370958727453907 [Eh]
	 Correlation Energy        =      -1.6519030808349957 [Eh]
	 Total Energy              =    -721.3943326835811831 [Eh]

	 ================> DF-SCS-MP2 Energies <==================
	-----------------------------------------------------------
	 SCS Same-Spin Scale       =       0.3333333333333333 [-]
	 SCS Opposite-Spin Scale   =       1.2000000000000000 [-]
	 SCS Same-Spin Energy      =      -0.1382690693632017 [Eh]
	 SCS Opposite-Spin Energy  =      -1.4845150472944688 [Eh]
	 SCS Correlation Energy    =      -1.6227841166576704 [Eh]
	 SCS Total Energy          =    -721.3652137194038687 [Eh]
	-----------------------------------------------------------

  Dipole Moment: [D]
     X:     5.6985      Y:    -0.1992      Z:     2.9238     Total:     6.4079

*** Psi4 exiting successfully. Buy a developer a beer!
