                               Psi4 1.3.2 release

  ==> Input File <==

--------------------------------------------------------------------------
#psi4
#
memory 32 gb

molecule  {
-1 1
  P       -0.9471980    -0.0404012    -0.1771668
  O        0.6460740    -0.4769070    -0.3459610
  O       -1.0869660    -0.1237460     1.5140700
  O       -1.7761100    -1.0113720    -0.8028300
  O       -1.0141860     1.5044880    -0.4470930
  C        1.7238096     0.3511289     0.1291576
  C        3.0061220    -0.2801360    -0.0629140
  H        1.6230780     1.3579470    -0.3750000
  H        1.5019730     0.5929700     1.2191390
  H        3.0451600    -1.2240850     0.4853350
  H        3.1601600    -0.4835910    -1.1252110
  H        3.8211450     0.3599160     0.2891820
  H       -1.5629250    -0.9540910     1.6878470
units angstrom
no_reorient  #important for SAPT in psi4, default
symmetry c1  #important for SAPT in psi4, default
}

set PROPERTIES_ORIGIN ["COM"]
properties('MP2/aug-cc-pvtz', properties = ['dipole'])
--------------------------------------------------------------------------

    Molecular point group: c1
  Charge       = -1
  Multiplicity = 1
  Basis Set: AUG-CC-PVTZ
    Blend: AUG-CC-PVTZ
  Basis Set: (AUG-CC-PVTZ AUX)
    Blend: AUG-CC-PVTZ-JKFIT

    Orbital Energies [Eh]
    ---------------------

    Doubly Occupied:

       1A    -79.878692     2A    -20.399500     3A    -20.396277
       4A    -20.322657     5A    -20.292010     6A    -11.141875
       7A    -11.099008     8A     -7.395562     9A     -5.294089
      10A     -5.293853    11A     -5.292006    12A     -1.224504
      13A     -1.171094    14A     -1.131161    15A     -1.038700
      16A     -0.905186    17A     -0.701000    18A     -0.595163
      19A     -0.527298    20A     -0.507571    21A     -0.472147
      22A     -0.448966    23A     -0.430716    24A     -0.423885
      25A     -0.392963    26A     -0.370071    27A     -0.357990
      28A     -0.323760    29A     -0.300230    30A     -0.287907
      31A     -0.284201    32A     -0.234047    33A     -0.231591

  @DF-RHF Final Energy:  -719.73646549003968

   => Energetics <=

    Nuclear Repulsion Energy =            423.7829557545827015
    One-Electron Energy =               -1848.7074794656107315
    Two-Electron Energy =                 705.1880582209884096
    Total Energy =                       -719.7364654900396772
  Basis Set: (AUG-CC-PVTZ AUX)
    Blend: AUG-CC-PVTZ-RI
    Molecular point group: c1

    Geometry (in Angstrom), charge = -1, multiplicity = 1:

       Center              X                  Y                   Z               Mass
    ------------   -----------------  -----------------  -----------------  -----------------
         P           -0.846539016098    -0.020615758219    -0.146744119321    30.973761998420
         O            0.746732983902    -0.457121558219    -0.315538319321    15.994914619570
         O           -0.986307016098    -0.103960558219     1.544492680679    15.994914619570
         O           -1.675451016098    -0.991586558219    -0.772407319321    15.994914619570
         O           -0.913527016098     1.524273441781    -0.416670319321    15.994914619570
         C            1.824468583902     0.370914341781     0.159580280679    12.000000000000
         C            3.106780983902    -0.260350558219    -0.032491319321    12.000000000000
         H            1.723736983902     1.377732441781    -0.344577319321     1.007825032230
         H            1.602631983902     0.612755441781     1.249561680679     1.007825032230
         H            3.145818983902    -1.204299558219     0.515757680679     1.007825032230
         H            3.260818983902    -0.463805558219    -1.094788319321     1.007825032230
         H            3.921803983902     0.379701441781     0.319604680679     1.007825032230
         H           -1.462266016098    -0.934305558219     1.718269680679     1.007825032230

  Basis Set: AUG-CC-PVTZ
    Blend: AUG-CC-PVTZ
  Basis Set: (AUG-CC-PVTZ AUX)
    Blend: AUG-CC-PVTZ-JKFIT
	 Reference Energy          =    -719.7364654900396772 [Eh]
	 Singles Energy            =      -0.0000000000000000 [Eh]
	 Same-Spin Energy          =      -0.4151372528559037 [Eh]
	 Opposite-Spin Energy      =      -1.2373614719017236 [Eh]
	 Correlation Energy        =      -1.6524987247576273 [Eh]
	 Total Energy              =    -721.3889642147972836 [Eh]

	 ================> DF-SCS-MP2 Energies <==================
	-----------------------------------------------------------
	 SCS Same-Spin Scale       =       0.3333333333333333 [-]
	 SCS Opposite-Spin Scale   =       1.2000000000000000 [-]
	 SCS Same-Spin Energy      =      -0.1383790842853012 [Eh]
	 SCS Opposite-Spin Energy  =      -1.4848337662820683 [Eh]
	 SCS Correlation Energy    =      -1.6232128505673695 [Eh]
	 SCS Total Energy          =    -721.3596783406070472 [Eh]
	-----------------------------------------------------------

  Dipole Moment: [D]
     X:     4.9186      Y:    -2.0287      Z:     2.2499     Total:     5.7767

*** Psi4 exiting successfully. Buy a developer a beer!
