                               Psi4 1.4a3.dev225

  ==> Input File <==

--------------------------------------------------------------------------
#psi4
#
memory 32 gb

molecule  {
-1 1
  P       -0.9277810     0.0961130     0.0976350
  O        0.6273723     0.5877206    -0.0386131
  O       -1.0769050    -0.8632740    -1.2547320
  O       -1.7527520     1.3345500    -0.1191100
  O       -1.0827680    -0.7945940     1.3071650
  C        1.6614230    -0.4105840     0.1296040
  C        3.0075080     0.2459920    -0.0890990
  H        1.5881620    -0.8381400     1.1347230
  H        1.5022440    -1.2178370    -0.5954040
  H        3.0701330     0.6620790    -1.0974680
  H        3.1582490     1.0535750     0.6314230
  H        3.8108830    -0.4860100     0.0361070
  H       -1.0981360    -1.7910910    -0.9612950
units angstrom
no_reorient  #important for SAPT in psi4, default
symmetry c1  #important for SAPT in psi4, default
}

set PROPERTIES_ORIGIN ["COM"]
properties('MP2/aug-cc-pvtz', properties = ['dipole'])
--------------------------------------------------------------------------

    Molecular point group: c1
  Charge       = -1
  Multiplicity = 1
  Basis Set: AUG-CC-PVTZ
    Blend: AUG-CC-PVTZ
  Basis Set: (AUG-CC-PVTZ AUX)
    Blend: AUG-CC-PVTZ-JKFIT

    Orbital Energies [Eh]
    ---------------------

    Doubly Occupied:

       1A    -79.877367     2A    -20.405740     3A    -20.402933
       4A    -20.308820     5A    -20.295162     6A    -11.148594
       7A    -11.105835     8A     -7.393205     9A     -5.292079
      10A     -5.291236    11A     -5.289805    12A     -1.232165
      13A     -1.180545    14A     -1.095225    15A     -1.057535
      16A     -0.894824    17A     -0.716505    18A     -0.605455
      19A     -0.537712    20A     -0.518212    21A     -0.470196
      22A     -0.449587    23A     -0.429105    24A     -0.420932
      25A     -0.393385    26A     -0.377954    27A     -0.343149
      28A     -0.336783    29A     -0.310765    30A     -0.283769
      31A     -0.265605    32A     -0.248277    33A     -0.233898

  @DF-RHF Final Energy:  -719.75544806837945

   => Energetics <=

    Nuclear Repulsion Energy =            424.9326321577242993
    One-Electron Energy =               -1850.9514449701005105
    Two-Electron Energy =                 706.2633647439967035
    Total Energy =                       -719.7554480683794509
  Basis Set: (AUG-CC-PVTZ AUX)
    Blend: AUG-CC-PVTZ-RI
    Molecular point group: c1

    Geometry (in Angstrom), charge = -1, multiplicity = 1:

       Center              X                  Y                   Z               Mass
    ------------   -----------------  -----------------  -----------------  -----------------
         P           -0.822756101926     0.075368511339     0.089895048244    30.973761998420
         O            0.732397198074     0.566976111339    -0.046353051756    15.994914619570
         O           -0.971880101926    -0.884018488661    -1.262471951756    15.994914619570
         O           -1.647727101926     1.313805511339    -0.126849951756    15.994914619570
         O           -0.977743101926    -0.815338488661     1.299425048244    15.994914619570
         C            1.766447898074    -0.431328488661     0.121864048244    12.000000000000
         C            3.112532898074     0.225247511339    -0.096838951756    12.000000000000
         H            1.693186898074    -0.858884488661     1.126983048244     1.007825032230
         H            1.607268898074    -1.238581488661    -0.603143951756     1.007825032230
         H            3.175157898074     0.641334511339    -1.105207951756     1.007825032230
         H            3.263273898074     1.032830511339     0.623683048244     1.007825032230
         H            3.915907898074    -0.506754488661     0.028367048244     1.007825032230
         H           -0.993111101926    -1.811835488661    -0.969034951756     1.007825032230

  Basis Set: AUG-CC-PVTZ
    Blend: AUG-CC-PVTZ
  Basis Set: (AUG-CC-PVTZ AUX)
    Blend: AUG-CC-PVTZ-JKFIT
	 Reference Energy          =    -719.7554480683794509 [Eh]
	 Singles Energy            =      -0.0000000000000000 [Eh]
	 Same-Spin Energy          =      -0.4146473838014928 [Eh]
	 Opposite-Spin Energy      =      -1.2365506119764635 [Eh]
	 Correlation Energy        =      -1.6511979957779563 [Eh]
	 Total Energy              =    -721.4066460641573713 [Eh]

	 ================> DF-SCS-MP2 Energies <==================
	-----------------------------------------------------------
	 SCS Same-Spin Scale       =       0.3333333333333333 [-]
	 SCS Opposite-Spin Scale   =       1.2000000000000000 [-]
	 SCS Same-Spin Energy      =      -0.1382157946004976 [Eh]
	 SCS Opposite-Spin Energy  =      -1.4838607343717563 [Eh]
	 SCS Correlation Energy    =      -1.6220765289722539 [Eh]
	 SCS Total Energy          =    -721.3775245973516803 [Eh]
	-----------------------------------------------------------

  Dipole Moment: [D]
     X:     6.0226      Y:    -2.9872      Z:    -1.3746     Total:     6.8618

*** Psi4 exiting successfully. Buy a developer a beer!
