                               Psi4 1.4a3.dev225

  ==> Input File <==

--------------------------------------------------------------------------
#psi4
#
memory 32 gb

molecule  {
-1 1
  P       -0.9277810     0.0961130     0.0976350
  O        0.5988668     0.5787096    -0.0361157
  O       -1.0769050    -0.8632740    -1.2547320
  O       -1.7527520     1.3345500    -0.1191100
  O       -1.0827680    -0.7945940     1.3071650
  C        1.6614230    -0.4105840     0.1296040
  C        3.0075080     0.2459920    -0.0890990
  H        1.5881620    -0.8381400     1.1347230
  H        1.5022440    -1.2178370    -0.5954040
  H        3.0701330     0.6620790    -1.0974680
  H        3.1582490     1.0535750     0.6314230
  H        3.8108830    -0.4860100     0.0361070
  H       -1.0981360    -1.7910910    -0.9612950
units angstrom
no_reorient  #important for SAPT in psi4, default
symmetry c1  #important for SAPT in psi4, default
}

set PROPERTIES_ORIGIN ["COM"]
properties('MP2/aug-cc-pvtz', properties = ['dipole'])
--------------------------------------------------------------------------

    Molecular point group: c1
  Charge       = -1
  Multiplicity = 1
  Basis Set: AUG-CC-PVTZ
    Blend: AUG-CC-PVTZ
  Basis Set: (AUG-CC-PVTZ AUX)
    Blend: AUG-CC-PVTZ-JKFIT

    Orbital Energies [Eh]
    ---------------------

    Doubly Occupied:

       1A    -79.872929     2A    -20.403225     3A    -20.403080
       4A    -20.305650     5A    -20.292049     6A    -11.152442
       7A    -11.108692     8A     -7.389334     9A     -5.288275
      10A     -5.287381    11A     -5.285907    12A     -1.234867
      13A     -1.179097    14A     -1.092134    15A     -1.054979
      16A     -0.898865    17A     -0.720103    18A     -0.604762
      19A     -0.538244    20A     -0.518886    21A     -0.469531
      22A     -0.450666    23A     -0.431397    24A     -0.423134
      25A     -0.392184    26A     -0.378016    27A     -0.342836
      28A     -0.336528    29A     -0.313137    30A     -0.282048
      31A     -0.263394    32A     -0.245422    33A     -0.230997

  @DF-RHF Final Energy:  -719.75480010484307

   => Energetics <=

    Nuclear Repulsion Energy =            425.7109709357759471
    One-Electron Energy =               -1852.5511550735620858
    Two-Electron Energy =                 707.0853840329430113
    Total Energy =                       -719.7548001048430706
  Basis Set: (AUG-CC-PVTZ AUX)
    Blend: AUG-CC-PVTZ-RI
    Molecular point group: c1

    Geometry (in Angstrom), charge = -1, multiplicity = 1:

       Center              X                  Y                   Z               Mass
    ------------   -----------------  -----------------  -----------------  -----------------
         P           -0.819108568433     0.076521549325     0.089575483594    30.973761998420
         O            0.707539231567     0.559118149325    -0.044175216406    15.994914619570
         O           -0.968232568433    -0.882865450675    -1.262791516406    15.994914619570
         O           -1.644079568433     1.314958549325    -0.127169516406    15.994914619570
         O           -0.974095568433    -0.814185450675     1.299105483594    15.994914619570
         C            1.770095431567    -0.430175450675     0.121544483594    12.000000000000
         C            3.116180431567     0.226400549325    -0.097158516406    12.000000000000
         H            1.696834431567    -0.857731450675     1.126663483594     1.007825032230
         H            1.610916431567    -1.237428450675    -0.603463516406     1.007825032230
         H            3.178805431567     0.642487549325    -1.105527516406     1.007825032230
         H            3.266921431567     1.033983549325     0.623363483594     1.007825032230
         H            3.919555431567    -0.505601450675     0.028047483594     1.007825032230
         H           -0.989463568433    -1.810682450675    -0.969354516406     1.007825032230

  Basis Set: AUG-CC-PVTZ
    Blend: AUG-CC-PVTZ
  Basis Set: (AUG-CC-PVTZ AUX)
    Blend: AUG-CC-PVTZ-JKFIT
	 Reference Energy          =    -719.7548001048430706 [Eh]
	 Singles Energy            =      -0.0000000000000000 [Eh]
	 Same-Spin Energy          =      -0.4143304477365933 [Eh]
	 Opposite-Spin Energy      =      -1.2357893507312943 [Eh]
	 Correlation Energy        =      -1.6501197984678875 [Eh]
	 Total Energy              =    -721.4049199033109971 [Eh]

	 ================> DF-SCS-MP2 Energies <==================
	-----------------------------------------------------------
	 SCS Same-Spin Scale       =       0.3333333333333333 [-]
	 SCS Opposite-Spin Scale   =       1.2000000000000000 [-]
	 SCS Same-Spin Energy      =      -0.1381101492455311 [Eh]
	 SCS Opposite-Spin Energy  =      -1.4829472208775532 [Eh]
	 SCS Correlation Energy    =      -1.6210573701230842 [Eh]
	 SCS Total Energy          =    -721.3758574749662102 [Eh]
	-----------------------------------------------------------

  Dipole Moment: [D]
     X:     6.2653      Y:    -2.9699      Z:    -1.3841     Total:     7.0704

*** Psi4 exiting successfully. Buy a developer a beer!
