                               Psi4 1.3.2 release

  ==> Input File <==

--------------------------------------------------------------------------
#psi4
#
memory 32 gb

molecule  {
-1 1
  P       -0.9206940     0.0325050    -0.1379180
  O        0.6435028    -0.4723488    -0.3744669
  O       -1.1143477    -0.1141031     1.5119697
  O       -1.7761100    -1.0113720    -0.8028300
  O       -1.0141860     1.5044880    -0.4470930
  C        1.6724330     0.4007460     0.1532460
  C        3.0061220    -0.2801360    -0.0629140
  H        1.6230780     1.3579470    -0.3750000
  H        1.5019730     0.5929700     1.2191390
  H        3.0451600    -1.2240850     0.4853350
  H        3.1601600    -0.4835910    -1.1252110
  H        3.8211450     0.3599160     0.2891820
  H       -1.5629250    -0.9540910     1.6878470
units angstrom
no_reorient  #important for SAPT in psi4, default
symmetry c1  #important for SAPT in psi4, default
}

set PROPERTIES_ORIGIN ["COM"]
properties('MP2/aug-cc-pvtz', properties = ['dipole'])
--------------------------------------------------------------------------

    Molecular point group: c1
  Charge       = -1
  Multiplicity = 1
  Basis Set: AUG-CC-PVTZ
    Blend: AUG-CC-PVTZ
  Basis Set: (AUG-CC-PVTZ AUX)
    Blend: AUG-CC-PVTZ-JKFIT

    Orbital Energies [Eh]
    ---------------------

    Doubly Occupied:

       1A    -79.879750     2A    -20.406143     3A    -20.402411
       4A    -20.303558     5A    -20.302875     6A    -11.142116
       7A    -11.101924     8A     -7.395255     9A     -5.293992
      10A     -5.293352    11A     -5.291860    12A     -1.227099
      13A     -1.179841    14A     -1.095628    15A     -1.060027
      16A     -0.889761    17A     -0.710004    18A     -0.605273
      19A     -0.535118    20A     -0.513739    21A     -0.465056
      22A     -0.444312    23A     -0.426619    24A     -0.420884
      25A     -0.394734    26A     -0.372274    27A     -0.353767
      28A     -0.328461    29A     -0.306775    30A     -0.283765
      31A     -0.264724    32A     -0.251274    33A     -0.236681

  @DF-RHF Final Energy:  -719.75584708452368

   => Energetics <=

    Nuclear Repulsion Energy =            423.9039125835755044
    One-Electron Energy =               -1848.9614173784232207
    Two-Electron Energy =                 705.3016577103240934
    Total Energy =                       -719.7558470845236798
  Basis Set: (AUG-CC-PVTZ AUX)
    Blend: AUG-CC-PVTZ-RI
    Molecular point group: c1

    Geometry (in Angstrom), charge = -1, multiplicity = 1:

       Center              X                  Y                   Z               Mass
    ------------   -----------------  -----------------  -----------------  -----------------
         P           -0.817837545093     0.027644675913    -0.115616897110    30.973761998420
         O            0.746359254907    -0.477209124087    -0.352165797110    15.994914619570
         O           -1.011491245093    -0.118963424087     1.534270802890    15.994914619570
         O           -1.673253545093    -1.016232324087    -0.780528897110    15.994914619570
         O           -0.911329545093     1.499627675913    -0.424791897110    15.994914619570
         C            1.775289454907     0.395885675913     0.175547102890    12.000000000000
         C            3.108978454907    -0.284996324087    -0.040612897110    12.000000000000
         H            1.725934454907     1.353086675913    -0.352698897110     1.007825032230
         H            1.604829454907     0.588109675913     1.241440102890     1.007825032230
         H            3.148016454907    -1.228945324087     0.507636102890     1.007825032230
         H            3.263016454907    -0.488451324087    -1.102909897110     1.007825032230
         H            3.924001454907     0.355055675913     0.311483102890     1.007825032230
         H           -1.460068545093    -0.958951324087     1.710148102890     1.007825032230

  Basis Set: AUG-CC-PVTZ
    Blend: AUG-CC-PVTZ
  Basis Set: (AUG-CC-PVTZ AUX)
    Blend: AUG-CC-PVTZ-JKFIT
	 Reference Energy          =    -719.7558470845236798 [Eh]
	 Singles Energy            =      -0.0000000000000000 [Eh]
	 Same-Spin Energy          =      -0.4146982762476344 [Eh]
	 Opposite-Spin Energy      =      -1.2369363897050589 [Eh]
	 Correlation Energy        =      -1.6516346659526933 [Eh]
	 Total Energy              =    -721.4074817504763359 [Eh]

	 ================> DF-SCS-MP2 Energies <==================
	-----------------------------------------------------------
	 SCS Same-Spin Scale       =       0.3333333333333333 [-]
	 SCS Opposite-Spin Scale   =       1.2000000000000000 [-]
	 SCS Same-Spin Energy      =      -0.1382327587492115 [Eh]
	 SCS Opposite-Spin Energy  =      -1.4843236676460707 [Eh]
	 SCS Correlation Energy    =      -1.6225564263952821 [Eh]
	 SCS Total Energy          =    -721.3784035109189290 [Eh]
	-----------------------------------------------------------

  Dipole Moment: [D]
     X:     5.2225      Y:    -1.1239      Z:     2.7602     Total:     6.0131

*** Psi4 exiting successfully. Buy a developer a beer!
