                               Psi4 1.3.2 release

  ==> Input File <==

--------------------------------------------------------------------------
#psi4
#
memory 32 gb

molecule  {
-1 1
  P       -0.9629811    -0.0433334    -0.1470401
  O        0.6460740    -0.4769070    -0.3459610
  O       -1.0869660    -0.1237460     1.5140700
  O       -1.7761100    -1.0113720    -0.8028300
  O       -1.0141860     1.5044880    -0.4470930
  C        1.6724330     0.4007460     0.1532460
  C        3.0061220    -0.2801360    -0.0629140
  H        1.6230780     1.3579470    -0.3750000
  H        1.5019730     0.5929700     1.2191390
  H        3.0451600    -1.2240850     0.4853350
  H        3.1601600    -0.4835910    -1.1252110
  H        3.8211450     0.3599160     0.2891820
  H       -1.5649404    -0.9618977     1.6375630
units angstrom
no_reorient  #important for SAPT in psi4, default
symmetry c1  #important for SAPT in psi4, default
}

set PROPERTIES_ORIGIN ["COM"]
properties('MP2/aug-cc-pvtz', properties = ['dipole'])
--------------------------------------------------------------------------

    Molecular point group: c1
  Charge       = -1
  Multiplicity = 1
  Basis Set: AUG-CC-PVTZ
    Blend: AUG-CC-PVTZ
  Basis Set: (AUG-CC-PVTZ AUX)
    Blend: AUG-CC-PVTZ-JKFIT

    Orbital Energies [Eh]
    ---------------------

    Doubly Occupied:

       1A    -79.878941     2A    -20.410643     3A    -20.393844
       4A    -20.323681     5A    -20.290477     6A    -11.135989
       7A    -11.097760     8A     -7.396068     9A     -5.294587
      10A     -5.294331    11A     -5.292461    12A     -1.229406
      13A     -1.177065    14A     -1.132830    15A     -1.034984
      16A     -0.884481    17A     -0.705043    18A     -0.597958
      19A     -0.527491    20A     -0.507864    21A     -0.478458
      22A     -0.437261    23A     -0.430788    24A     -0.421167
      25A     -0.396621    26A     -0.369151    27A     -0.364259
      28A     -0.325941    29A     -0.302860    30A     -0.290122
      31A     -0.286475    32A     -0.231875    33A     -0.229429

  @DF-RHF Final Energy:  -719.74272770188327

   => Energetics <=

    Nuclear Repulsion Energy =            423.8872584922990541
    One-Electron Energy =               -1848.9193448705318588
    Two-Electron Energy =                 705.2893586763495932
    Total Energy =                       -719.7427277018832683
  Basis Set: (AUG-CC-PVTZ AUX)
    Blend: AUG-CC-PVTZ-RI
    Molecular point group: c1

    Geometry (in Angstrom), charge = -1, multiplicity = 1:

       Center              X                  Y                   Z               Mass
    ------------   -----------------  -----------------  -----------------  -----------------
         P           -0.853462843540    -0.027521675614    -0.125989556022    30.973761998420
         O            0.755592256460    -0.461095275614    -0.324910456022    15.994914619570
         O           -0.977447743540    -0.107934275614     1.535120543978    15.994914619570
         O           -1.666591743540    -0.995560275614    -0.781779456022    15.994914619570
         O           -0.904667743540     1.520299724386    -0.426042456022    15.994914619570
         C            1.781951256460     0.416557724386     0.174296543978    12.000000000000
         C            3.115640256460    -0.264324275614    -0.041863456022    12.000000000000
         H            1.732596256460     1.373758724386    -0.353949456022     1.007825032230
         H            1.611491256460     0.608781724386     1.240189543978     1.007825032230
         H            3.154678256460    -1.208273275614     0.506385543978     1.007825032230
         H            3.269678256460    -0.467779275614    -1.104160456022     1.007825032230
         H            3.930663256460     0.375727724386     0.310232543978     1.007825032230
         H           -1.455422143540    -0.946085975614     1.658613543978     1.007825032230

  Basis Set: AUG-CC-PVTZ
    Blend: AUG-CC-PVTZ
  Basis Set: (AUG-CC-PVTZ AUX)
    Blend: AUG-CC-PVTZ-JKFIT
	 Reference Energy          =    -719.7427277018832683 [Eh]
	 Singles Energy            =      -0.0000000000000000 [Eh]
	 Same-Spin Energy          =      -0.4147721501062545 [Eh]
	 Opposite-Spin Energy      =      -1.2370954549198543 [Eh]
	 Correlation Energy        =      -1.6518676050261087 [Eh]
	 Total Energy              =    -721.3945953069094230 [Eh]

	 ================> DF-SCS-MP2 Energies <==================
	-----------------------------------------------------------
	 SCS Same-Spin Scale       =       0.3333333333333333 [-]
	 SCS Opposite-Spin Scale   =       1.2000000000000000 [-]
	 SCS Same-Spin Energy      =      -0.1382573833687515 [Eh]
	 SCS Opposite-Spin Energy  =      -1.4845145459038251 [Eh]
	 SCS Correlation Energy    =      -1.6227719292725766 [Eh]
	 SCS Total Energy          =    -721.3654996311558989 [Eh]
	-----------------------------------------------------------

  Dipole Moment: [D]
     X:     4.5673      Y:    -2.0088      Z:     2.5449     Total:     5.6011

*** Psi4 exiting successfully. Buy a developer a beer!
