                               Psi4 1.3.2 release

  ==> Input File <==

--------------------------------------------------------------------------
#psi4
#
memory 32 gb

molecule  {
-1 1
  P       -0.9206940     0.0325050    -0.1379180
  O        0.6498842    -0.4858198    -0.3379670
  O       -1.0869660    -0.1237460     1.5140700
  O       -1.7761100    -1.0113720    -0.8028300
  O       -1.0141860     1.5044880    -0.4470930
  C        1.6724330     0.4007460     0.1532460
  C        3.0061220    -0.2801360    -0.0629140
  H        1.6304543     1.3611297    -0.3698356
  H        1.5019730     0.5929700     1.2191390
  H        3.0451600    -1.2240850     0.4853350
  H        3.1601600    -0.4835910    -1.1252110
  H        3.8211450     0.3599160     0.2891820
  H       -1.5629250    -0.9540910     1.6878470
units angstrom
no_reorient  #important for SAPT in psi4, default
symmetry c1  #important for SAPT in psi4, default
}

set PROPERTIES_ORIGIN ["COM"]
properties('MP2/aug-cc-pvtz', properties = ['dipole'])
--------------------------------------------------------------------------

    Molecular point group: c1
  Charge       = -1
  Multiplicity = 1
  Basis Set: AUG-CC-PVTZ
    Blend: AUG-CC-PVTZ
  Basis Set: (AUG-CC-PVTZ AUX)
    Blend: AUG-CC-PVTZ-JKFIT

    Orbital Energies [Eh]
    ---------------------

    Doubly Occupied:

       1A    -79.880864     2A    -20.405241     3A    -20.400859
       4A    -20.305642     5A    -20.305364     6A    -11.140201
       7A    -11.100470     8A     -7.396308     9A     -5.295097
      10A     -5.294328    11A     -5.292942    12A     -1.227332
      13A     -1.178420    14A     -1.097651    15A     -1.061798
      16A     -0.888135    17A     -0.708836    18A     -0.605214
      19A     -0.534125    20A     -0.512182    21A     -0.465459
      22A     -0.443437    23A     -0.426636    24A     -0.420174
      25A     -0.395253    26A     -0.370706    27A     -0.354602
      28A     -0.327965    29A     -0.304126    30A     -0.285543
      31A     -0.266281    32A     -0.253091    33A     -0.238614

  @DF-RHF Final Energy:  -719.75613281618496

   => Energetics <=

    Nuclear Repulsion Energy =            424.0563980421321730
    One-Electron Energy =               -1849.2592713191972962
    Two-Electron Energy =                 705.4467404608800507
    Total Energy =                       -719.7561328161849588
  Basis Set: (AUG-CC-PVTZ AUX)
    Blend: AUG-CC-PVTZ-RI
    Molecular point group: c1

    Geometry (in Angstrom), charge = -1, multiplicity = 1:

       Center              X                  Y                   Z               Mass
    ------------   -----------------  -----------------  -----------------  -----------------
         P           -0.822217307478     0.030576645237    -0.120597776059    30.973761998420
         O            0.748360892522    -0.487748154763    -0.320646776059    15.994914619570
         O           -0.988489307478    -0.125674354763     1.531390223941    15.994914619570
         O           -1.677633307478    -1.013300354763    -0.785509776059    15.994914619570
         O           -0.915709307478     1.502559645237    -0.429772776059    15.994914619570
         C            1.770909692522     0.398817645237     0.170566223941    12.000000000000
         C            3.104598692522    -0.282064354763    -0.045593776059    12.000000000000
         H            1.728930992522     1.359201345237    -0.352515376059     1.007825032230
         H            1.600449692522     0.591041645237     1.236459223941     1.007825032230
         H            3.143636692522    -1.226013354763     0.502655223941     1.007825032230
         H            3.258636692522    -0.485519354763    -1.107890776059     1.007825032230
         H            3.919621692522     0.357987645237     0.306502223941     1.007825032230
         H           -1.464448307478    -0.956019354763     1.705167223941     1.007825032230

  Basis Set: AUG-CC-PVTZ
    Blend: AUG-CC-PVTZ
  Basis Set: (AUG-CC-PVTZ AUX)
    Blend: AUG-CC-PVTZ-JKFIT
	 Reference Energy          =    -719.7561328161849588 [Eh]
	 Singles Energy            =      -0.0000000000000000 [Eh]
	 Same-Spin Energy          =      -0.4148045253093103 [Eh]
	 Opposite-Spin Energy      =      -1.2370556226582652 [Eh]
	 Correlation Energy        =      -1.6518601479675756 [Eh]
	 Total Energy              =    -721.4079929641525268 [Eh]

	 ================> DF-SCS-MP2 Energies <==================
	-----------------------------------------------------------
	 SCS Same-Spin Scale       =       0.3333333333333333 [-]
	 SCS Opposite-Spin Scale   =       1.2000000000000000 [-]
	 SCS Same-Spin Energy      =      -0.1382681751031034 [Eh]
	 SCS Opposite-Spin Energy  =      -1.4844667471899182 [Eh]
	 SCS Correlation Energy    =      -1.6227349222930216 [Eh]
	 SCS Total Energy          =    -721.3788677384779930 [Eh]
	-----------------------------------------------------------

  Dipole Moment: [D]
     X:     5.0854      Y:    -1.0816      Z:     2.6879     Total:     5.8529

*** Psi4 exiting successfully. Buy a developer a beer!
