                               Psi4 1.3.2 release

  ==> Input File <==

--------------------------------------------------------------------------
#psi4
#
memory 32 gb

molecule  {
-1 1
  P       -0.9206940     0.0325050    -0.1379180
  O        0.6537723    -0.4946651    -0.3299357
  O       -1.0869660    -0.1237460     1.5140700
  O       -1.7761100    -1.0113720    -0.8028300
  O       -1.0141860     1.5044880    -0.4470930
  C        1.6724330     0.4007460     0.1532460
  C        3.0061220    -0.2801360    -0.0629140
  H        1.6378338     1.3642393    -0.3646314
  H        1.5019730     0.5929700     1.2191390
  H        3.0451600    -1.2240850     0.4853350
  H        3.1601600    -0.4835910    -1.1252110
  H        3.8211450     0.3599160     0.2891820
  H       -1.5629250    -0.9540910     1.6878470
units angstrom
no_reorient  #important for SAPT in psi4, default
symmetry c1  #important for SAPT in psi4, default
}

set PROPERTIES_ORIGIN ["COM"]
properties('MP2/aug-cc-pvtz', properties = ['dipole'])
--------------------------------------------------------------------------

    Molecular point group: c1
  Charge       = -1
  Multiplicity = 1
  Basis Set: AUG-CC-PVTZ
    Blend: AUG-CC-PVTZ
  Basis Set: (AUG-CC-PVTZ AUX)
    Blend: AUG-CC-PVTZ-JKFIT

    Orbital Energies [Eh]
    ---------------------

    Doubly Occupied:

       1A    -79.881534     2A    -20.405175     3A    -20.401105
       4A    -20.306375     5A    -20.306040     6A    -11.139881
       7A    -11.099976     8A     -7.396914     9A     -5.295700
      10A     -5.294918    11A     -5.293551    12A     -1.226702
      13A     -1.177980    14A     -1.098232    15A     -1.062360
      16A     -0.887624    17A     -0.708198    18A     -0.605199
      19A     -0.533960    20A     -0.511471    21A     -0.465442
      22A     -0.442958    23A     -0.426454    24A     -0.419514
      25A     -0.395221    26A     -0.370767    27A     -0.354425
      28A     -0.328437    29A     -0.303682    30A     -0.285959
      31A     -0.266615    32A     -0.253747    33A     -0.239229

  @DF-RHF Final Energy:  -719.75560011074856

   => Energetics <=

    Nuclear Repulsion Energy =            423.8807932493477324
    One-Electron Energy =               -1848.9020959547037819
    Two-Electron Energy =                 705.2657025946074327
    Total Energy =                       -719.7556001107485599
  Basis Set: (AUG-CC-PVTZ AUX)
    Blend: AUG-CC-PVTZ-RI
    Molecular point group: c1

    Geometry (in Angstrom), charge = -1, multiplicity = 1:

       Center              X                  Y                   Z               Mass
    ------------   -----------------  -----------------  -----------------  -----------------
         P           -0.822774322405     0.031683409040    -0.121667411934    30.973761998420
         O            0.751691977595    -0.495486690960    -0.313685111934    15.994914619570
         O           -0.989046322405    -0.124567590960     1.530320588066    15.994914619570
         O           -1.678190322405    -1.012193590960    -0.786579411934    15.994914619570
         O           -0.916266322405     1.503666409040    -0.430842411934    15.994914619570
         C            1.770352677595     0.399924409040     0.169496588066    12.000000000000
         C            3.104041677595    -0.280957590960    -0.046663411934    12.000000000000
         H            1.735753477595     1.363417709040    -0.348380811934     1.007825032230
         H            1.599892677595     0.592148409040     1.235389588066     1.007825032230
         H            3.143079677595    -1.224906590960     0.501585588066     1.007825032230
         H            3.258079677595    -0.484412590960    -1.108960411934     1.007825032230
         H            3.919064677595     0.359094409040     0.305432588066     1.007825032230
         H           -1.465005322405    -0.954912590960     1.704097588066     1.007825032230

  Basis Set: AUG-CC-PVTZ
    Blend: AUG-CC-PVTZ
  Basis Set: (AUG-CC-PVTZ AUX)
    Blend: AUG-CC-PVTZ-JKFIT
	 Reference Energy          =    -719.7556001107485599 [Eh]
	 Singles Energy            =      -0.0000000000000000 [Eh]
	 Same-Spin Energy          =      -0.4148914510705530 [Eh]
	 Opposite-Spin Energy      =      -1.2372875482811292 [Eh]
	 Correlation Energy        =      -1.6521789993516822 [Eh]
	 Total Energy              =    -721.4077791101002504 [Eh]

	 ================> DF-SCS-MP2 Energies <==================
	-----------------------------------------------------------
	 SCS Same-Spin Scale       =       0.3333333333333333 [-]
	 SCS Opposite-Spin Scale   =       1.2000000000000000 [-]
	 SCS Same-Spin Energy      =      -0.1382971503568510 [Eh]
	 SCS Opposite-Spin Energy  =      -1.4847450579373549 [Eh]
	 SCS Correlation Energy    =      -1.6230422082942060 [Eh]
	 SCS Total Energy          =    -721.3786423190427968 [Eh]
	-----------------------------------------------------------

  Dipole Moment: [D]
     X:     5.0486      Y:    -1.0604      Z:     2.6751     Total:     5.8111

*** Psi4 exiting successfully. Buy a developer a beer!
