                               Psi4 1.3.2 release

  ==> Input File <==

--------------------------------------------------------------------------
#psi4
#
memory 32 gb

molecule  {
-1 1
  P       -0.9206940     0.0325050    -0.1379180
  O        0.6817488    -0.5099054    -0.3587639
  O       -1.0869660    -0.1237460     1.5140700
  O       -1.7761100    -1.0113720    -0.8028300
  O       -1.0141860     1.5044880    -0.4470930
  C        1.6724330     0.4007460     0.1532460
  C        2.9806731    -0.3211105    -0.0844151
  H        1.6230780     1.3579470    -0.3750000
  H        1.5019730     0.5929700     1.2191390
  H        3.0451600    -1.2240850     0.4853350
  H        3.1601600    -0.4835910    -1.1252110
  H        3.8211450     0.3599160     0.2891820
  H       -1.5629250    -0.9540910     1.6878470
units angstrom
no_reorient  #important for SAPT in psi4, default
symmetry c1  #important for SAPT in psi4, default
}

set PROPERTIES_ORIGIN ["COM"]
properties('MP2/aug-cc-pvtz', properties = ['dipole'])
--------------------------------------------------------------------------

    Molecular point group: c1
  Charge       = -1
  Multiplicity = 1
  Basis Set: AUG-CC-PVTZ
    Blend: AUG-CC-PVTZ
  Basis Set: (AUG-CC-PVTZ AUX)
    Blend: AUG-CC-PVTZ-JKFIT

    Orbital Energies [Eh]
    ---------------------

    Doubly Occupied:

       1A    -79.884988     2A    -20.408900     3A    -20.399717
       4A    -20.309595     5A    -20.307646     6A    -11.137553
       7A    -11.098352     8A     -7.399997     9A     -5.298697
      10A     -5.297995    11A     -5.296608    12A     -1.223253
      13A     -1.177470    14A     -1.100453    15A     -1.064366
      16A     -0.883013    17A     -0.705500    18A     -0.605021
      19A     -0.530563    20A     -0.514931    21A     -0.466451
      22A     -0.440255    23A     -0.428635    24A     -0.405358
      25A     -0.397023    26A     -0.375126    27A     -0.353481
      28A     -0.329531    29A     -0.302819    30A     -0.285935
      31A     -0.267193    32A     -0.255952    33A     -0.241439

  @DF-RHF Final Energy:  -719.74893860593295

   => Energetics <=

    Nuclear Repulsion Energy =            423.0686718580487309
    One-Electron Energy =               -1847.2475889803783957
    Two-Electron Energy =                 704.4299785163967726
    Total Energy =                       -719.7489386059329490
  Basis Set: (AUG-CC-PVTZ AUX)
    Blend: AUG-CC-PVTZ-RI
    Molecular point group: c1

    Geometry (in Angstrom), charge = -1, multiplicity = 1:

       Center              X                  Y                   Z               Mass
    ------------   -----------------  -----------------  -----------------  -----------------
         P           -0.823792108701     0.037617814120    -0.115830888983    30.973761998420
         O            0.778650691299    -0.504792585880    -0.336676788983    15.994914619570
         O           -0.990064108701    -0.118633185880     1.536157111017    15.994914619570
         O           -1.679208108701    -1.006259185880    -0.780742888983    15.994914619570
         O           -0.917284108701     1.509600814120    -0.425005888983    15.994914619570
         C            1.769334891299     0.405858814120     0.175333111017    12.000000000000
         C            3.077574991299    -0.315997685880    -0.062327988983    12.000000000000
         H            1.719979891299     1.363059814120    -0.352912888983     1.007825032230
         H            1.598874891299     0.598082814120     1.241226111017     1.007825032230
         H            3.142061891299    -1.218972185880     0.507422111017     1.007825032230
         H            3.257061891299    -0.478478185880    -1.103123888983     1.007825032230
         H            3.918046891299     0.365028814120     0.311269111017     1.007825032230
         H           -1.466023108701    -0.948978185880     1.709934111017     1.007825032230

  Basis Set: AUG-CC-PVTZ
    Blend: AUG-CC-PVTZ
  Basis Set: (AUG-CC-PVTZ AUX)
    Blend: AUG-CC-PVTZ-JKFIT
	 Reference Energy          =    -719.7489386059329490 [Eh]
	 Singles Energy            =      -0.0000000000000000 [Eh]
	 Same-Spin Energy          =      -0.4154978998658981 [Eh]
	 Opposite-Spin Energy      =      -1.2389162284157245 [Eh]
	 Correlation Energy        =      -1.6544141282816227 [Eh]
	 Total Energy              =    -721.4033527342145362 [Eh]

	 ================> DF-SCS-MP2 Energies <==================
	-----------------------------------------------------------
	 SCS Same-Spin Scale       =       0.3333333333333333 [-]
	 SCS Opposite-Spin Scale   =       1.2000000000000000 [-]
	 SCS Same-Spin Energy      =      -0.1384992999552994 [Eh]
	 SCS Opposite-Spin Energy  =      -1.4866994740988693 [Eh]
	 SCS Correlation Energy    =      -1.6251987740541687 [Eh]
	 SCS Total Energy          =    -721.3741373799871326 [Eh]
	-----------------------------------------------------------

  Dipole Moment: [D]
     X:     4.7964      Y:    -1.0664      Z:     2.6996     Total:     5.6063

*** Psi4 exiting successfully. Buy a developer a beer!
