                               Psi4 1.3.2 release

  ==> Input File <==

--------------------------------------------------------------------------
#psi4
#
memory 32 gb

molecule  {
-1 1
  P       -0.9206940     0.0325050    -0.1379180
  O        0.6460740    -0.4769070    -0.3459610
  O       -1.0869660    -0.1237460     1.5140700
  O       -1.7761100    -1.0113720    -0.8028300
  O       -1.0203898     1.6021641    -0.4676089
  C        1.6724330     0.4007460     0.1532460
  C        3.0061220    -0.2801360    -0.0629140
  H        1.6230780     1.3579470    -0.3750000
  H        1.5019730     0.5929700     1.2191390
  H        3.0451600    -1.2240850     0.4853350
  H        3.1601600    -0.4835910    -1.1252110
  H        3.8211450     0.3599160     0.2891820
  H       -1.5629250    -0.9540910     1.6878470
units angstrom
no_reorient  #important for SAPT in psi4, default
symmetry c1  #important for SAPT in psi4, default
}

set PROPERTIES_ORIGIN ["COM"]
properties('MP2/aug-cc-pvtz', properties = ['dipole'])
--------------------------------------------------------------------------

    Molecular point group: c1
  Charge       = -1
  Multiplicity = 1
  Basis Set: AUG-CC-PVTZ
    Blend: AUG-CC-PVTZ
  Basis Set: (AUG-CC-PVTZ AUX)
    Blend: AUG-CC-PVTZ-JKFIT

    Orbital Energies [Eh]
    ---------------------

    Doubly Occupied:

       1A    -79.896842     2A    -20.412455     3A    -20.407584
       4A    -20.313990     5A    -20.307875     6A    -11.142701
       7A    -11.102685     8A     -7.409666     9A     -5.308647
      10A     -5.307836    11A     -5.305807    12A     -1.231108
      13A     -1.184791    14A     -1.093525    15A     -1.035545
      16A     -0.890979    17A     -0.712094    18A     -0.612759
      19A     -0.537205    20A     -0.516073    21A     -0.469716
      22A     -0.446689    23A     -0.428968    24A     -0.423487
      25A     -0.394060    26A     -0.372539    27A     -0.354354
      28A     -0.323566    29A     -0.306468    30A     -0.278233
      31A     -0.269761    32A     -0.241336    33A     -0.232135

  @DF-RHF Final Energy:  -719.73963925433259

   => Energetics <=

    Nuclear Repulsion Energy =            420.1228220832027773
    One-Electron Energy =               -1841.1819633297668588
    Two-Electron Energy =                 701.3195019922316078
    Total Energy =                       -719.7396392543325874
  Basis Set: (AUG-CC-PVTZ AUX)
    Blend: AUG-CC-PVTZ-RI
    Molecular point group: c1

    Geometry (in Angstrom), charge = -1, multiplicity = 1:

       Center              X                  Y                   Z               Mass
    ------------   -----------------  -----------------  -----------------  -----------------
         P           -0.820876454696     0.016963303604    -0.116908041177    30.973761998420
         O            0.745891545304    -0.492448696396    -0.324951041177    15.994914619570
         O           -0.987148454696    -0.139287696396     1.535079958823    15.994914619570
         O           -1.676292454696    -1.026913696396    -0.781820041177    15.994914619570
         O           -0.920572254696     1.586622403604    -0.446598941177    15.994914619570
         C            1.772250545304     0.385204303604     0.174255958823    12.000000000000
         C            3.105939545304    -0.295677696396    -0.041904041177    12.000000000000
         H            1.722895545304     1.342405303604    -0.353990041177     1.007825032230
         H            1.601790545304     0.577428303604     1.240148958823     1.007825032230
         H            3.144977545304    -1.239626696396     0.506344958823     1.007825032230
         H            3.259977545304    -0.499132696396    -1.104201041177     1.007825032230
         H            3.920962545304     0.344374303604     0.310191958823     1.007825032230
         H           -1.463107454696    -0.969632696396     1.708856958823     1.007825032230

  Basis Set: AUG-CC-PVTZ
    Blend: AUG-CC-PVTZ
  Basis Set: (AUG-CC-PVTZ AUX)
    Blend: AUG-CC-PVTZ-JKFIT
	 Reference Energy          =    -719.7396392543325874 [Eh]
	 Singles Energy            =      -0.0000000000000000 [Eh]
	 Same-Spin Energy          =      -0.4166075368757042 [Eh]
	 Opposite-Spin Energy      =      -1.2417477259385237 [Eh]
	 Correlation Energy        =      -1.6583552628142280 [Eh]
	 Total Energy              =    -721.3979945171467989 [Eh]

	 ================> DF-SCS-MP2 Energies <==================
	-----------------------------------------------------------
	 SCS Same-Spin Scale       =       0.3333333333333333 [-]
	 SCS Opposite-Spin Scale   =       1.2000000000000000 [-]
	 SCS Same-Spin Energy      =      -0.1388691789585680 [Eh]
	 SCS Opposite-Spin Energy  =      -1.4900972711262284 [Eh]
	 SCS Correlation Energy    =      -1.6289664500847965 [Eh]
	 SCS Total Energy          =    -721.3686057044174049 [Eh]
	-----------------------------------------------------------

  Dipole Moment: [D]
     X:     5.2084      Y:    -1.6510      Z:     2.8304     Total:     6.1534

*** Psi4 exiting successfully. Buy a developer a beer!
