                               Psi4 1.3.2 release

  ==> Input File <==

--------------------------------------------------------------------------
#psi4
#
memory 32 gb

molecule  {
-1 1
  P       -0.9206940     0.0325050    -0.1379180
  O        0.6460740    -0.4769070    -0.3459610
  O       -1.0869660    -0.1237460     1.5140700
  O       -1.7761100    -1.0113720    -0.8028300
  O       -1.0141860     1.5044880    -0.4470930
  C        1.6724330     0.4007460     0.1532460
  C        3.0061220    -0.2801360    -0.0629140
  H        1.6230780     1.3579470    -0.3750000
  H        1.5019730     0.5929700     1.2191390
  H        3.0451600    -1.2240850     0.4853350
  H        3.1601600    -0.4835910    -1.1252110
  H        3.8211450     0.3599160     0.2891820
  H       -1.5629250    -0.9540910     1.6878470
units angstrom
no_reorient  #important for SAPT in psi4, default
symmetry c1  #important for SAPT in psi4, default
}

set PROPERTIES_ORIGIN ["COM"]
properties('MP2/aug-cc-pvtz', properties = ['dipole'])
--------------------------------------------------------------------------

    Molecular point group: c1
  Charge       = -1
  Multiplicity = 1
  Basis Set: AUG-CC-PVTZ
    Blend: AUG-CC-PVTZ
  Basis Set: (AUG-CC-PVTZ AUX)
    Blend: AUG-CC-PVTZ-JKFIT

    Orbital Energies [Eh]
    ---------------------

    Doubly Occupied:

       1A    -79.880206     2A    -20.405319     3A    -20.400602
       4A    -20.305256     5A    -20.304357     6A    -11.140512
       7A    -11.100957     8A     -7.395714     9A     -5.294507
      10A     -5.293749    11A     -5.292344    12A     -1.227970
      13A     -1.178853    14A     -1.097080    15A     -1.061240
      16A     -0.888636    17A     -0.709474    18A     -0.605228
      19A     -0.534277    20A     -0.512886    21A     -0.465493
      22A     -0.443920    23A     -0.426827    24A     -0.420824
      25A     -0.395253    26A     -0.370646    27A     -0.354803
      28A     -0.327491    29A     -0.304520    30A     -0.285123
      31A     -0.265960    32A     -0.252417    33A     -0.238001

  @DF-RHF Final Energy:  -719.75652918893798

   => Energetics <=

    Nuclear Repulsion Energy =            424.2297117669140789
    One-Electron Energy =               -1849.6115961940847683
    Two-Electron Energy =                 705.6253552382327143
    Total Energy =                       -719.7565291889379751
  Basis Set: (AUG-CC-PVTZ AUX)
    Blend: AUG-CC-PVTZ-RI
    Molecular point group: c1

    Geometry (in Angstrom), charge = -1, multiplicity = 1:

       Center              X                  Y                   Z               Mass
    ------------   -----------------  -----------------  -----------------  -----------------
         P           -0.821670286352     0.029461833580    -0.119533233943    30.973761998420
         O            0.745097713648    -0.479950166420    -0.327576233943    15.994914619570
         O           -0.987942286352    -0.126789166420     1.532454766057    15.994914619570
         O           -1.677086286352    -1.014415166420    -0.784445233943    15.994914619570
         O           -0.915162286352     1.501444833580    -0.428708233943    15.994914619570
         C            1.771456713648     0.397702833580     0.171630766057    12.000000000000
         C            3.105145713648    -0.283179166420    -0.044529233943    12.000000000000
         H            1.722101713648     1.354903833580    -0.356615233943     1.007825032230
         H            1.600996713648     0.589926833580     1.237523766057     1.007825032230
         H            3.144183713648    -1.227128166420     0.503719766057     1.007825032230
         H            3.259183713648    -0.486634166420    -1.106826233943     1.007825032230
         H            3.920168713648     0.356872833580     0.307566766057     1.007825032230
         H           -1.463901286352    -0.957134166420     1.706231766057     1.007825032230

  Basis Set: AUG-CC-PVTZ
    Blend: AUG-CC-PVTZ
  Basis Set: (AUG-CC-PVTZ AUX)
    Blend: AUG-CC-PVTZ-JKFIT
	 Reference Energy          =    -719.7565291889379751 [Eh]
	 Singles Energy            =      -0.0000000000000000 [Eh]
	 Same-Spin Energy          =      -0.4147240956105957 [Eh]
	 Opposite-Spin Energy      =      -1.2368366183247665 [Eh]
	 Correlation Energy        =      -1.6515607139353623 [Eh]
	 Total Energy              =    -721.4080899028733711 [Eh]

	 ================> DF-SCS-MP2 Energies <==================
	-----------------------------------------------------------
	 SCS Same-Spin Scale       =       0.3333333333333333 [-]
	 SCS Opposite-Spin Scale   =       1.2000000000000000 [-]
	 SCS Same-Spin Energy      =      -0.1382413652035319 [Eh]
	 SCS Opposite-Spin Energy  =      -1.4842039419897197 [Eh]
	 SCS Correlation Energy    =      -1.6224453071932516 [Eh]
	 SCS Total Energy          =    -721.3789744961312635 [Eh]
	-----------------------------------------------------------

  Dipole Moment: [D]
     X:     5.1214      Y:    -1.1031      Z:     2.7007     Total:     5.8940

*** Psi4 exiting successfully. Buy a developer a beer!
