                               Psi4 1.3.2 release

  ==> Input File <==

--------------------------------------------------------------------------
#psi4
#
memory 32 gb

molecule  {
-1 1
  P       -0.9388452    -0.0159562    -0.1640271
  O        0.6460740    -0.4769070    -0.3459610
  O       -1.0869660    -0.1237460     1.5140700
  O       -1.7761100    -1.0113720    -0.8028300
  O       -1.0141860     1.5044880    -0.4470930
  C        1.7070055     0.3679270     0.1373351
  C        3.0061220    -0.2801360    -0.0629140
  H        1.6230780     1.3579470    -0.3750000
  H        1.5019730     0.5929700     1.2191390
  H        3.0451600    -1.2240850     0.4853350
  H        3.1601600    -0.4835910    -1.1252110
  H        3.8211450     0.3599160     0.2891820
  H       -1.5629250    -0.9540910     1.6878470
units angstrom
no_reorient  #important for SAPT in psi4, default
symmetry c1  #important for SAPT in psi4, default
}

set PROPERTIES_ORIGIN ["COM"]
properties('MP2/aug-cc-pvtz', properties = ['dipole'])
--------------------------------------------------------------------------

    Molecular point group: c1
  Charge       = -1
  Multiplicity = 1
  Basis Set: AUG-CC-PVTZ
    Blend: AUG-CC-PVTZ
  Basis Set: (AUG-CC-PVTZ AUX)
    Blend: AUG-CC-PVTZ-JKFIT

    Orbital Energies [Eh]
    ---------------------

    Doubly Occupied:

       1A    -79.879449     2A    -20.401510     3A    -20.397562
       4A    -20.316973     5A    -20.296068     6A    -11.141173
       7A    -11.099664     8A     -7.395571     9A     -5.294248
      10A     -5.293718    11A     -5.292132    12A     -1.224773
      13A     -1.173439    14A     -1.117361    15A     -1.049190
      16A     -0.899300    17A     -0.703669    18A     -0.598337
      19A     -0.529669    20A     -0.508884    21A     -0.469228
      22A     -0.446380    23A     -0.428900    24A     -0.422899
      25A     -0.392129    26A     -0.368655    27A     -0.360277
      28A     -0.323991    29A     -0.296643    30A     -0.288996
      31A     -0.280891    32A     -0.241250    33A     -0.235816

  @DF-RHF Final Energy:  -719.74786860441020

   => Energetics <=

    Nuclear Repulsion Energy =            423.8946960179732741
    One-Electron Energy =               -1848.9476350998038470
    Two-Electron Energy =                 705.3050704774203723
    Total Energy =                       -719.7478686044102005
  Basis Set: (AUG-CC-PVTZ AUX)
    Blend: AUG-CC-PVTZ-RI
    Molecular point group: c1

    Geometry (in Angstrom), charge = -1, multiplicity = 1:

       Center              X                  Y                   Z               Mass
    ------------   -----------------  -----------------  -----------------  -----------------
         P           -0.838642762257    -0.003840581971    -0.137645334862    30.973761998420
         O            0.746276437743    -0.464791381971    -0.319579234862    15.994914619570
         O           -0.986763562257    -0.111630381971     1.540451765138    15.994914619570
         O           -1.675907562257    -0.999256381971    -0.776448234862    15.994914619570
         O           -0.913983562257     1.516603618029    -0.420711234862    15.994914619570
         C            1.807207937743     0.380042618029     0.163716865138    12.000000000000
         C            3.106324437743    -0.268020381971    -0.036532234862    12.000000000000
         H            1.723280437743     1.370062618029    -0.348618234862     1.007825032230
         H            1.602175437743     0.605085618029     1.245520765138     1.007825032230
         H            3.145362437743    -1.211969381971     0.511716765138     1.007825032230
         H            3.260362437743    -0.471475381971    -1.098829234862     1.007825032230
         H            3.921347437743     0.372031618029     0.315563765138     1.007825032230
         H           -1.462722562257    -0.941975381971     1.714228765138     1.007825032230

  Basis Set: AUG-CC-PVTZ
    Blend: AUG-CC-PVTZ
  Basis Set: (AUG-CC-PVTZ AUX)
    Blend: AUG-CC-PVTZ-JKFIT
	 Reference Energy          =    -719.7478686044102005 [Eh]
	 Singles Energy            =      -0.0000000000000000 [Eh]
	 Same-Spin Energy          =      -0.4149356667075179 [Eh]
	 Opposite-Spin Energy      =      -1.2370439378620539 [Eh]
	 Correlation Energy        =      -1.6519796045695718 [Eh]
	 Total Energy              =    -721.3998482089797335 [Eh]

	 ================> DF-SCS-MP2 Energies <==================
	-----------------------------------------------------------
	 SCS Same-Spin Scale       =       0.3333333333333333 [-]
	 SCS Opposite-Spin Scale   =       1.2000000000000000 [-]
	 SCS Same-Spin Energy      =      -0.1383118889025060 [Eh]
	 SCS Opposite-Spin Energy  =      -1.4844527254344646 [Eh]
	 SCS Correlation Energy    =      -1.6227646143369705 [Eh]
	 SCS Total Energy          =    -721.3706332187471162 [Eh]
	-----------------------------------------------------------

  Dipole Moment: [D]
     X:     4.9786      Y:    -1.7202      Z:     2.3994     Total:     5.7881

*** Psi4 exiting successfully. Buy a developer a beer!
