                               Psi4 1.3.2 release

  ==> Input File <==

--------------------------------------------------------------------------
#psi4
#
memory 32 gb

molecule  {
-1 1
  P       -0.9206940     0.0325050    -0.1379180
  O        0.7000417    -0.5259910    -0.3649323
  O       -1.0869660    -0.1237460     1.5140700
  O       -1.7761100    -1.0113720    -0.8028300
  O       -1.0141860     1.5044880    -0.4470930
  C        1.6724330     0.4007460     0.1532460
  C        2.9673489    -0.3412711    -0.0950587
  H        1.6230780     1.3579470    -0.3750000
  H        1.5019730     0.5929700     1.2191390
  H        3.0451600    -1.2240850     0.4853350
  H        3.1601600    -0.4835910    -1.1252110
  H        3.8211450     0.3599160     0.2891820
  H       -1.5629250    -0.9540910     1.6878470
units angstrom
no_reorient  #important for SAPT in psi4, default
symmetry c1  #important for SAPT in psi4, default
}

set PROPERTIES_ORIGIN ["COM"]
properties('MP2/aug-cc-pvtz', properties = ['dipole'])
--------------------------------------------------------------------------

    Molecular point group: c1
  Charge       = -1
  Multiplicity = 1
  Basis Set: AUG-CC-PVTZ
    Blend: AUG-CC-PVTZ
  Basis Set: (AUG-CC-PVTZ AUX)
    Blend: AUG-CC-PVTZ-JKFIT

    Orbital Energies [Eh]
    ---------------------

    Doubly Occupied:

       1A    -79.887361     2A    -20.410727     3A    -20.399317
       4A    -20.312231     5A    -20.308925     6A    -11.136371
       7A    -11.097568     8A     -7.402170     9A     -5.300828
      10A     -5.300149    11A     -5.298758    12A     -1.221793
      13A     -1.176480    14A     -1.102225    15A     -1.065959
      16A     -0.880388    17A     -0.704227    18A     -0.605115
      19A     -0.528896    20A     -0.516329    21A     -0.467447
      22A     -0.438103    23A     -0.429760    24A     -0.405623
      25A     -0.390707    26A     -0.377151    27A     -0.352620
      28A     -0.330057    29A     -0.302100    30A     -0.286114
      31A     -0.267475    32A     -0.257616    33A     -0.243163

  @DF-RHF Final Energy:  -719.74190707157868

   => Energetics <=

    Nuclear Repulsion Energy =            422.5167343127726554
    One-Electron Energy =               -1846.1097737475772647
    Two-Electron Energy =                 703.8511323632260428
    Total Energy =                       -719.7419070715786802
  Basis Set: (AUG-CC-PVTZ AUX)
    Blend: AUG-CC-PVTZ-RI
    Molecular point group: c1

    Geometry (in Angstrom), charge = -1, multiplicity = 1:

       Center              X                  Y                   Z               Mass
    ------------   -----------------  -----------------  -----------------  -----------------
         P           -0.824853729342     0.041611522266    -0.114019804503    30.973761998420
         O            0.795881970658    -0.516884477734    -0.341034104503    15.994914619570
         O           -0.991125729342    -0.114639477734     1.537968195497    15.994914619570
         O           -1.680269729342    -1.002265477734    -0.778931804503    15.994914619570
         O           -0.918345729342     1.513594522266    -0.423194804503    15.994914619570
         C            1.768273270658     0.409852522266     0.177144195497    12.000000000000
         C            3.063189170658    -0.332164577734    -0.071160504503    12.000000000000
         H            1.718918270658     1.367053522266    -0.351101804503     1.007825032230
         H            1.597813270658     0.602076522266     1.243037195497     1.007825032230
         H            3.141000270658    -1.214978477734     0.509233195497     1.007825032230
         H            3.256000270658    -0.474484477734    -1.101312804503     1.007825032230
         H            3.916985270658     0.369022522266     0.313080195497     1.007825032230
         H           -1.467084729342    -0.944984477734     1.711745195497     1.007825032230

  Basis Set: AUG-CC-PVTZ
    Blend: AUG-CC-PVTZ
  Basis Set: (AUG-CC-PVTZ AUX)
    Blend: AUG-CC-PVTZ-JKFIT
	 Reference Energy          =    -719.7419070715786802 [Eh]
	 Singles Energy            =      -0.0000000000000000 [Eh]
	 Same-Spin Energy          =      -0.4159655623013777 [Eh]
	 Opposite-Spin Energy      =      -1.2401401514710639 [Eh]
	 Correlation Energy        =      -1.6561057137724415 [Eh]
	 Total Energy              =    -721.3980127853511704 [Eh]

	 ================> DF-SCS-MP2 Energies <==================
	-----------------------------------------------------------
	 SCS Same-Spin Scale       =       0.3333333333333333 [-]
	 SCS Opposite-Spin Scale   =       1.2000000000000000 [-]
	 SCS Same-Spin Energy      =      -0.1386551874337925 [Eh]
	 SCS Opposite-Spin Energy  =      -1.4881681817652768 [Eh]
	 SCS Correlation Energy    =      -1.6268233691990692 [Eh]
	 SCS Total Energy          =    -721.3687304407777674 [Eh]
	-----------------------------------------------------------

  Dipole Moment: [D]
     X:     4.6236      Y:    -1.0518      Z:     2.6964     Total:     5.4548

*** Psi4 exiting successfully. Buy a developer a beer!
