                               Psi4 1.3.2 release

  ==> Input File <==

--------------------------------------------------------------------------
#psi4
#
memory 32 gb

molecule  {
-1 1
  P       -0.9206940     0.0325050    -0.1379180
  O        0.5517237    -0.4462304    -0.3334327
  O       -1.0869660    -0.1237460     1.5140700
  O       -1.7761100    -1.0113720    -0.8028300
  O       -1.0141860     1.5044880    -0.4470930
  C        1.6724330     0.4007460     0.1532460
  C        3.0061220    -0.2801360    -0.0629140
  H        1.6230780     1.3579470    -0.3750000
  H        1.5019730     0.5929700     1.2191390
  H        3.0451600    -1.2240850     0.4853350
  H        3.1601600    -0.4835910    -1.1252110
  H        3.8211450     0.3599160     0.2891820
  H       -1.5629250    -0.9540910     1.6878470
units angstrom
no_reorient  #important for SAPT in psi4, default
symmetry c1  #important for SAPT in psi4, default
}

set PROPERTIES_ORIGIN ["COM"]
properties('MP2/aug-cc-pvtz', properties = ['dipole'])
--------------------------------------------------------------------------

    Molecular point group: c1
  Charge       = -1
  Multiplicity = 1
  Basis Set: AUG-CC-PVTZ
    Blend: AUG-CC-PVTZ
  Basis Set: (AUG-CC-PVTZ AUX)
    Blend: AUG-CC-PVTZ-JKFIT

    Orbital Energies [Eh]
    ---------------------

    Doubly Occupied:

       1A    -79.864975     2A    -20.401108     3A    -20.396179
       4A    -20.294954     5A    -20.293417     6A    -11.153596
       7A    -11.110590     8A     -7.382532     9A     -5.281581
      10A     -5.280574    11A     -5.279047    12A     -1.238209
      13A     -1.173869    14A     -1.086617    15A     -1.052607
      16A     -0.902040    17A     -0.721602    18A     -0.602653
      19A     -0.536507    20A     -0.515340    21A     -0.462262
      22A     -0.448833    23A     -0.432880    24A     -0.428271
      25A     -0.393532    26A     -0.372145    27A     -0.352728
      28A     -0.323758    29A     -0.314155    30A     -0.279004
      31A     -0.258163    32A     -0.243025    33A     -0.228134

  @DF-RHF Final Energy:  -719.75242014424146

   => Energetics <=

    Nuclear Repulsion Energy =            426.8815838197332937
    One-Electron Energy =               -1855.0582360297480591
    Two-Electron Energy =                 708.4242320657732535
    Total Energy =                       -719.7524201442414551
  Basis Set: (AUG-CC-PVTZ AUX)
    Blend: AUG-CC-PVTZ-RI
    Molecular point group: c1

    Geometry (in Angstrom), charge = -1, multiplicity = 1:

       Center              X                  Y                   Z               Mass
    ------------   -----------------  -----------------  -----------------  -----------------
         P           -0.809597322210     0.025536488438    -0.121136341900    30.973761998420
         O            0.662820377790    -0.453198911562    -0.316651041900    15.994914619570
         O           -0.975869322210    -0.130714511562     1.530851658100    15.994914619570
         O           -1.665013322210    -1.018340511562    -0.786048341900    15.994914619570
         O           -0.903089322210     1.497519488438    -0.430311341900    15.994914619570
         C            1.783529677790     0.393777488438     0.170027658100    12.000000000000
         C            3.117218677790    -0.287104511562    -0.046132341900    12.000000000000
         H            1.734174677790     1.350978488438    -0.358218341900     1.007825032230
         H            1.613069677790     0.586001488438     1.235920658100     1.007825032230
         H            3.156256677790    -1.231053511562     0.502116658100     1.007825032230
         H            3.271256677790    -0.490559511562    -1.108429341900     1.007825032230
         H            3.932241677790     0.352947488438     0.305963658100     1.007825032230
         H           -1.451828322210    -0.961059511562     1.704628658100     1.007825032230

  Basis Set: AUG-CC-PVTZ
    Blend: AUG-CC-PVTZ
  Basis Set: (AUG-CC-PVTZ AUX)
    Blend: AUG-CC-PVTZ-JKFIT
	 Reference Energy          =    -719.7524201442414551 [Eh]
	 Singles Energy            =      -0.0000000000000000 [Eh]
	 Same-Spin Energy          =      -0.4136652597477358 [Eh]
	 Opposite-Spin Energy      =      -1.2342696842125802 [Eh]
	 Correlation Energy        =      -1.6479349439603159 [Eh]
	 Total Energy              =    -721.4003550882017635 [Eh]

	 ================> DF-SCS-MP2 Energies <==================
	-----------------------------------------------------------
	 SCS Same-Spin Scale       =       0.3333333333333333 [-]
	 SCS Opposite-Spin Scale   =       1.2000000000000000 [-]
	 SCS Same-Spin Energy      =      -0.1378884199159119 [Eh]
	 SCS Opposite-Spin Energy  =      -1.4811236210550962 [Eh]
	 SCS Correlation Energy    =      -1.6190120409710080 [Eh]
	 SCS Total Energy          =    -721.3714321852124840 [Eh]
	-----------------------------------------------------------

  Dipole Moment: [D]
     X:     5.9396      Y:    -1.1785      Z:     2.6859     Total:     6.6243

*** Psi4 exiting successfully. Buy a developer a beer!
