                               Psi4 1.3.2 release

  ==> Input File <==

--------------------------------------------------------------------------
#psi4
#
memory 32 gb

molecule  {
-1 1
  P       -0.9206940     0.0325050    -0.1379180
  O        0.6460740    -0.4769070    -0.3459610
  O       -1.0869660    -0.1237460     1.5140700
  O       -1.7761100    -1.0113720    -0.8028300
  O       -1.0141860     1.5044880    -0.4470930
  C        1.8150071     0.5226630     0.2225921
  C        3.0061220    -0.2801360    -0.0629140
  H        1.6230780     1.3579470    -0.3750000
  H        1.5019730     0.5929700     1.2191390
  H        3.0451600    -1.2240850     0.4853350
  H        3.1601600    -0.4835910    -1.1252110
  H        3.8211450     0.3599160     0.2891820
  H       -1.5629250    -0.9540910     1.6878470
units angstrom
no_reorient  #important for SAPT in psi4, default
symmetry c1  #important for SAPT in psi4, default
}

set PROPERTIES_ORIGIN ["COM"]
properties('MP2/aug-cc-pvtz', properties = ['dipole'])
--------------------------------------------------------------------------

    Molecular point group: c1
  Charge       = -1
  Multiplicity = 1
  Basis Set: AUG-CC-PVTZ
    Blend: AUG-CC-PVTZ
  Basis Set: (AUG-CC-PVTZ AUX)
    Blend: AUG-CC-PVTZ-JKFIT

    Orbital Energies [Eh]
    ---------------------

    Doubly Occupied:

       1A    -79.868741     2A    -20.398332     3A    -20.380974
       4A    -20.296961     5A    -20.296732     6A    -11.148729
       7A    -11.109865     8A     -7.384196     9A     -5.282993
      10A     -5.282168    11A     -5.280967    12A     -1.205898
      13A     -1.141092    14A     -1.082618    15A     -1.053446
      16A     -0.913458    17A     -0.723221    18A     -0.588000
      19A     -0.532894    20A     -0.509029    21A     -0.460493
      22A     -0.455304    23A     -0.419490    24A     -0.406929
      25A     -0.396967    26A     -0.368993    27A     -0.345813
      28A     -0.317221    29A     -0.305936    30A     -0.276050
      31A     -0.254959    32A     -0.243054    33A     -0.228789

  @DF-RHF Final Energy:  -719.72296689560585

   => Energetics <=

    Nuclear Repulsion Energy =            420.8622775560008904
    One-Electron Energy =               -1843.2498679336608802
    Two-Electron Energy =                 702.6646234820541395
    Total Energy =                       -719.7229668956058504
  Basis Set: (AUG-CC-PVTZ AUX)
    Blend: AUG-CC-PVTZ-RI
    Molecular point group: c1

    Geometry (in Angstrom), charge = -1, multiplicity = 1:

       Center              X                  Y                   Z               Mass
    ------------   -----------------  -----------------  -----------------  -----------------
         P           -0.835357359365     0.017757836287    -0.126190439802    30.973761998420
         O            0.731410640635    -0.491654163713    -0.334233439802    15.994914619570
         O           -1.001629359365    -0.138493163713     1.525797560198    15.994914619570
         O           -1.690773359365    -1.026119163713    -0.791102439802    15.994914619570
         O           -0.928849359365     1.489740836287    -0.435365439802    15.994914619570
         C            1.900343740635     0.507915836287     0.234319660198    12.000000000000
         C            3.091458640635    -0.294883163713    -0.051186439802    12.000000000000
         H            1.708414640635     1.343199836287    -0.363272439802     1.007825032230
         H            1.587309640635     0.578222836287     1.230866560198     1.007825032230
         H            3.130496640635    -1.238832163713     0.497062560198     1.007825032230
         H            3.245496640635    -0.498338163713    -1.113483439802     1.007825032230
         H            3.906481640635     0.345168836287     0.300909560198     1.007825032230
         H           -1.477588359365    -0.968838163713     1.699574560198     1.007825032230

  Basis Set: AUG-CC-PVTZ
    Blend: AUG-CC-PVTZ
  Basis Set: (AUG-CC-PVTZ AUX)
    Blend: AUG-CC-PVTZ-JKFIT
	 Reference Energy          =    -719.7229668956058504 [Eh]
	 Singles Energy            =      -0.0000000000000000 [Eh]
	 Same-Spin Energy          =      -0.4163170397060413 [Eh]
	 Opposite-Spin Energy      =      -1.2413799577595488 [Eh]
	 Correlation Energy        =      -1.6576969974655902 [Eh]
	 Total Energy              =    -721.3806638930714143 [Eh]

	 ================> DF-SCS-MP2 Energies <==================
	-----------------------------------------------------------
	 SCS Same-Spin Scale       =       0.3333333333333333 [-]
	 SCS Opposite-Spin Scale   =       1.2000000000000000 [-]
	 SCS Same-Spin Energy      =      -0.1387723465686804 [Eh]
	 SCS Opposite-Spin Energy  =      -1.4896559493114585 [Eh]
	 SCS Correlation Energy    =      -1.6284282958801390 [Eh]
	 SCS Total Energy          =    -721.3513951914859490 [Eh]
	-----------------------------------------------------------

  Dipole Moment: [D]
     X:     5.8569      Y:    -0.8621      Z:     2.8601     Total:     6.5747

*** Psi4 exiting successfully. Buy a developer a beer!
