                               Psi4 1.3.2 release

  ==> Input File <==

--------------------------------------------------------------------------
#psi4
#
memory 32 gb

molecule  {
-1 1
  P       -0.9206940     0.0325050    -0.1379180
  O        0.6460740    -0.4769070    -0.3459610
  O       -1.0769957    -0.1143766     1.4150104
  O       -1.7761100    -1.0113720    -0.8028300
  O       -1.0141860     1.5044880    -0.4470930
  C        1.6724330     0.4007460     0.1532460
  C        3.0061220    -0.2801360    -0.0629140
  H        1.6230780     1.3579470    -0.3750000
  H        1.5019730     0.5929700     1.2191390
  H        3.0451600    -1.2240850     0.4853350
  H        3.1601600    -0.4835910    -1.1252110
  H        3.8211450     0.3599160     0.2891820
  H       -1.5629250    -0.9540910     1.6878470
units angstrom
no_reorient  #important for SAPT in psi4, default
symmetry c1  #important for SAPT in psi4, default
}

set PROPERTIES_ORIGIN ["COM"]
properties('MP2/aug-cc-pvtz', properties = ['dipole'])
--------------------------------------------------------------------------

    Molecular point group: c1
  Charge       = -1
  Multiplicity = 1
  Basis Set: AUG-CC-PVTZ
    Blend: AUG-CC-PVTZ
  Basis Set: (AUG-CC-PVTZ AUX)
    Blend: AUG-CC-PVTZ-JKFIT

    Orbital Energies [Eh]
    ---------------------

    Doubly Occupied:

       1A    -79.867601     2A    -20.411308     3A    -20.393782
       4A    -20.296158     5A    -20.295811     6A    -11.137811
       7A    -11.099099     8A     -7.385150     9A     -5.284229
      10A     -5.283170    11A     -5.281638    12A     -1.241501
      13A     -1.183308    14A     -1.089150    15A     -1.054431
      16A     -0.886209    17A     -0.706889    18A     -0.618863
      19A     -0.538953    20A     -0.512602    21A     -0.469666
      22A     -0.440091    23A     -0.430063    24A     -0.421195
      25A     -0.394470    26A     -0.376800    27A     -0.348438
      28A     -0.322725    29A     -0.302430    30A     -0.279901
      31A     -0.259775    32A     -0.245059    33A     -0.229973

  @DF-RHF Final Energy:  -719.75226057830048

   => Energetics <=

    Nuclear Repulsion Energy =            428.0401152855700388
    One-Electron Energy =               -1857.4082525310086567
    Two-Electron Energy =                 709.6158766671381954
    Total Energy =                       -719.7522605783004792
  Basis Set: (AUG-CC-PVTZ AUX)
    Blend: AUG-CC-PVTZ-RI
    Molecular point group: c1

    Geometry (in Angstrom), charge = -1, multiplicity = 1:

       Center              X                  Y                   Z               Mass
    ------------   -----------------  -----------------  -----------------  -----------------
         P           -0.822946075347     0.028262935111    -0.106857672777    30.973761998420
         O            0.743821924653    -0.481149064889    -0.314900672777    15.994914619570
         O           -0.979247775347    -0.118618664889     1.446070727223    15.994914619570
         O           -1.678362075347    -1.015614064889    -0.771769672777    15.994914619570
         O           -0.916438075347     1.500245935111    -0.416032672777    15.994914619570
         C            1.770180924653     0.396503935111     0.184306327223    12.000000000000
         C            3.103869924653    -0.284378064889    -0.031853672777    12.000000000000
         H            1.720825924653     1.353704935111    -0.343939672777     1.007825032230
         H            1.599720924653     0.588727935111     1.250199327223     1.007825032230
         H            3.142907924653    -1.228327064889     0.516395327223     1.007825032230
         H            3.257907924653    -0.487833064889    -1.094150672777     1.007825032230
         H            3.918892924653     0.355673935111     0.320242327223     1.007825032230
         H           -1.465177075347    -0.958333064889     1.718907327223     1.007825032230

  Basis Set: AUG-CC-PVTZ
    Blend: AUG-CC-PVTZ
  Basis Set: (AUG-CC-PVTZ AUX)
    Blend: AUG-CC-PVTZ-JKFIT
	 Reference Energy          =    -719.7522605783004792 [Eh]
	 Singles Energy            =      -0.0000000000000000 [Eh]
	 Same-Spin Energy          =      -0.4142751634839097 [Eh]
	 Opposite-Spin Energy      =      -1.2346569886851118 [Eh]
	 Correlation Energy        =      -1.6489321521690214 [Eh]
	 Total Energy              =    -721.4011927304694609 [Eh]

	 ================> DF-SCS-MP2 Energies <==================
	-----------------------------------------------------------
	 SCS Same-Spin Scale       =       0.3333333333333333 [-]
	 SCS Opposite-Spin Scale   =       1.2000000000000000 [-]
	 SCS Same-Spin Energy      =      -0.1380917211613032 [Eh]
	 SCS Opposite-Spin Energy  =      -1.4815883864221340 [Eh]
	 SCS Correlation Energy    =      -1.6196801075834373 [Eh]
	 SCS Total Energy          =    -721.3719406858839420 [Eh]
	-----------------------------------------------------------

  Dipole Moment: [D]
     X:     4.9764      Y:    -1.2053      Z:     3.3175     Total:     6.1011

*** Psi4 exiting successfully. Buy a developer a beer!
