                               Psi4 1.3.2 release

  ==> Input File <==

--------------------------------------------------------------------------
#psi4
#
memory 32 gb

molecule  {
-1 1
  P       -0.9206940     0.0325050    -0.1379180
  O        0.6421477    -0.4903286    -0.3421608
  O       -1.0869660    -0.1237460     1.5140700
  O       -1.7761100    -1.0113720    -0.8028300
  O       -1.0270512     1.5041813    -0.4443832
  C        1.6724330     0.4007460     0.1532460
  C        3.0061220    -0.2801360    -0.0629140
  H        1.6230780     1.3579470    -0.3750000
  H        1.5019730     0.5929700     1.2191390
  H        3.0451600    -1.2240850     0.4853350
  H        3.1601600    -0.4835910    -1.1252110
  H        3.8211450     0.3599160     0.2891820
  H       -1.5629250    -0.9540910     1.6878470
units angstrom
no_reorient  #important for SAPT in psi4, default
symmetry c1  #important for SAPT in psi4, default
}

set PROPERTIES_ORIGIN ["COM"]
properties('MP2/aug-cc-pvtz', properties = ['dipole'])
--------------------------------------------------------------------------

    Molecular point group: c1
  Charge       = -1
  Multiplicity = 1
  Basis Set: AUG-CC-PVTZ
    Blend: AUG-CC-PVTZ
  Basis Set: (AUG-CC-PVTZ AUX)
    Blend: AUG-CC-PVTZ-JKFIT

    Orbital Energies [Eh]
    ---------------------

    Doubly Occupied:

       1A    -79.879659     2A    -20.404351     3A    -20.401826
       4A    -20.304835     5A    -20.303874     6A    -11.142039
       7A    -11.101731     8A     -7.395209     9A     -5.293997
      10A     -5.293227    11A     -5.291846    12A     -1.226714
      13A     -1.177271    14A     -1.096558    15A     -1.060691
      16A     -0.889606    17A     -0.709859    18A     -0.604541
      19A     -0.533503    20A     -0.512621    21A     -0.464693
      22A     -0.443649    23A     -0.426723    24A     -0.420459
      25A     -0.395199    26A     -0.370994    27A     -0.353889
      28A     -0.328478    29A     -0.305754    30A     -0.284891
      31A     -0.265570    32A     -0.252081    33A     -0.237389

  @DF-RHF Final Energy:  -719.75573135887737

   => Energetics <=

    Nuclear Repulsion Energy =            424.0098712034284745
    One-Electron Energy =               -1849.1837489845988785
    Two-Electron Energy =                 705.4181464222930344
    Total Energy =                       -719.7557313588773695
  Basis Set: (AUG-CC-PVTZ AUX)
    Blend: AUG-CC-PVTZ-RI
    Molecular point group: c1

    Geometry (in Angstrom), charge = -1, multiplicity = 1:

       Center              X                  Y                   Z               Mass
    ------------   -----------------  -----------------  -----------------  -----------------
         P           -0.819521663853     0.031218492262    -0.120366246626    30.973761998420
         O            0.743320036147    -0.491615107738    -0.324609046626    15.994914619570
         O           -0.985793663853    -0.125032507738     1.531621753374    15.994914619570
         O           -1.674937663853    -1.012658507738    -0.785278246626    15.994914619570
         O           -0.925878863853     1.502894792262    -0.426831446626    15.994914619570
         C            1.773605336147     0.399459492262     0.170797753374    12.000000000000
         C            3.107294336147    -0.281422507738    -0.045362246626    12.000000000000
         H            1.724250336147     1.356660492262    -0.357448246626     1.007825032230
         H            1.603145336147     0.591683492262     1.236690753374     1.007825032230
         H            3.146332336147    -1.225371507738     0.502886753374     1.007825032230
         H            3.261332336147    -0.484877507738    -1.107659246626     1.007825032230
         H            3.922317336147     0.358629492262     0.306733753374     1.007825032230
         H           -1.461752663853    -0.955377507738     1.705398753374     1.007825032230

  Basis Set: AUG-CC-PVTZ
    Blend: AUG-CC-PVTZ
  Basis Set: (AUG-CC-PVTZ AUX)
    Blend: AUG-CC-PVTZ-JKFIT
	 Reference Energy          =    -719.7557313588773695 [Eh]
	 Singles Energy            =      -0.0000000000000000 [Eh]
	 Same-Spin Energy          =      -0.4147747554564830 [Eh]
	 Opposite-Spin Energy      =      -1.2370951275006761 [Eh]
	 Correlation Energy        =      -1.6518698829571590 [Eh]
	 Total Energy              =    -721.4076012418345272 [Eh]

	 ================> DF-SCS-MP2 Energies <==================
	-----------------------------------------------------------
	 SCS Same-Spin Scale       =       0.3333333333333333 [-]
	 SCS Opposite-Spin Scale   =       1.2000000000000000 [-]
	 SCS Same-Spin Energy      =      -0.1382582518188277 [Eh]
	 SCS Opposite-Spin Energy  =      -1.4845141530008112 [Eh]
	 SCS Correlation Energy    =      -1.6227724048196390 [Eh]
	 SCS Total Energy          =    -721.3785037636970401 [Eh]
	-----------------------------------------------------------

  Dipole Moment: [D]
     X:     5.1998      Y:    -1.0659      Z:     2.6922     Total:     5.9516

*** Psi4 exiting successfully. Buy a developer a beer!
