                               Psi4 1.3.2 release

  ==> Input File <==

--------------------------------------------------------------------------
#psi4
#
memory 32 gb

molecule  {
-1 1
  P       -0.9206940     0.0325050    -0.1379180
  O        0.6460740    -0.4769070    -0.3459610
  O       -1.0869660    -0.1237460     1.5140700
  O       -1.7761100    -1.0113720    -0.8028300
  O       -1.0141860     1.5044880    -0.4470930
  C        1.6011460     0.3397875     0.1185730
  C        3.0061220    -0.2801360    -0.0629140
  H        1.6230780     1.3579470    -0.3750000
  H        1.5019730     0.5929700     1.2191390
  H        3.0451600    -1.2240850     0.4853350
  H        3.1601600    -0.4835910    -1.1252110
  H        3.8211450     0.3599160     0.2891820
  H       -1.5629250    -0.9540910     1.6878470
units angstrom
no_reorient  #important for SAPT in psi4, default
symmetry c1  #important for SAPT in psi4, default
}

set PROPERTIES_ORIGIN ["COM"]
properties('MP2/aug-cc-pvtz', properties = ['dipole'])
--------------------------------------------------------------------------

    Molecular point group: c1
  Charge       = -1
  Multiplicity = 1
  Basis Set: AUG-CC-PVTZ
    Blend: AUG-CC-PVTZ
  Basis Set: (AUG-CC-PVTZ AUX)
    Blend: AUG-CC-PVTZ-JKFIT

    Orbital Energies [Eh]
    ---------------------

    Doubly Occupied:

       1A    -79.886655     2A    -20.410034     3A    -20.409313
       4A    -20.309887     5A    -20.308599     6A    -11.142262
       7A    -11.097406     8A     -7.402217     9A     -5.301033
      10A     -5.300256    11A     -5.298745    12A     -1.256947
      13A     -1.194653    14A     -1.103603    15A     -1.065550
      16A     -0.875929    17A     -0.706460    18A     -0.616746
      19A     -0.546709    20A     -0.512257    21A     -0.470818
      22A     -0.459498    23A     -0.430709    24A     -0.425253
      25A     -0.397649    26A     -0.367492    27A     -0.355030
      28A     -0.320590    29A     -0.292457    30A     -0.288741
      31A     -0.269756    32A     -0.257190    33A     -0.242453

  @DF-RHF Final Energy:  -719.75071827189231

   => Energetics <=

    Nuclear Repulsion Energy =            426.0787875782291394
    One-Electron Energy =               -1853.0132184565927673
    Two-Electron Energy =                 707.1837126064713175
    Total Energy =                       -719.7507182718923104
  Basis Set: (AUG-CC-PVTZ AUX)
    Blend: AUG-CC-PVTZ-RI
    Molecular point group: c1

    Geometry (in Angstrom), charge = -1, multiplicity = 1:

       Center              X                  Y                   Z               Mass
    ------------   -----------------  -----------------  -----------------  -----------------
         P           -0.814826754646     0.035313832227    -0.116204635814    30.973761998420
         O            0.751941245354    -0.474098167773    -0.324247635814    15.994914619570
         O           -0.981098754646    -0.120937167773     1.535783364186    15.994914619570
         O           -1.670242754646    -1.008563167773    -0.781116635814    15.994914619570
         O           -0.908318754646     1.507296832227    -0.425379635814    15.994914619570
         C            1.707013245354     0.342596332227     0.140286364186    12.000000000000
         C            3.111989245354    -0.277327167773    -0.041200635814    12.000000000000
         H            1.728945245354     1.360755832227    -0.353286635814     1.007825032230
         H            1.607840245354     0.595778832227     1.240852364186     1.007825032230
         H            3.151027245354    -1.221276167773     0.507048364186     1.007825032230
         H            3.266027245354    -0.480782167773    -1.103497635814     1.007825032230
         H            3.927012245354     0.362724832227     0.310895364186     1.007825032230
         H           -1.457057754646    -0.951282167773     1.709560364186     1.007825032230

  Basis Set: AUG-CC-PVTZ
    Blend: AUG-CC-PVTZ
  Basis Set: (AUG-CC-PVTZ AUX)
    Blend: AUG-CC-PVTZ-JKFIT
	 Reference Energy          =    -719.7507182718923104 [Eh]
	 Singles Energy            =      -0.0000000000000000 [Eh]
	 Same-Spin Energy          =      -0.4148097266290039 [Eh]
	 Opposite-Spin Energy      =      -1.2360491832037805 [Eh]
	 Correlation Energy        =      -1.6508589098327846 [Eh]
	 Total Energy              =    -721.4015771817250879 [Eh]

	 ================> DF-SCS-MP2 Energies <==================
	-----------------------------------------------------------
	 SCS Same-Spin Scale       =       0.3333333333333333 [-]
	 SCS Opposite-Spin Scale   =       1.2000000000000000 [-]
	 SCS Same-Spin Energy      =      -0.1382699088763346 [Eh]
	 SCS Opposite-Spin Energy  =      -1.4832590198445366 [Eh]
	 SCS Correlation Energy    =      -1.6215289287208712 [Eh]
	 SCS Total Energy          =    -721.3722472006131738 [Eh]
	-----------------------------------------------------------

  Dipole Moment: [D]
     X:     4.6350      Y:    -1.2844      Z:     2.5857     Total:     5.4607

*** Psi4 exiting successfully. Buy a developer a beer!
