                               Psi4 1.3.2 release

  ==> Input File <==

--------------------------------------------------------------------------
#psi4
#
memory 32 gb

molecule  {
-1 1
  P       -0.9206940     0.0325050    -0.1379180
  O        0.6373490    -0.4684887    -0.3426646
  O       -1.0869660    -0.1237460     1.5140700
  O       -1.7761100    -1.0113720    -0.8028300
  O       -1.0141860     1.5044880    -0.4470930
  C        1.6724330     0.4007460     0.1532460
  C        3.0122315    -0.2697608    -0.0574965
  H        1.6230780     1.3579470    -0.3750000
  H        1.5019730     0.5929700     1.2191390
  H        3.0451600    -1.2240850     0.4853350
  H        3.1601600    -0.4835910    -1.1252110
  H        3.8211450     0.3599160     0.2891820
  H       -1.5629250    -0.9540910     1.6878470
units angstrom
no_reorient  #important for SAPT in psi4, default
symmetry c1  #important for SAPT in psi4, default
}

set PROPERTIES_ORIGIN ["COM"]
properties('MP2/aug-cc-pvtz', properties = ['dipole'])
--------------------------------------------------------------------------

    Molecular point group: c1
  Charge       = -1
  Multiplicity = 1
  Basis Set: AUG-CC-PVTZ
    Blend: AUG-CC-PVTZ
  Basis Set: (AUG-CC-PVTZ AUX)
    Blend: AUG-CC-PVTZ-JKFIT

    Orbital Energies [Eh]
    ---------------------

    Doubly Occupied:

       1A    -79.878998     2A    -20.404436     3A    -20.400834
       4A    -20.304688     5A    -20.303049     6A    -11.141380
       7A    -11.101814     8A     -7.394653     9A     -5.293473
      10A     -5.292695    11A     -5.291280    12A     -1.229531
      13A     -1.179046    14A     -1.096269    15A     -1.060465
      16A     -0.890123    17A     -0.710801    18A     -0.605346
      19A     -0.535218    20A     -0.512556    21A     -0.465643
      22A     -0.444705    23A     -0.427686    24A     -0.424313
      25A     -0.393881    26A     -0.369526    27A     -0.355072
      28A     -0.326843    29A     -0.304960    30A     -0.284835
      31A     -0.265562    32A     -0.251504    33A     -0.237140

  @DF-RHF Final Energy:  -719.75696383847571

   => Energetics <=

    Nuclear Repulsion Energy =            424.5315428271982228
    One-Electron Energy =               -1850.2203616611789130
    Two-Electron Energy =                 705.9318549955050912
    Total Energy =                       -719.7569638384757127
  Basis Set: (AUG-CC-PVTZ AUX)
    Blend: AUG-CC-PVTZ-RI
    Molecular point group: c1

    Geometry (in Angstrom), charge = -1, multiplicity = 1:

       Center              X                  Y                   Z               Mass
    ------------   -----------------  -----------------  -----------------  -----------------
         P           -0.821140354883     0.027388620610    -0.120475116243    30.973761998420
         O            0.736902645117    -0.473605079390    -0.325221716243    15.994914619570
         O           -0.987412354883    -0.128862379390     1.531512883757    15.994914619570
         O           -1.676556354883    -1.016488379390    -0.785387116243    15.994914619570
         O           -0.914632354883     1.499371620610    -0.429650116243    15.994914619570
         C            1.771986645117     0.395629620610     0.170688883757    12.000000000000
         C            3.111785145117    -0.274877179390    -0.040053616243    12.000000000000
         H            1.722631645117     1.352830620610    -0.357557116243     1.007825032230
         H            1.601526645117     0.587853620610     1.236581883757     1.007825032230
         H            3.144713645117    -1.229201379390     0.502777883757     1.007825032230
         H            3.259713645117    -0.488707379390    -1.107768116243     1.007825032230
         H            3.920698645117     0.354799620610     0.306624883757     1.007825032230
         H           -1.463371354883    -0.959207379390     1.705289883757     1.007825032230

  Basis Set: AUG-CC-PVTZ
    Blend: AUG-CC-PVTZ
  Basis Set: (AUG-CC-PVTZ AUX)
    Blend: AUG-CC-PVTZ-JKFIT
	 Reference Energy          =    -719.7569638384757127 [Eh]
	 Singles Energy            =      -0.0000000000000000 [Eh]
	 Same-Spin Energy          =      -0.4145637291222790 [Eh]
	 Opposite-Spin Energy      =      -1.2363946779879440 [Eh]
	 Correlation Energy        =      -1.6509584071102230 [Eh]
	 Total Energy              =    -721.4079222455859508 [Eh]

	 ================> DF-SCS-MP2 Energies <==================
	-----------------------------------------------------------
	 SCS Same-Spin Scale       =       0.3333333333333333 [-]
	 SCS Opposite-Spin Scale   =       1.2000000000000000 [-]
	 SCS Same-Spin Energy      =      -0.1381879097074263 [Eh]
	 SCS Opposite-Spin Energy  =      -1.4836736135855328 [Eh]
	 SCS Correlation Energy    =      -1.6218615232929592 [Eh]
	 SCS Total Energy          =    -721.3788253617686905 [Eh]
	-----------------------------------------------------------

  Dipole Moment: [D]
     X:     5.1989      Y:    -1.1136      Z:     2.7000     Total:     5.9631

*** Psi4 exiting successfully. Buy a developer a beer!
