                               Psi4 1.3.2 release

  ==> Input File <==

--------------------------------------------------------------------------
#psi4
#
memory 32 gb

molecule  {
-1 1
  P       -0.9006339     0.0803456    -0.1120623
  O        0.6460740    -0.4769070    -0.3459610
  O       -1.0869660    -0.1237460     1.5140700
  O       -1.7761100    -1.0113720    -0.8028300
  O       -1.0141860     1.5044880    -0.4470930
  C        1.6366100     0.4324957     0.1685487
  C        3.0061220    -0.2801360    -0.0629140
  H        1.6230780     1.3579470    -0.3750000
  H        1.5019730     0.5929700     1.2191390
  H        3.0451600    -1.2240850     0.4853350
  H        3.1601600    -0.4835910    -1.1252110
  H        3.8211450     0.3599160     0.2891820
  H       -1.5629250    -0.9540910     1.6878470
units angstrom
no_reorient  #important for SAPT in psi4, default
symmetry c1  #important for SAPT in psi4, default
}

set PROPERTIES_ORIGIN ["COM"]
properties('MP2/aug-cc-pvtz', properties = ['dipole'])
--------------------------------------------------------------------------

    Molecular point group: c1
  Charge       = -1
  Multiplicity = 1
  Basis Set: AUG-CC-PVTZ
    Blend: AUG-CC-PVTZ
  Basis Set: (AUG-CC-PVTZ AUX)
    Blend: AUG-CC-PVTZ-JKFIT

    Orbital Energies [Eh]
    ---------------------

    Doubly Occupied:

       1A    -79.880124     2A    -20.408841     3A    -20.404250
       4A    -20.312782     5A    -20.293251     6A    -11.140907
       7A    -11.102228     8A     -7.396053     9A     -5.294754
      10A     -5.294108    11A     -5.292633    12A     -1.233261
      13A     -1.184352    14A     -1.108392    15A     -1.041874
      16A     -0.879467    17A     -0.715782    18A     -0.612656
      19A     -0.538490    20A     -0.518717    21A     -0.464002
      22A     -0.444624    23A     -0.428532    24A     -0.417545
      25A     -0.401999    26A     -0.374972    27A     -0.344219
      28A     -0.331836    29A     -0.313656    30A     -0.283279
      31A     -0.274071    32A     -0.238577    33A     -0.229428

  @DF-RHF Final Energy:  -719.74807100754583

   => Energetics <=

    Nuclear Repulsion Energy =            424.7003594729477527
    One-Electron Energy =               -1850.4975337992516415
    Two-Electron Energy =                 706.0491033187579433
    Total Energy =                       -719.7480710075458319
  Basis Set: (AUG-CC-PVTZ AUX)
    Blend: AUG-CC-PVTZ-RI
    Molecular point group: c1

    Geometry (in Angstrom), charge = -1, multiplicity = 1:

       Center              X                  Y                   Z               Mass
    ------------   -----------------  -----------------  -----------------  -----------------
         P           -0.803141867915     0.062400079705    -0.101553356173    30.973761998420
         O            0.743566032085    -0.494852520295    -0.335452056173    15.994914619570
         O           -0.989473967915    -0.141691520295     1.524578943827    15.994914619570
         O           -1.678617967915    -1.029317520295    -0.792321056173    15.994914619570
         O           -0.916693967915     1.486542479705    -0.436584056173    15.994914619570
         C            1.734102032085     0.414550179705     0.179057643827    12.000000000000
         C            3.103614032085    -0.298081520295    -0.052405056173    12.000000000000
         H            1.720570032085     1.340001479705    -0.364491056173     1.007825032230
         H            1.599465032085     0.575024479705     1.229647943827     1.007825032230
         H            3.142652032085    -1.242030520295     0.495843943827     1.007825032230
         H            3.257652032085    -0.501536520295    -1.114702056173     1.007825032230
         H            3.918637032085     0.341970479705     0.299690943827     1.007825032230
         H           -1.465432967915    -0.972036520295     1.698355943827     1.007825032230

  Basis Set: AUG-CC-PVTZ
    Blend: AUG-CC-PVTZ
  Basis Set: (AUG-CC-PVTZ AUX)
    Blend: AUG-CC-PVTZ-JKFIT
	 Reference Energy          =    -719.7480710075458319 [Eh]
	 Singles Energy            =      -0.0000000000000000 [Eh]
	 Same-Spin Energy          =      -0.4147762361115209 [Eh]
	 Opposite-Spin Energy      =      -1.2372198440764595 [Eh]
	 Correlation Energy        =      -1.6519960801879803 [Eh]
	 Total Energy              =    -721.4000670877337598 [Eh]

	 ================> DF-SCS-MP2 Energies <==================
	-----------------------------------------------------------
	 SCS Same-Spin Scale       =       0.3333333333333333 [-]
	 SCS Opposite-Spin Scale   =       1.2000000000000000 [-]
	 SCS Same-Spin Energy      =      -0.1382587453705070 [Eh]
	 SCS Opposite-Spin Energy  =      -1.4846638128917513 [Eh]
	 SCS Correlation Energy    =      -1.6229225582622582 [Eh]
	 SCS Total Energy          =    -721.3709935658081349 [Eh]
	-----------------------------------------------------------

  Dipole Moment: [D]
     X:     5.2961      Y:    -0.4872      Z:     3.0035     Total:     6.1079

*** Psi4 exiting successfully. Buy a developer a beer!
