                               Psi4 1.4a3.dev225

  ==> Input File <==

--------------------------------------------------------------------------
#psi4
#
memory 32 gb

molecule  {
-1 1
  P       -0.9277810     0.0961130     0.0976350
  O        0.6463760     0.5937280    -0.0402780
  O       -1.0769050    -0.8632740    -1.2547320
  O       -1.7527520     1.3345500    -0.1191100
  O       -1.0827680    -0.7945940     1.3071650
  C        1.6614230    -0.4105840     0.1296040
  C        3.0075080     0.2459920    -0.0890990
  H        1.5881620    -0.8381400     1.1347230
  H        1.5022440    -1.2178370    -0.5954040
  H        3.0701330     0.6620790    -1.0974680
  H        3.1582490     1.0535750     0.6314230
  H        3.8108830    -0.4860100     0.0361070
  H       -1.0976998    -1.7720265    -0.9673245
units angstrom
no_reorient  #important for SAPT in psi4, default
symmetry c1  #important for SAPT in psi4, default
}

set PROPERTIES_ORIGIN ["COM"]
properties('MP2/aug-cc-pvtz', properties = ['dipole'])
--------------------------------------------------------------------------

    Molecular point group: c1
  Charge       = -1
  Multiplicity = 1
  Basis Set: AUG-CC-PVTZ
    Blend: AUG-CC-PVTZ
  Basis Set: (AUG-CC-PVTZ AUX)
    Blend: AUG-CC-PVTZ-JKFIT

    Orbital Energies [Eh]
    ---------------------

    Doubly Occupied:

       1A    -79.880390     2A    -20.405735     3A    -20.402742
       4A    -20.311159     5A    -20.297228     6A    -11.146220
       7A    -11.104029     8A     -7.395901     9A     -5.294740
      10A     -5.293914    11A     -5.292508    12A     -1.232436
      13A     -1.184518    14A     -1.097942    15A     -1.059332
      16A     -0.892223    17A     -0.714268    18A     -0.608534
      19A     -0.539654    20A     -0.518165    21A     -0.471938
      22A     -0.449093    23A     -0.427850    24A     -0.419765
      25A     -0.394348    26A     -0.378473    27A     -0.344372
      28A     -0.336642    29A     -0.309189    30A     -0.284950
      31A     -0.267196    32A     -0.250302    33A     -0.235951

  @DF-RHF Final Energy:  -719.75607095672206

   => Energetics <=

    Nuclear Repulsion Energy =            424.5628613250005969
    One-Electron Energy =               -1850.1544564239884494
    Two-Electron Energy =                 705.8355241422658537
    Total Energy =                       -719.7560709567220556
  Basis Set: (AUG-CC-PVTZ AUX)
    Blend: AUG-CC-PVTZ-RI
    Molecular point group: c1

    Geometry (in Angstrom), charge = -1, multiplicity = 1:

       Center              X                  Y                   Z               Mass
    ------------   -----------------  -----------------  -----------------  -----------------
         P           -0.825191312083     0.074446101831     0.090156700384    30.973761998420
         O            0.748965687917     0.572061101831    -0.047756299616    15.994914619570
         O           -0.974315312083    -0.884940898169    -1.262210299616    15.994914619570
         O           -1.650162312083     1.312883101831    -0.126588299616    15.994914619570
         O           -0.980178312083    -0.816260898169     1.299686700384    15.994914619570
         C            1.764012687917    -0.432250898169     0.122125700384    12.000000000000
         C            3.110097687917     0.224325101831    -0.096577299616    12.000000000000
         H            1.690751687917    -0.859806898169     1.127244700384     1.007825032230
         H            1.604833687917    -1.239503898169    -0.602882299616     1.007825032230
         H            3.172722687917     0.640412101831    -1.104946299616     1.007825032230
         H            3.260838687917     1.031908101831     0.623944700384     1.007825032230
         H            3.913472687917    -0.507676898169     0.028628700384     1.007825032230
         H           -0.995110112083    -1.793693398169    -0.974802799616     1.007825032230

  Basis Set: AUG-CC-PVTZ
    Blend: AUG-CC-PVTZ
  Basis Set: (AUG-CC-PVTZ AUX)
    Blend: AUG-CC-PVTZ-JKFIT
	 Reference Energy          =    -719.7560709567220556 [Eh]
	 Singles Energy            =      -0.0000000000000000 [Eh]
	 Same-Spin Energy          =      -0.4146423615403545 [Eh]
	 Opposite-Spin Energy      =      -1.2365145627312990 [Eh]
	 Correlation Energy        =      -1.6511569242716535 [Eh]
	 Total Energy              =    -721.4072278809936734 [Eh]

	 ================> DF-SCS-MP2 Energies <==================
	-----------------------------------------------------------
	 SCS Same-Spin Scale       =       0.3333333333333333 [-]
	 SCS Opposite-Spin Scale   =       1.2000000000000000 [-]
	 SCS Same-Spin Energy      =      -0.1382141205134515 [Eh]
	 SCS Opposite-Spin Energy  =      -1.4838174752775588 [Eh]
	 SCS Correlation Energy    =      -1.6220315957910103 [Eh]
	 SCS Total Energy          =    -721.3781025525130417 [Eh]
	-----------------------------------------------------------

  Dipole Moment: [D]
     X:     5.8671      Y:    -2.9816      Z:    -1.3694     Total:     6.7222

*** Psi4 exiting successfully. Buy a developer a beer!
