                               Psi4 1.3.2 release

  ==> Input File <==

--------------------------------------------------------------------------
#psi4
#
memory 32 gb

molecule  {
-1 1
  P       -0.9206940     0.0325050    -0.1379180
  O        0.4573733    -0.4155537    -0.3209044
  O       -1.0869660    -0.1237460     1.5140700
  O       -1.7761100    -1.0113720    -0.8028300
  O       -1.0141860     1.5044880    -0.4470930
  C        1.6724330     0.4007460     0.1532460
  C        3.0061220    -0.2801360    -0.0629140
  H        1.6230780     1.3579470    -0.3750000
  H        1.5019730     0.5929700     1.2191390
  H        3.0451600    -1.2240850     0.4853350
  H        3.1601600    -0.4835910    -1.1252110
  H        3.8211450     0.3599160     0.2891820
  H       -1.5629250    -0.9540910     1.6878470
units angstrom
no_reorient  #important for SAPT in psi4, default
symmetry c1  #important for SAPT in psi4, default
}

set PROPERTIES_ORIGIN ["COM"]
properties('MP2/aug-cc-pvtz', properties = ['dipole'])
--------------------------------------------------------------------------

    Molecular point group: c1
  Charge       = -1
  Multiplicity = 1
  Basis Set: AUG-CC-PVTZ
    Blend: AUG-CC-PVTZ
  Basis Set: (AUG-CC-PVTZ AUX)
    Blend: AUG-CC-PVTZ-JKFIT

    Orbital Energies [Eh]
    ---------------------

    Doubly Occupied:

       1A    -79.846150     2A    -20.398537     3A    -20.386319
       4A    -20.283538     5A    -20.281792     6A    -11.168554
       7A    -11.120840     8A     -7.367341     9A     -5.267089
      10A     -5.264990    11A     -5.263377    12A     -1.256780
      13A     -1.167433    14A     -1.075257    15A     -1.043345
      16A     -0.915342    17A     -0.733845    18A     -0.599974
      19A     -0.539620    20A     -0.517802    21A     -0.466341
      22A     -0.453288    23A     -0.440708    24A     -0.431859
      25A     -0.392910    26A     -0.380653    27A     -0.348442
      28A     -0.321357    29A     -0.315475    30A     -0.271053
      31A     -0.248367    32A     -0.232873    33A     -0.217115

  @DF-RHF Final Energy:  -719.72819209482464

   => Energetics <=

    Nuclear Repulsion Energy =            429.9324267020363664
    One-Electron Energy =               -1861.2845087347807294
    Two-Electron Energy =                 711.6238899379197846
    Total Energy =                       -719.7281920948246352
  Basis Set: (AUG-CC-PVTZ AUX)
    Blend: AUG-CC-PVTZ-RI
    Molecular point group: c1

    Geometry (in Angstrom), charge = -1, multiplicity = 1:

       Center              X                  Y                   Z               Mass
    ------------   -----------------  -----------------  -----------------  -----------------
         P           -0.797524345273     0.021611130500    -0.122739449857    30.973761998420
         O            0.580542954727    -0.426447569500    -0.305725849857    15.994914619570
         O           -0.963796345273    -0.134639869500     1.529248550143    15.994914619570
         O           -1.652940345273    -1.022265869500    -0.787651449857    15.994914619570
         O           -0.891016345273     1.493594130500    -0.431914449857    15.994914619570
         C            1.795602654727     0.389852130500     0.168424550143    12.000000000000
         C            3.129291654727    -0.291029869500    -0.047735449857    12.000000000000
         H            1.746247654727     1.347053130500    -0.359821449857     1.007825032230
         H            1.625142654727     0.582076130500     1.234317550143     1.007825032230
         H            3.168329654727    -1.234978869500     0.500513550143     1.007825032230
         H            3.283329654727    -0.494484869500    -1.110032449857     1.007825032230
         H            3.944314654727     0.349022130500     0.304360550143     1.007825032230
         H           -1.439755345273    -0.964984869500     1.703025550143     1.007825032230

  Basis Set: AUG-CC-PVTZ
    Blend: AUG-CC-PVTZ
  Basis Set: (AUG-CC-PVTZ AUX)
    Blend: AUG-CC-PVTZ-JKFIT
	 Reference Energy          =    -719.7281920948246352 [Eh]
	 Singles Energy            =      -0.0000000000000000 [Eh]
	 Same-Spin Energy          =      -0.4128499819863825 [Eh]
	 Opposite-Spin Energy      =      -1.2321377778553653 [Eh]
	 Correlation Energy        =      -1.6449877598417477 [Eh]
	 Total Energy              =    -721.3731798546664322 [Eh]

	 ================> DF-SCS-MP2 Energies <==================
	-----------------------------------------------------------
	 SCS Same-Spin Scale       =       0.3333333333333333 [-]
	 SCS Opposite-Spin Scale   =       1.2000000000000000 [-]
	 SCS Same-Spin Energy      =      -0.1376166606621275 [Eh]
	 SCS Opposite-Spin Energy  =      -1.4785653334264384 [Eh]
	 SCS Correlation Energy    =      -1.6161819940885658 [Eh]
	 SCS Total Energy          =    -721.3443740889132414 [Eh]
	-----------------------------------------------------------

  Dipole Moment: [D]
     X:     6.8009      Y:    -1.2598      Z:     2.6654     Total:     7.4124

*** Psi4 exiting successfully. Buy a developer a beer!
