                               Psi4 1.3.2 release

  ==> Input File <==

--------------------------------------------------------------------------
#psi4
#
memory 32 gb

molecule  {
-1 1
  P       -0.9206940     0.0325050    -0.1379180
  O        0.6548772    -0.4852584    -0.3492194
  O       -1.0869660    -0.1237460     1.5140700
  O       -1.7761100    -1.0113720    -0.8028300
  O       -1.0141860     1.5044880    -0.4470930
  C        1.6724330     0.4007460     0.1532460
  C        2.9999109    -0.2904594    -0.0683150
  H        1.6230780     1.3579470    -0.3750000
  H        1.5019730     0.5929700     1.2191390
  H        3.0451600    -1.2240850     0.4853350
  H        3.1601600    -0.4835910    -1.1252110
  H        3.8211450     0.3599160     0.2891820
  H       -1.5629250    -0.9540910     1.6878470
units angstrom
no_reorient  #important for SAPT in psi4, default
symmetry c1  #important for SAPT in psi4, default
}

set PROPERTIES_ORIGIN ["COM"]
properties('MP2/aug-cc-pvtz', properties = ['dipole'])
--------------------------------------------------------------------------

    Molecular point group: c1
  Charge       = -1
  Multiplicity = 1
  Basis Set: AUG-CC-PVTZ
    Blend: AUG-CC-PVTZ
  Basis Set: (AUG-CC-PVTZ AUX)
    Blend: AUG-CC-PVTZ-JKFIT

    Orbital Energies [Eh]
    ---------------------

    Doubly Occupied:

       1A    -79.881408     2A    -20.406206     3A    -20.400373
       4A    -20.305836     5A    -20.305664     6A    -11.139697
       7A    -11.100181     8A     -7.396779     9A     -5.295547
      10A     -5.294805    11A     -5.293408    12A     -1.226561
      13A     -1.178596    14A     -1.097904    15A     -1.062017
      16A     -0.887182    17A     -0.708287    18A     -0.605133
      19A     -0.533332    20A     -0.513290    21A     -0.465543
      22A     -0.443084    23A     -0.427108    24A     -0.416239
      25A     -0.396509    26A     -0.371772    27A     -0.354511
      28A     -0.328093    29A     -0.304079    30A     -0.285379
      31A     -0.266329    32A     -0.253319    33A     -0.238861

  @DF-RHF Final Energy:  -719.75548975977529

   => Energetics <=

    Nuclear Repulsion Energy =            423.9324474848838804
    One-Electron Energy =               -1849.0098139316642119
    Two-Electron Energy =                 705.3218766870051013
    Total Energy =                       -719.7554897597752870
  Basis Set: (AUG-CC-PVTZ AUX)
    Blend: AUG-CC-PVTZ-RI
    Molecular point group: c1

    Geometry (in Angstrom), charge = -1, multiplicity = 1:

       Center              X                  Y                   Z               Mass
    ------------   -----------------  -----------------  -----------------  -----------------
         P           -0.822200470639     0.031521513312    -0.118597798079    30.973761998420
         O            0.753370729361    -0.486241886688    -0.329899198079    15.994914619570
         O           -0.988472470639    -0.124729486688     1.533390201921    15.994914619570
         O           -1.677616470639    -1.012355486688    -0.783509798079    15.994914619570
         O           -0.915692470639     1.503504513312    -0.427772798079    15.994914619570
         C            1.770926529361     0.399762513312     0.172566201921    12.000000000000
         C            3.098404429361    -0.291442886688    -0.048994798079    12.000000000000
         H            1.721571529361     1.356963513312    -0.355679798079     1.007825032230
         H            1.600466529361     0.591986513312     1.238459201921     1.007825032230
         H            3.143653529361    -1.225068486688     0.504655201921     1.007825032230
         H            3.258653529361    -0.484574486688    -1.105890798079     1.007825032230
         H            3.919638529361     0.358932513312     0.308502201921     1.007825032230
         H           -1.464431470639    -0.955074486688     1.707167201921     1.007825032230

  Basis Set: AUG-CC-PVTZ
    Blend: AUG-CC-PVTZ
  Basis Set: (AUG-CC-PVTZ AUX)
    Blend: AUG-CC-PVTZ-JKFIT
	 Reference Energy          =    -719.7554897597752870 [Eh]
	 Singles Energy            =      -0.0000000000000000 [Eh]
	 Same-Spin Energy          =      -0.4148976175338130 [Eh]
	 Opposite-Spin Energy      =      -1.2373099632118107 [Eh]
	 Correlation Energy        =      -1.6522075807456238 [Eh]
	 Total Energy              =    -721.4076973405209401 [Eh]

	 ================> DF-SCS-MP2 Energies <==================
	-----------------------------------------------------------
	 SCS Same-Spin Scale       =       0.3333333333333333 [-]
	 SCS Opposite-Spin Scale   =       1.2000000000000000 [-]
	 SCS Same-Spin Energy      =      -0.1382992058446043 [Eh]
	 SCS Opposite-Spin Energy  =      -1.4847719558541728 [Eh]
	 SCS Correlation Energy    =      -1.6230711616987772 [Eh]
	 SCS Total Energy          =    -721.3785609214741044 [Eh]
	-----------------------------------------------------------

  Dipole Moment: [D]
     X:     5.0425      Y:    -1.0931      Z:     2.7010     Total:     5.8238

*** Psi4 exiting successfully. Buy a developer a beer!
