                               Psi4 1.3.2 release

  ==> Input File <==

--------------------------------------------------------------------------
#psi4
#
memory 32 gb

molecule  {
-1 1
  P       -0.9206940     0.0325050    -0.1379180
  O        0.6448480    -0.4746472    -0.3602224
  O       -1.1006637    -0.1189303     1.5130827
  O       -1.7761100    -1.0113720    -0.8028300
  O       -1.0141860     1.5044880    -0.4470930
  C        1.6724330     0.4007460     0.1532460
  C        3.0061220    -0.2801360    -0.0629140
  H        1.6230780     1.3579470    -0.3750000
  H        1.5019730     0.5929700     1.2191390
  H        3.0451600    -1.2240850     0.4853350
  H        3.1601600    -0.4835910    -1.1252110
  H        3.8211450     0.3599160     0.2891820
  H       -1.5629250    -0.9540910     1.6878470
units angstrom
no_reorient  #important for SAPT in psi4, default
symmetry c1  #important for SAPT in psi4, default
}

set PROPERTIES_ORIGIN ["COM"]
properties('MP2/aug-cc-pvtz', properties = ['dipole'])
--------------------------------------------------------------------------

    Molecular point group: c1
  Charge       = -1
  Multiplicity = 1
  Basis Set: AUG-CC-PVTZ
    Blend: AUG-CC-PVTZ
  Basis Set: (AUG-CC-PVTZ AUX)
    Blend: AUG-CC-PVTZ-JKFIT

    Orbital Energies [Eh]
    ---------------------

    Doubly Occupied:

       1A    -79.879981     2A    -20.405727     3A    -20.401517
       4A    -20.304410     5A    -20.303618     6A    -11.141309
       7A    -11.101438     8A     -7.395487     9A     -5.294252
      10A     -5.293553    11A     -5.292104    12A     -1.227538
      13A     -1.179392    14A     -1.096364    15A     -1.060635
      16A     -0.889195    17A     -0.709737    18A     -0.605277
      19A     -0.534709    20A     -0.513352    21A     -0.465270
      22A     -0.444117    23A     -0.426733    24A     -0.420865
      25A     -0.395005    26A     -0.371466    27A     -0.354290
      28A     -0.327943    29A     -0.305683    30A     -0.284452
      31A     -0.265360    32A     -0.251852    33A     -0.237346

  @DF-RHF Final Energy:  -719.75628702330584

   => Energetics <=

    Nuclear Repulsion Energy =            424.0670855033438897
    One-Electron Energy =               -1849.2867901538425031
    Two-Electron Energy =                 705.4634176271928254
    Total Energy =                       -719.7562870233058447
  Basis Set: (AUG-CC-PVTZ AUX)
    Blend: AUG-CC-PVTZ-RI
    Molecular point group: c1

    Geometry (in Angstrom), charge = -1, multiplicity = 1:

       Center              X                  Y                   Z               Mass
    ------------   -----------------  -----------------  -----------------  -----------------
         P           -0.819760665557     0.028556460118    -0.117582026493    30.973761998420
         O            0.745781334443    -0.478595739882    -0.339886426493    15.994914619570
         O           -0.999730365557    -0.122878839882     1.533418673507    15.994914619570
         O           -1.675176665557    -1.015320539882    -0.782494026493    15.994914619570
         O           -0.913252665557     1.500539460118    -0.426757026493    15.994914619570
         C            1.773366334443     0.396797460118     0.173581973507    12.000000000000
         C            3.107055334443    -0.284084539882    -0.042578026493    12.000000000000
         H            1.724011334443     1.353998460118    -0.354664026493     1.007825032230
         H            1.602906334443     0.589021460118     1.239474973507     1.007825032230
         H            3.146093334443    -1.228033539882     0.505670973507     1.007825032230
         H            3.261093334443    -0.487539539882    -1.104875026493     1.007825032230
         H            3.922078334443     0.355967460118     0.309517973507     1.007825032230
         H           -1.461991665557    -0.958039539882     1.708182973507     1.007825032230

  Basis Set: AUG-CC-PVTZ
    Blend: AUG-CC-PVTZ
  Basis Set: (AUG-CC-PVTZ AUX)
    Blend: AUG-CC-PVTZ-JKFIT
	 Reference Energy          =    -719.7562870233058447 [Eh]
	 Singles Energy            =      -0.0000000000000000 [Eh]
	 Same-Spin Energy          =      -0.4147051092051098 [Eh]
	 Opposite-Spin Energy      =      -1.2368728663413666 [Eh]
	 Correlation Energy        =      -1.6515779755464763 [Eh]
	 Total Energy              =    -721.4078649988523466 [Eh]

	 ================> DF-SCS-MP2 Energies <==================
	-----------------------------------------------------------
	 SCS Same-Spin Scale       =       0.3333333333333333 [-]
	 SCS Opposite-Spin Scale   =       1.2000000000000000 [-]
	 SCS Same-Spin Energy      =      -0.1382350364017033 [Eh]
	 SCS Opposite-Spin Energy  =      -1.4842474396096399 [Eh]
	 SCS Correlation Energy    =      -1.6224824760113432 [Eh]
	 SCS Total Energy          =    -721.3787694993171726 [Eh]
	-----------------------------------------------------------

  Dipole Moment: [D]
     X:     5.1719      Y:    -1.1136      Z:     2.7304     Total:     5.9534

*** Psi4 exiting successfully. Buy a developer a beer!
