                               Psi4 1.3.2 release

  ==> Input File <==

--------------------------------------------------------------------------
#psi4
#
memory 32 gb

molecule  {
0 1
  F        0.5535969     1.1496376    -0.0821724
  F        0.6428170    -1.0831530    -0.1288340
  F       -1.2595220    -0.0150660    -0.1288310
  C       -0.0000390     0.0000040     0.3413910
  H        0.0001000     0.0000020     1.4301680
units angstrom
no_reorient  #important for SAPT in psi4, default
symmetry c1  #important for SAPT in psi4, default
}

set PROPERTIES_ORIGIN ["COM"]
properties('MP2/aug-cc-pvtz', properties = ['dipole'])
--------------------------------------------------------------------------

    Molecular point group: c1
  Charge       = 0
  Multiplicity = 1
  Basis Set: AUG-CC-PVTZ
    Blend: AUG-CC-PVTZ
  Basis Set: (AUG-CC-PVTZ AUX)
    Blend: AUG-CC-PVTZ-JKFIT

    Orbital Energies [Eh]
    ---------------------

    Doubly Occupied:

       1A    -26.352096     2A    -26.347885     3A    -26.344469
       4A    -11.513429     5A     -1.730868     6A     -1.645717
       7A     -1.636614     8A     -0.992476     9A     -0.845353
      10A     -0.828309    11A     -0.821442    12A     -0.716938
      13A     -0.710224    14A     -0.676186    15A     -0.669783
      16A     -0.656167    17A     -0.598167

  @DF-RHF Final Energy:  -336.90818844803073

   => Energetics <=

    Nuclear Repulsion Energy =            132.5483940617295673
    One-Electron Energy =                -732.7409151796548485
    Two-Electron Energy =                 263.2843326698945248
    Total Energy =                       -336.9081884480307281
  Basis Set: (AUG-CC-PVTZ AUX)
    Blend: AUG-CC-PVTZ-RI
    Molecular point group: c1

    Geometry (in Angstrom), charge = 0, multiplicity = 1:

       Center              X                  Y                   Z               Mass
    ------------   -----------------  -----------------  -----------------  -----------------
         F            0.570729305079     1.135682186278    -0.069054156904    18.998403162730
         F            0.659949405079    -1.097108413722    -0.115715756904    18.998403162730
         F           -1.242389594921    -0.029021413722    -0.115712756904    18.998403162730
         C            0.017093405079    -0.013951413722     0.354509243096    12.000000000000
         H            0.017232405079    -0.013953413722     1.443286243096     1.007825032230

  Basis Set: AUG-CC-PVTZ
    Blend: AUG-CC-PVTZ
  Basis Set: (AUG-CC-PVTZ AUX)
    Blend: AUG-CC-PVTZ-JKFIT
	 Reference Energy          =    -336.9081884480307281 [Eh]
	 Singles Energy            =      -0.0000000000000000 [Eh]
	 Same-Spin Energy          =      -0.2567389514829446 [Eh]
	 Opposite-Spin Energy      =      -0.7407308936018031 [Eh]
	 Correlation Energy        =      -0.9974698450847477 [Eh]
	 Total Energy              =    -337.9056582931154935 [Eh]

	 ================> DF-SCS-MP2 Energies <==================
	-----------------------------------------------------------
	 SCS Same-Spin Scale       =       0.3333333333333333 [-]
	 SCS Opposite-Spin Scale   =       1.2000000000000000 [-]
	 SCS Same-Spin Energy      =      -0.0855796504943148 [Eh]
	 SCS Opposite-Spin Energy  =      -0.8888770723221637 [Eh]
	 SCS Correlation Energy    =      -0.9744567228164785 [Eh]
	 SCS Total Energy          =    -337.8826451708471836 [Eh]
	-----------------------------------------------------------

  Dipole Moment: [D]
     X:     0.0945      Y:    -0.0658      Z:     1.6144     Total:     1.6185

*** Psi4 exiting successfully. Buy a developer a beer!
