                               Psi4 1.3.2 release

  ==> Input File <==

--------------------------------------------------------------------------
#psi4
#
memory 32 gb

molecule  {
0 1
  F        0.6167210     1.0982160    -0.1288360
  F        0.6428170    -1.0831530    -0.1288340
  F       -1.2595220    -0.0150660    -0.1288310
  C       -0.0000390     0.0000040     0.3413910
  H        0.0001128     0.0000018     1.5301680
units angstrom
no_reorient  #important for SAPT in psi4, default
symmetry c1  #important for SAPT in psi4, default
}

set PROPERTIES_ORIGIN ["COM"]
properties('MP2/aug-cc-pvtz', properties = ['dipole'])
--------------------------------------------------------------------------

    Molecular point group: c1
  Charge       = 0
  Multiplicity = 1
  Basis Set: AUG-CC-PVTZ
    Blend: AUG-CC-PVTZ
  Basis Set: (AUG-CC-PVTZ AUX)
    Blend: AUG-CC-PVTZ-JKFIT

    Orbital Energies [Eh]
    ---------------------

    Doubly Occupied:

       1A    -26.348664     2A    -26.348651     3A    -26.348623
       4A    -11.523291     5A     -1.731743     6A     -1.640911
       7A     -1.640895     8A     -0.982397     9A     -0.834849
      10A     -0.824853    11A     -0.824840    12A     -0.713436
      13A     -0.713426    14A     -0.671883    15A     -0.671871
      16A     -0.656854    17A     -0.583142

  @DF-RHF Final Energy:  -336.90201160204509

   => Energetics <=

    Nuclear Repulsion Energy =            132.2349316326321116
    One-Electron Energy =                -732.1532288446546772
    Two-Electron Energy =                 263.0162856099775013
    Total Energy =                       -336.9020116020450928
  Basis Set: (AUG-CC-PVTZ AUX)
    Blend: AUG-CC-PVTZ-RI
    Molecular point group: c1

    Geometry (in Angstrom), charge = 0, multiplicity = 1:

       Center              X                  Y                   Z               Mass
    ------------   -----------------  -----------------  -----------------  -----------------
         F            0.616721719153     1.098216102583    -0.104493223740    18.998403162730
         F            0.642817719153    -1.083152897417    -0.104491223740    18.998403162730
         F           -1.259521280847    -0.015065897417    -0.104488223740    18.998403162730
         C           -0.000038280847     0.000004102583     0.365733776260    12.000000000000
         H            0.000113519153     0.000001902583     1.554510776260     1.007825032230

  Basis Set: AUG-CC-PVTZ
    Blend: AUG-CC-PVTZ
  Basis Set: (AUG-CC-PVTZ AUX)
    Blend: AUG-CC-PVTZ-JKFIT
	 Reference Energy          =    -336.9020116020450928 [Eh]
	 Singles Energy            =      -0.0000000000000000 [Eh]
	 Same-Spin Energy          =      -0.2570126585223804 [Eh]
	 Opposite-Spin Energy      =      -0.7415705074759551 [Eh]
	 Correlation Energy        =      -0.9985831659983355 [Eh]
	 Total Energy              =    -337.9005947680434474 [Eh]

	 ================> DF-SCS-MP2 Energies <==================
	-----------------------------------------------------------
	 SCS Same-Spin Scale       =       0.3333333333333333 [-]
	 SCS Opposite-Spin Scale   =       1.2000000000000000 [-]
	 SCS Same-Spin Energy      =      -0.0856708861741268 [Eh]
	 SCS Opposite-Spin Energy  =      -0.8898846089711461 [Eh]
	 SCS Correlation Energy    =      -0.9755554951452728 [Eh]
	 SCS Total Energy          =    -337.8775670971903651 [Eh]
	-----------------------------------------------------------

  Dipole Moment: [D]
     X:    -0.0001      Y:     0.0001      Z:     1.6519     Total:     1.6519

*** Psi4 exiting successfully. Buy a developer a beer!
