                               Psi4 1.3.2 release

  ==> Input File <==

--------------------------------------------------------------------------
#psi4
#
memory 32 gb

molecule  {
0 1
  F        0.6167210     1.0982160    -0.1288360
  F        0.6428170    -1.0831530    -0.1288340
  F       -1.2595220    -0.0150660    -0.1288310
  C       -0.0000390     0.0000040     0.3413910
  H        0.0000745     0.0000024     1.2301680
units angstrom
no_reorient  #important for SAPT in psi4, default
symmetry c1  #important for SAPT in psi4, default
}

set PROPERTIES_ORIGIN ["COM"]
properties('MP2/aug-cc-pvtz', properties = ['dipole'])
--------------------------------------------------------------------------

    Molecular point group: c1
  Charge       = 0
  Multiplicity = 1
  Basis Set: AUG-CC-PVTZ
    Blend: AUG-CC-PVTZ
  Basis Set: (AUG-CC-PVTZ AUX)
    Blend: AUG-CC-PVTZ-JKFIT

    Orbital Energies [Eh]
    ---------------------

    Doubly Occupied:

       1A    -26.345474     2A    -26.345461     3A    -26.345434
       4A    -11.492569     5A     -1.731308     6A     -1.638993
       7A     -1.638977     8A     -1.031312     9A     -0.869351
      10A     -0.823613    11A     -0.823600    12A     -0.712753
      13A     -0.712743    14A     -0.669813    15A     -0.669800
      16A     -0.654655    17A     -0.632968

  @DF-RHF Final Energy:  -336.87492555613613

   => Energetics <=

    Nuclear Repulsion Energy =            133.9880233262600768
    One-Electron Energy =                -735.4482508877597411
    Two-Electron Energy =                 264.5853020053635305
    Total Energy =                       -336.8749255561361338
  Basis Set: (AUG-CC-PVTZ AUX)
    Blend: AUG-CC-PVTZ-RI
    Molecular point group: c1

    Geometry (in Angstrom), charge = 0, multiplicity = 1:

       Center              X                  Y                   Z               Mass
    ------------   -----------------  -----------------  -----------------  -----------------
         F            0.616722270553     1.098216093945    -0.100174160834    18.998403162730
         F            0.642818270553    -1.083152906055    -0.100172160834    18.998403162730
         F           -1.259520729447    -0.015065906055    -0.100169160834    18.998403162730
         C           -0.000037729447     0.000004093945     0.370052839166    12.000000000000
         H            0.000075770553     0.000002493945     1.258829839166     1.007825032230

  Basis Set: AUG-CC-PVTZ
    Blend: AUG-CC-PVTZ
  Basis Set: (AUG-CC-PVTZ AUX)
    Blend: AUG-CC-PVTZ-JKFIT
	 Reference Energy          =    -336.8749255561361338 [Eh]
	 Singles Energy            =      -0.0000000000000000 [Eh]
	 Same-Spin Energy          =      -0.2563352385650842 [Eh]
	 Opposite-Spin Energy      =      -0.7397445807991028 [Eh]
	 Correlation Energy        =      -0.9960798193641870 [Eh]
	 Total Energy              =    -337.8710053755003173 [Eh]

	 ================> DF-SCS-MP2 Energies <==================
	-----------------------------------------------------------
	 SCS Same-Spin Scale       =       0.3333333333333333 [-]
	 SCS Opposite-Spin Scale   =       1.2000000000000000 [-]
	 SCS Same-Spin Energy      =      -0.0854450795216947 [Eh]
	 SCS Opposite-Spin Energy  =      -0.8876934969589233 [Eh]
	 SCS Correlation Energy    =      -0.9731385764806181 [Eh]
	 SCS Total Energy          =    -337.8480641326167415 [Eh]
	-----------------------------------------------------------

  Dipole Moment: [D]
     X:    -0.0002      Y:     0.0001      Z:     1.6992     Total:     1.6992

*** Psi4 exiting successfully. Buy a developer a beer!
