                               Psi4 1.4a3.dev225

  ==> Input File <==

--------------------------------------------------------------------------
#psi4
#
memory 32 gb

molecule  {
0 1
  F        1.0816510    -0.6454040    -0.1288250
  F       -1.0997840    -0.6140010    -0.1288250
  F        0.0181310     1.2594070    -0.1288290
  C        0.0402281    -0.0240129     0.3238817
  H        0.0000010     0.0000460     1.4300970
units angstrom
no_reorient  #important for SAPT in psi4, default
symmetry c1  #important for SAPT in psi4, default
}

set PROPERTIES_ORIGIN ["COM"]
properties('MP2/aug-cc-pvtz', properties = ['dipole'])
--------------------------------------------------------------------------

    Molecular point group: c1
  Charge       = 0
  Multiplicity = 1
  Basis Set: AUG-CC-PVTZ
    Blend: AUG-CC-PVTZ
  Basis Set: (AUG-CC-PVTZ AUX)
    Blend: AUG-CC-PVTZ-JKFIT

    Orbital Energies [Eh]
    ---------------------

    Doubly Occupied:

       1A    -26.366046     2A    -26.339307     3A    -26.339285
       4A    -11.513437     5A     -1.741543     6A     -1.653169
       7A     -1.627651     8A     -0.991774     9A     -0.848975
      10A     -0.832227    11A     -0.825903    12A     -0.718931
      13A     -0.709195    14A     -0.678462    15A     -0.668251
      16A     -0.652722    17A     -0.592564

  @DF-RHF Final Energy:  -336.90749979891808

   => Energetics <=

    Nuclear Repulsion Energy =            133.0028270167215112
    One-Electron Energy =                -733.6217697528599047
    Two-Electron Energy =                 263.7114429372202835
    Total Energy =                       -336.9074997989180815
  Basis Set: (AUG-CC-PVTZ AUX)
    Blend: AUG-CC-PVTZ-RI
    Molecular point group: c1

    Geometry (in Angstrom), charge = 0, multiplicity = 1:

       Center              X                  Y                   Z               Mass
    ------------   -----------------  -----------------  -----------------  -----------------
         F            1.074755581618    -0.641288886345    -0.100046020423    18.998403162730
         F           -1.106679418382    -0.609885886345    -0.100046020423    18.998403162730
         F            0.011235581618     1.263522113655    -0.100050020423    18.998403162730
         C            0.033332681618    -0.019897786345     0.352660679577    12.000000000000
         H           -0.006894418382     0.004161113655     1.458875979577     1.007825032230

  Basis Set: AUG-CC-PVTZ
    Blend: AUG-CC-PVTZ
  Basis Set: (AUG-CC-PVTZ AUX)
    Blend: AUG-CC-PVTZ-JKFIT
	 Reference Energy          =    -336.9074997989180815 [Eh]
	 Singles Energy            =      -0.0000000000000000 [Eh]
	 Same-Spin Energy          =      -0.2566913392276179 [Eh]
	 Opposite-Spin Energy      =      -0.7402751432211737 [Eh]
	 Correlation Energy        =      -0.9969664824487916 [Eh]
	 Total Energy              =    -337.9044662813668651 [Eh]

	 ================> DF-SCS-MP2 Energies <==================
	-----------------------------------------------------------
	 SCS Same-Spin Scale       =       0.3333333333333333 [-]
	 SCS Opposite-Spin Scale   =       1.2000000000000000 [-]
	 SCS Same-Spin Energy      =      -0.0855637797425393 [Eh]
	 SCS Opposite-Spin Energy  =      -0.8883301718654084 [Eh]
	 SCS Correlation Energy    =      -0.9738939516079477 [Eh]
	 SCS Total Energy          =    -337.8813937505260014 [Eh]
	-----------------------------------------------------------

  Dipole Moment: [D]
     X:     0.3528      Y:    -0.2105      Z:     1.5873     Total:     1.6396

*** Psi4 exiting successfully. Buy a developer a beer!
