                               Psi4 1.3.2 release

  ==> Input File <==

--------------------------------------------------------------------------
#psi4
#
memory 32 gb

molecule  {
0 1
  F        0.6083046     1.0832411    -0.1725072
  F        0.6428170    -1.0831530    -0.1288340
  F       -1.2595220    -0.0150660    -0.1288310
  C       -0.0000390     0.0000040     0.3413910
  H        0.0001000     0.0000020     1.4301680
units angstrom
no_reorient  #important for SAPT in psi4, default
symmetry c1  #important for SAPT in psi4, default
}

set PROPERTIES_ORIGIN ["COM"]
properties('MP2/aug-cc-pvtz', properties = ['dipole'])
--------------------------------------------------------------------------

    Molecular point group: c1
  Charge       = 0
  Multiplicity = 1
  Basis Set: AUG-CC-PVTZ
    Blend: AUG-CC-PVTZ
  Basis Set: (AUG-CC-PVTZ AUX)
    Blend: AUG-CC-PVTZ-JKFIT

    Orbital Energies [Eh]
    ---------------------

    Doubly Occupied:

       1A    -26.346139     2A    -26.345951     3A    -26.345922
       4A    -11.513565     5A     -1.731545     6A     -1.639242
       7A     -1.637938     8A     -0.992142     9A     -0.846723
      10A     -0.823816    11A     -0.822460    12A     -0.713148
      13A     -0.711505    14A     -0.669502    15A     -0.668495
      16A     -0.654105    17A     -0.604440

  @DF-RHF Final Energy:  -336.90947965373533

   => Energetics <=

    Nuclear Repulsion Energy =            132.9835083872508505
    One-Electron Energy =                -733.6526997517953532
    Two-Electron Energy =                 263.7597117108091993
    Total Energy =                       -336.9094796537353318
  Basis Set: (AUG-CC-PVTZ AUX)
    Blend: AUG-CC-PVTZ-RI
    Molecular point group: c1

    Geometry (in Angstrom), charge = 0, multiplicity = 1:

       Center              X                  Y                   Z               Mass
    ------------   -----------------  -----------------  -----------------  -----------------
         F            0.610589663848     1.087305297631    -0.134872634694    18.998403162730
         F            0.645102063848    -1.079088802369    -0.091199434694    18.998403162730
         F           -1.257236936152    -0.011001802369    -0.091196434694    18.998403162730
         C            0.002246063848     0.004068197631     0.379025565306    12.000000000000
         H            0.002385063848     0.004066197631     1.467802565306     1.007825032230

  Basis Set: AUG-CC-PVTZ
    Blend: AUG-CC-PVTZ
  Basis Set: (AUG-CC-PVTZ AUX)
    Blend: AUG-CC-PVTZ-JKFIT
	 Reference Energy          =    -336.9094796537353318 [Eh]
	 Singles Energy            =      -0.0000000000000000 [Eh]
	 Same-Spin Energy          =      -0.2566691151984374 [Eh]
	 Opposite-Spin Energy      =      -0.7405002930439433 [Eh]
	 Correlation Energy        =      -0.9971694082423807 [Eh]
	 Total Energy              =    -337.9066490619777028 [Eh]

	 ================> DF-SCS-MP2 Energies <==================
	-----------------------------------------------------------
	 SCS Same-Spin Scale       =       0.3333333333333333 [-]
	 SCS Opposite-Spin Scale   =       1.2000000000000000 [-]
	 SCS Same-Spin Energy      =      -0.0855563717328125 [Eh]
	 SCS Opposite-Spin Energy  =      -0.8886003516527319 [Eh]
	 SCS Correlation Energy    =      -0.9741567233855444 [Eh]
	 SCS Total Energy          =    -337.8836363771208653 [Eh]
	-----------------------------------------------------------

  Dipole Moment: [D]
     X:     0.0073      Y:     0.0132      Z:     1.7483     Total:     1.7484

*** Psi4 exiting successfully. Buy a developer a beer!
