                               Psi4 1.3.2 release

  ==> Input File <==

--------------------------------------------------------------------------
#psi4
#
memory 32 gb

molecule  {
0 1
  F        0.6167210     1.0982160    -0.1288360
  F        0.6428170    -1.0831530    -0.1288340
  F       -1.2595220    -0.0150660    -0.1288310
  C        0.0917093     0.1633723     0.2714407
  H        0.0001000     0.0000020     1.4301680
units angstrom
no_reorient  #important for SAPT in psi4, default
symmetry c1  #important for SAPT in psi4, default
}

set PROPERTIES_ORIGIN ["COM"]
properties('MP2/aug-cc-pvtz', properties = ['dipole'])
--------------------------------------------------------------------------

    Molecular point group: c1
  Charge       = 0
  Multiplicity = 1
  Basis Set: AUG-CC-PVTZ
    Blend: AUG-CC-PVTZ
  Basis Set: (AUG-CC-PVTZ AUX)
    Blend: AUG-CC-PVTZ-JKFIT

    Orbital Energies [Eh]
    ---------------------

    Doubly Occupied:

       1A    -26.427891     2A    -26.313333     3A    -26.313310
       4A    -11.518930     5A     -1.850465     6A     -1.636913
       7A     -1.588502     8A     -1.018134     9A     -0.890451
      10A     -0.872234    11A     -0.860070    12A     -0.714317
      13A     -0.688316    14A     -0.677089    15A     -0.653108
      16A     -0.623719    17A     -0.555966

  @DF-RHF Final Energy:  -336.85658721096632

   => Energetics <=

    Nuclear Repulsion Energy =            133.9778268357225670
    One-Electron Energy =                -735.2633318188802605
    Two-Electron Energy =                 264.4289177721913688
    Total Energy =                       -336.8565872109663246
  Basis Set: (AUG-CC-PVTZ AUX)
    Blend: AUG-CC-PVTZ-RI
    Molecular point group: c1

    Geometry (in Angstrom), charge = 0, multiplicity = 1:

       Center              X                  Y                   Z               Mass
    ------------   -----------------  -----------------  -----------------  -----------------
         F            0.600994305229     1.070211319433    -0.091062575916    18.998403162730
         F            0.627090305229    -1.111157680567    -0.091060575916    18.998403162730
         F           -1.275248694771    -0.043070680567    -0.091057575916    18.998403162730
         C            0.075982605229     0.135367619433     0.309214124084    12.000000000000
         H           -0.015626694771    -0.028002680567     1.467941424084     1.007825032230

  Basis Set: AUG-CC-PVTZ
    Blend: AUG-CC-PVTZ
  Basis Set: (AUG-CC-PVTZ AUX)
    Blend: AUG-CC-PVTZ-JKFIT
	 Reference Energy          =    -336.8565872109663246 [Eh]
	 Singles Energy            =      -0.0000000000000000 [Eh]
	 Same-Spin Energy          =      -0.2576386559681877 [Eh]
	 Opposite-Spin Energy      =      -0.7413966413913665 [Eh]
	 Correlation Energy        =      -0.9990352973595542 [Eh]
	 Total Energy              =    -337.8556225083258937 [Eh]

	 ================> DF-SCS-MP2 Energies <==================
	-----------------------------------------------------------
	 SCS Same-Spin Scale       =       0.3333333333333333 [-]
	 SCS Opposite-Spin Scale   =       1.2000000000000000 [-]
	 SCS Same-Spin Energy      =      -0.0858795519893959 [Eh]
	 SCS Opposite-Spin Energy  =      -0.8896759696696398 [Eh]
	 SCS Correlation Energy    =      -0.9755555216590357 [Eh]
	 SCS Total Energy          =    -337.8321427326253570 [Eh]
	-----------------------------------------------------------

  Dipole Moment: [D]
     X:     0.8446      Y:     1.5041      Z:     1.2624     Total:     2.1376

*** Psi4 exiting successfully. Buy a developer a beer!
