                               Psi4 1.3.2 release

  ==> Input File <==

--------------------------------------------------------------------------
#psi4
#
memory 32 gb

molecule  {
0 1
  F        0.6243860     1.1118529    -0.0845919
  F        0.6428170    -1.0831530    -0.1288340
  F       -1.2595220    -0.0150660    -0.1288310
  C       -0.0000390     0.0000040     0.3413910
  H        0.0001000     0.0000020     1.4301680
units angstrom
no_reorient  #important for SAPT in psi4, default
symmetry c1  #important for SAPT in psi4, default
}

set PROPERTIES_ORIGIN ["COM"]
properties('MP2/aug-cc-pvtz', properties = ['dipole'])
--------------------------------------------------------------------------

    Molecular point group: c1
  Charge       = 0
  Multiplicity = 1
  Basis Set: AUG-CC-PVTZ
    Blend: AUG-CC-PVTZ
  Basis Set: (AUG-CC-PVTZ AUX)
    Blend: AUG-CC-PVTZ-JKFIT

    Orbital Energies [Eh]
    ---------------------

    Doubly Occupied:

       1A    -26.348357     2A    -26.348329     3A    -26.348081
       4A    -11.513413     5A     -1.730770     6A     -1.641882
       7A     -1.640659     8A     -0.992487     9A     -0.845347
      10A     -0.825511    11A     -0.824336    12A     -0.714350
      13A     -0.712791    14A     -0.673164    15A     -0.672252
      16A     -0.657358    17A     -0.598299

  @DF-RHF Final Energy:  -336.90910414484307

   => Energetics <=

    Nuclear Repulsion Energy =            132.5280295196244538
    One-Electron Energy =                -732.6994948957684528
    Two-Electron Energy =                 263.2623612313008721
    Total Energy =                       -336.9091041448430701
  Basis Set: (AUG-CC-PVTZ AUX)
    Blend: AUG-CC-PVTZ-RI
    Molecular point group: c1

    Geometry (in Angstrom), charge = 0, multiplicity = 1:

       Center              X                  Y                   Z               Mass
    ------------   -----------------  -----------------  -----------------  -----------------
         F            0.622306668465     1.108152026941    -0.070817019135    18.998403162730
         F            0.640737668465    -1.086853873059    -0.115059119135    18.998403162730
         F           -1.261601331535    -0.018766873059    -0.115056119135    18.998403162730
         C           -0.002118331535    -0.003696873059     0.355165880865    12.000000000000
         H           -0.001979331535    -0.003698873059     1.443942880865     1.007825032230

  Basis Set: AUG-CC-PVTZ
    Blend: AUG-CC-PVTZ
  Basis Set: (AUG-CC-PVTZ AUX)
    Blend: AUG-CC-PVTZ-JKFIT
	 Reference Energy          =    -336.9091041448430701 [Eh]
	 Singles Energy            =      -0.0000000000000000 [Eh]
	 Same-Spin Energy          =      -0.2567163843485912 [Eh]
	 Opposite-Spin Energy      =      -0.7406850075066076 [Eh]
	 Correlation Energy        =      -0.9974013918551988 [Eh]
	 Total Energy              =    -337.9065055366982619 [Eh]

	 ================> DF-SCS-MP2 Energies <==================
	-----------------------------------------------------------
	 SCS Same-Spin Scale       =       0.3333333333333333 [-]
	 SCS Opposite-Spin Scale   =       1.2000000000000000 [-]
	 SCS Same-Spin Energy      =      -0.0855721281161971 [Eh]
	 SCS Opposite-Spin Energy  =      -0.8888220090079291 [Eh]
	 SCS Correlation Energy    =      -0.9743941371241261 [Eh]
	 SCS Total Energy          =    -337.8834982819672064 [Eh]
	-----------------------------------------------------------

  Dipole Moment: [D]
     X:    -0.0065      Y:    -0.0112      Z:     1.6177     Total:     1.6178

*** Psi4 exiting successfully. Buy a developer a beer!
