                               Psi4 1.3.2 release

  ==> Input File <==

--------------------------------------------------------------------------
#psi4
#
memory 32 gb

molecule  {
0 1
  F        0.5892595     1.0493519    -0.2579187
  F        0.6428170    -1.0831530    -0.1288340
  F       -1.2595220    -0.0150660    -0.1288310
  C       -0.0000390     0.0000040     0.3413910
  H        0.0001000     0.0000020     1.4301680
units angstrom
no_reorient  #important for SAPT in psi4, default
symmetry c1  #important for SAPT in psi4, default
}

set PROPERTIES_ORIGIN ["COM"]
properties('MP2/aug-cc-pvtz', properties = ['dipole'])
--------------------------------------------------------------------------

    Molecular point group: c1
  Charge       = 0
  Multiplicity = 1
  Basis Set: AUG-CC-PVTZ
    Blend: AUG-CC-PVTZ
  Basis Set: (AUG-CC-PVTZ AUX)
    Blend: AUG-CC-PVTZ-JKFIT

    Orbital Energies [Eh]
    ---------------------

    Doubly Occupied:

       1A    -26.343845     2A    -26.343406     3A    -26.343379
       4A    -11.513706     5A     -1.732511     6A     -1.637768
       7A     -1.633617     8A     -0.991779     9A     -0.848520
      10A     -0.823275    11A     -0.818834    12A     -0.713608
      13A     -0.708437    14A     -0.666706    15A     -0.663395
      16A     -0.650362    17A     -0.609889

  @DF-RHF Final Energy:  -336.90766306532453

   => Energetics <=

    Nuclear Repulsion Energy =            133.4880791238444147
    One-Electron Energy =                -734.7054121003277487
    Two-Electron Energy =                 264.3096699111588350
    Total Energy =                       -336.9076630653245275
  Basis Set: (AUG-CC-PVTZ AUX)
    Blend: AUG-CC-PVTZ-RI
    Molecular point group: c1

    Geometry (in Angstrom), charge = 0, multiplicity = 1:

       Center              X                  Y                   Z               Mass
    ------------   -----------------  -----------------  -----------------  -----------------
         F            0.596713289612     1.062613422988    -0.197103966536    18.998403162730
         F            0.650270789612    -1.069891477012    -0.068019266536    18.998403162730
         F           -1.252068210388    -0.001804477012    -0.068016266536    18.998403162730
         C            0.007414789612     0.013265522988     0.402205733464    12.000000000000
         H            0.007553789612     0.013263522988     1.490982733464     1.007825032230

  Basis Set: AUG-CC-PVTZ
    Blend: AUG-CC-PVTZ
  Basis Set: (AUG-CC-PVTZ AUX)
    Blend: AUG-CC-PVTZ-JKFIT
	 Reference Energy          =    -336.9076630653245275 [Eh]
	 Singles Energy            =      -0.0000000000000000 [Eh]
	 Same-Spin Energy          =      -0.2566778024410674 [Eh]
	 Opposite-Spin Energy      =      -0.7404248817939530 [Eh]
	 Correlation Energy        =      -0.9971026842350204 [Eh]
	 Total Energy              =    -337.9047657495595445 [Eh]

	 ================> DF-SCS-MP2 Energies <==================
	-----------------------------------------------------------
	 SCS Same-Spin Scale       =       0.3333333333333333 [-]
	 SCS Opposite-Spin Scale   =       1.2000000000000000 [-]
	 SCS Same-Spin Energy      =      -0.0855592674803558 [Eh]
	 SCS Opposite-Spin Energy  =      -0.8885098581527436 [Eh]
	 SCS Correlation Energy    =      -0.9740691256330994 [Eh]
	 SCS Total Energy          =    -337.8817321909576208 [Eh]
	-----------------------------------------------------------

  Dipole Moment: [D]
     X:     0.0250      Y:     0.0448      Z:     1.8749     Total:     1.8756

*** Psi4 exiting successfully. Buy a developer a beer!
