                               Psi4 1.3.2 release

  ==> Input File <==

--------------------------------------------------------------------------
#psi4
#
memory 32 gb

molecule  {
0 1
  F        0.6320442     1.0845142    -0.1401526
  F        0.6428170    -1.0831530    -0.1288340
  F       -1.2595220    -0.0150660    -0.1288310
  C       -0.0000390     0.0000040     0.3413910
  H        0.0001000     0.0000020     1.4301680
units angstrom
no_reorient  #important for SAPT in psi4, default
symmetry c1  #important for SAPT in psi4, default
}

set PROPERTIES_ORIGIN ["COM"]
properties('MP2/aug-cc-pvtz', properties = ['dipole'])
--------------------------------------------------------------------------

    Molecular point group: c1
  Charge       = 0
  Multiplicity = 1
  Basis Set: AUG-CC-PVTZ
    Blend: AUG-CC-PVTZ
  Basis Set: (AUG-CC-PVTZ AUX)
    Blend: AUG-CC-PVTZ-JKFIT

    Orbital Energies [Eh]
    ---------------------

    Doubly Occupied:

       1A    -26.347830     2A    -26.346882     3A    -26.345846
       4A    -11.513512     5A     -1.731244     6A     -1.640786
       7A     -1.638409     8A     -0.992271     9A     -0.846152
      10A     -0.824709    11A     -0.822963    12A     -0.713663
      13A     -0.711926    14A     -0.671237    15A     -0.669602
      16A     -0.655270    17A     -0.602249

  @DF-RHF Final Energy:  -336.90953584709985

   => Energetics <=

    Nuclear Repulsion Energy =            132.8109420631785724
    One-Electron Energy =                -733.2918510944292620
    Two-Electron Energy =                 263.5713731841508434
    Total Energy =                       -336.9095358470998463
  Basis Set: (AUG-CC-PVTZ AUX)
    Blend: AUG-CC-PVTZ-RI
    Molecular point group: c1

    Geometry (in Angstrom), charge = 0, multiplicity = 1:

       Center              X                  Y                   Z               Mass
    ------------   -----------------  -----------------  -----------------  -----------------
         F            0.627886478977     1.088232885937    -0.111298878827    18.998403162730
         F            0.638659278977    -1.079434314063    -0.099980278827    18.998403162730
         F           -1.263679721023    -0.011347314063    -0.099977278827    18.998403162730
         C           -0.004196721023     0.003722685937     0.370244721173    12.000000000000
         H           -0.004057721023     0.003720685937     1.459021721173     1.007825032230

  Basis Set: AUG-CC-PVTZ
    Blend: AUG-CC-PVTZ
  Basis Set: (AUG-CC-PVTZ AUX)
    Blend: AUG-CC-PVTZ-JKFIT
	 Reference Energy          =    -336.9095358470998463 [Eh]
	 Singles Energy            =      -0.0000000000000000 [Eh]
	 Same-Spin Energy          =      -0.2566814667335106 [Eh]
	 Opposite-Spin Energy      =      -0.7405587656370637 [Eh]
	 Correlation Energy        =      -0.9972402323705742 [Eh]
	 Total Energy              =    -337.9067760794704327 [Eh]

	 ================> DF-SCS-MP2 Energies <==================
	-----------------------------------------------------------
	 SCS Same-Spin Scale       =       0.3333333333333333 [-]
	 SCS Opposite-Spin Scale   =       1.2000000000000000 [-]
	 SCS Same-Spin Energy      =      -0.0855604889111702 [Eh]
	 SCS Opposite-Spin Energy  =      -0.8886705187644764 [Eh]
	 SCS Correlation Energy    =      -0.9742310076756466 [Eh]
	 SCS Total Energy          =    -337.8837668547755015 [Eh]
	-----------------------------------------------------------

  Dipole Moment: [D]
     X:    -0.0235      Y:     0.0176      Z:     1.7003     Total:     1.7005

*** Psi4 exiting successfully. Buy a developer a beer!
