                               Psi4 1.3.2 release

  ==> Input File <==

--------------------------------------------------------------------------
#psi4
#
memory 32 gb

molecule  {
0 1
  F        0.6126061     1.0908947    -0.1507465
  F        0.6428170    -1.0831530    -0.1288340
  F       -1.2595220    -0.0150660    -0.1288310
  C       -0.0000390     0.0000040     0.3413910
  H        0.0001000     0.0000020     1.4301680
units angstrom
no_reorient  #important for SAPT in psi4, default
symmetry c1  #important for SAPT in psi4, default
}

set PROPERTIES_ORIGIN ["COM"]
properties('MP2/aug-cc-pvtz', properties = ['dipole'])
--------------------------------------------------------------------------

    Molecular point group: c1
  Charge       = 0
  Multiplicity = 1
  Basis Set: AUG-CC-PVTZ
    Blend: AUG-CC-PVTZ
  Basis Set: (AUG-CC-PVTZ AUX)
    Blend: AUG-CC-PVTZ-JKFIT

    Orbital Energies [Eh]
    ---------------------

    Doubly Occupied:

       1A    -26.346658     2A    -26.346566     3A    -26.346536
       4A    -11.513528     5A     -1.731334     6A     -1.639602
       7A     -1.638957     8A     -0.992230     9A     -0.846329
      10A     -0.823948    11A     -0.823287    12A     -0.713050
      13A     -0.712237    14A     -0.670195    15A     -0.669701
      16A     -0.654961    17A     -0.602973

  @DF-RHF Final Energy:  -336.90959053011056

   => Energetics <=

    Nuclear Repulsion Energy =            132.8650780389551187
    One-Electron Energy =                -733.4051520030989195
    Two-Electron Energy =                 263.6304834340332945
    Total Energy =                       -336.9095905301105631
  Basis Set: (AUG-CC-PVTZ AUX)
    Blend: AUG-CC-PVTZ-RI
    Molecular point group: c1

    Geometry (in Angstrom), charge = 0, multiplicity = 1:

       Center              X                  Y                   Z               Mass
    ------------   -----------------  -----------------  -----------------  -----------------
         F            0.613723762581     1.092881756555    -0.119017657989    18.998403162730
         F            0.643934662581    -1.081165943445    -0.097105157989    18.998403162730
         F           -1.258404337419    -0.013078943445    -0.097102157989    18.998403162730
         C            0.001078662581     0.001991056555     0.373119842011    12.000000000000
         H            0.001217662581     0.001989056555     1.461896842011     1.007825032230

  Basis Set: AUG-CC-PVTZ
    Blend: AUG-CC-PVTZ
  Basis Set: (AUG-CC-PVTZ AUX)
    Blend: AUG-CC-PVTZ-JKFIT
	 Reference Energy          =    -336.9095905301105631 [Eh]
	 Singles Energy            =      -0.0000000000000000 [Eh]
	 Same-Spin Energy          =      -0.2566756698491989 [Eh]
	 Opposite-Spin Energy      =      -0.7405362723088643 [Eh]
	 Correlation Energy        =      -0.9972119421580632 [Eh]
	 Total Energy              =    -337.9068024722686232 [Eh]

	 ================> DF-SCS-MP2 Energies <==================
	-----------------------------------------------------------
	 SCS Same-Spin Scale       =       0.3333333333333333 [-]
	 SCS Opposite-Spin Scale   =       1.2000000000000000 [-]
	 SCS Same-Spin Energy      =      -0.0855585566163996 [Eh]
	 SCS Opposite-Spin Energy  =      -0.8886435267706372 [Eh]
	 SCS Correlation Energy    =      -0.9742020833870368 [Eh]
	 SCS Total Energy          =    -337.8837926134975760 [Eh]
	-----------------------------------------------------------

  Dipole Moment: [D]
     X:     0.0034      Y:     0.0064      Z:     1.7160     Total:     1.7160

*** Psi4 exiting successfully. Buy a developer a beer!
