                               Psi4 1.3.2 release

  ==> Input File <==

--------------------------------------------------------------------------
#psi4
#
memory 32 gb

molecule  {
0 1
  F        0.6206480     1.1052028    -0.1067822
  F        0.6428170    -1.0831530    -0.1288340
  F       -1.2595220    -0.0150660    -0.1288310
  C       -0.0000390     0.0000040     0.3413910
  H        0.0001000     0.0000020     1.4301680
units angstrom
no_reorient  #important for SAPT in psi4, default
symmetry c1  #important for SAPT in psi4, default
}

set PROPERTIES_ORIGIN ["COM"]
properties('MP2/aug-cc-pvtz', properties = ['dipole'])
--------------------------------------------------------------------------

    Molecular point group: c1
  Charge       = 0
  Multiplicity = 1
  Basis Set: AUG-CC-PVTZ
    Blend: AUG-CC-PVTZ
  Basis Set: (AUG-CC-PVTZ AUX)
    Blend: AUG-CC-PVTZ-JKFIT

    Orbital Energies [Eh]
    ---------------------

    Doubly Occupied:

       1A    -26.347769     2A    -26.347742     3A    -26.347625
       4A    -11.513453     5A     -1.730947     6A     -1.640929
       7A     -1.640311     8A     -0.992403     9A     -0.845636
      10A     -0.824817    11A     -0.824209    12A     -0.713659
      13A     -0.712872    14A     -0.672035    15A     -0.671571
      16A     -0.656586    17A     -0.599903

  @DF-RHF Final Energy:  -336.90940271197195

   => Energetics <=

    Nuclear Repulsion Energy =            132.6373534846637483
    One-Electron Energy =                -732.9285794464650508
    Two-Electron Energy =                 263.3818232498293241
    Total Energy =                       -336.9094027119719499
  Basis Set: (AUG-CC-PVTZ AUX)
    Blend: AUG-CC-PVTZ-RI
    Molecular point group: c1

    Geometry (in Angstrom), charge = 0, multiplicity = 1:

       Center              X                  Y                   Z               Mass
    ------------   -----------------  -----------------  -----------------  -----------------
         F            0.619583139217     1.103306724143    -0.086985004979    18.998403162730
         F            0.641752139217    -1.085049075857    -0.109036804979    18.998403162730
         F           -1.260586860783    -0.016962075857    -0.109033804979    18.998403162730
         C           -0.001103860783    -0.001892075857     0.361188195021    12.000000000000
         H           -0.000964860783    -0.001894075857     1.449965195021     1.007825032230

  Basis Set: AUG-CC-PVTZ
    Blend: AUG-CC-PVTZ
  Basis Set: (AUG-CC-PVTZ AUX)
    Blend: AUG-CC-PVTZ-JKFIT
	 Reference Energy          =    -336.9094027119719499 [Eh]
	 Singles Energy            =      -0.0000000000000000 [Eh]
	 Same-Spin Energy          =      -0.2566992909885474 [Eh]
	 Opposite-Spin Energy      =      -0.7406286150051993 [Eh]
	 Correlation Energy        =      -0.9973279059937467 [Eh]
	 Total Energy              =    -337.9067306179657066 [Eh]

	 ================> DF-SCS-MP2 Energies <==================
	-----------------------------------------------------------
	 SCS Same-Spin Scale       =       0.3333333333333333 [-]
	 SCS Opposite-Spin Scale   =       1.2000000000000000 [-]
	 SCS Same-Spin Energy      =      -0.0855664303295158 [Eh]
	 SCS Opposite-Spin Energy  =      -0.8887543380062392 [Eh]
	 SCS Correlation Energy    =      -0.9743207683357550 [Eh]
	 SCS Total Energy          =    -337.8837234803077081 [Eh]
	-----------------------------------------------------------

  Dipole Moment: [D]
     X:    -0.0034      Y:    -0.0058      Z:     1.6507     Total:     1.6507

*** Psi4 exiting successfully. Buy a developer a beer!
