                               Psi4 1.3.2 release

  ==> Input File <==

--------------------------------------------------------------------------
#psi4
#
memory 32 gb

molecule  {
0 1
  F        0.6374252     1.1350478     0.0053986
  F        0.6428170    -1.0831530    -0.1288340
  F       -1.2595220    -0.0150660    -0.1288310
  C       -0.0000390     0.0000040     0.3413910
  H        0.0001000     0.0000020     1.4301680
units angstrom
no_reorient  #important for SAPT in psi4, default
symmetry c1  #important for SAPT in psi4, default
}

set PROPERTIES_ORIGIN ["COM"]
properties('MP2/aug-cc-pvtz', properties = ['dipole'])
--------------------------------------------------------------------------

    Molecular point group: c1
  Charge       = 0
  Multiplicity = 1
  Basis Set: AUG-CC-PVTZ
    Blend: AUG-CC-PVTZ
  Basis Set: (AUG-CC-PVTZ AUX)
    Blend: AUG-CC-PVTZ-JKFIT

    Orbital Energies [Eh]
    ---------------------

    Doubly Occupied:

       1A    -26.350616     2A    -26.350587     3A    -26.349710
       4A    -11.513233     5A     -1.730162     6A     -1.645494
       7A     -1.642000     8A     -0.992812     9A     -0.844709
      10A     -0.827692    11A     -0.824827    12A     -0.716994
      13A     -0.712508    14A     -0.677445    15A     -0.674918
      16A     -0.660194    17A     -0.591385

  @DF-RHF Final Energy:  -336.90654051725926

   => Energetics <=

    Nuclear Repulsion Energy =            132.1206635060384826
    One-Electron Energy =                -731.8438351843551573
    Two-Electron Energy =                 262.8166311610574439
    Total Energy =                       -336.9065405172592591
  Basis Set: (AUG-CC-PVTZ AUX)
    Blend: AUG-CC-PVTZ-RI
    Molecular point group: c1

    Geometry (in Angstrom), charge = 0, multiplicity = 1:

       Center              X                  Y                   Z               Mass
    ------------   -----------------  -----------------  -----------------  -----------------
         F            0.631807107893     1.125051970379    -0.005249400393    18.998403162730
         F            0.637198907893    -1.093148829621    -0.139482000393    18.998403162730
         F           -1.265140092107    -0.025061829621    -0.139479000393    18.998403162730
         C           -0.005657092107    -0.009991829621     0.330742999607    12.000000000000
         H           -0.005518092107    -0.009993829621     1.419519999607     1.007825032230

  Basis Set: AUG-CC-PVTZ
    Blend: AUG-CC-PVTZ
  Basis Set: (AUG-CC-PVTZ AUX)
    Blend: AUG-CC-PVTZ-JKFIT
	 Reference Energy          =    -336.9065405172592591 [Eh]
	 Singles Energy            =      -0.0000000000000000 [Eh]
	 Same-Spin Energy          =      -0.2568204595535148 [Eh]
	 Opposite-Spin Energy      =      -0.7409800554522069 [Eh]
	 Correlation Energy        =      -0.9978005150057218 [Eh]
	 Total Energy              =    -337.9043410322649947 [Eh]

	 ================> DF-SCS-MP2 Energies <==================
	-----------------------------------------------------------
	 SCS Same-Spin Scale       =       0.3333333333333333 [-]
	 SCS Opposite-Spin Scale   =       1.2000000000000000 [-]
	 SCS Same-Spin Energy      =      -0.0856068198511716 [Eh]
	 SCS Opposite-Spin Energy  =      -0.8891760665426482 [Eh]
	 SCS Correlation Energy    =      -0.9747828863938198 [Eh]
	 SCS Total Energy          =    -337.8813234036530844 [Eh]
	-----------------------------------------------------------

  Dipole Moment: [D]
     X:    -0.0158      Y:    -0.0279      Z:     1.4839     Total:     1.4843

*** Psi4 exiting successfully. Buy a developer a beer!
