                               Psi4 1.3.2 release

  ==> Input File <==

--------------------------------------------------------------------------
#psi4
#
memory 32 gb

molecule  {
0 1
  F        0.6167210     1.0982160    -0.1288360
  F        0.6428170    -1.0831530    -0.1288340
  F       -1.2595220    -0.0150660    -0.1288310
  C       -0.0459131    -0.0816802     0.3763661
  H        0.0001000     0.0000020     1.4301680
units angstrom
no_reorient  #important for SAPT in psi4, default
symmetry c1  #important for SAPT in psi4, default
}

set PROPERTIES_ORIGIN ["COM"]
properties('MP2/aug-cc-pvtz', properties = ['dipole'])
--------------------------------------------------------------------------

    Molecular point group: c1
  Charge       = 0
  Multiplicity = 1
  Basis Set: AUG-CC-PVTZ
    Blend: AUG-CC-PVTZ
  Basis Set: (AUG-CC-PVTZ AUX)
    Blend: AUG-CC-PVTZ-JKFIT

    Orbital Energies [Eh]
    ---------------------

    Doubly Occupied:

       1A    -26.362415     2A    -26.362382     3A    -26.309880
       4A    -11.516778     5A     -1.738224     6A     -1.663345
       7A     -1.593237     8A     -0.998949     9A     -0.854870
      10A     -0.832688    11A     -0.813008    12A     -0.721897
      13A     -0.697629    14A     -0.685316    15A     -0.644726
      16A     -0.638636    17A     -0.609502

  @DF-RHF Final Energy:  -336.89922196289524

   => Energetics <=

    Nuclear Repulsion Energy =            132.2747639230817924
    One-Electron Energy =                -732.2610090784235126
    Two-Electron Energy =                 263.0870231924465088
    Total Energy =                       -336.8992219628952398
  Basis Set: (AUG-CC-PVTZ AUX)
    Blend: AUG-CC-PVTZ-RI
    Molecular point group: c1

    Geometry (in Angstrom), charge = 0, multiplicity = 1:

       Center              X                  Y                   Z               Mass
    ------------   -----------------  -----------------  -----------------  -----------------
         F            0.624585693964     1.112218498410    -0.109049007628    18.998403162730
         F            0.650681693964    -1.069150501590    -0.109047007628    18.998403162730
         F           -1.251657306036    -0.001063501590    -0.109044007628    18.998403162730
         C           -0.038048406036    -0.067677701590     0.396153092372    12.000000000000
         H            0.007964693964     0.014004498410     1.449954992372     1.007825032230

  Basis Set: AUG-CC-PVTZ
    Blend: AUG-CC-PVTZ
  Basis Set: (AUG-CC-PVTZ AUX)
    Blend: AUG-CC-PVTZ-JKFIT
	 Reference Energy          =    -336.8992219628952398 [Eh]
	 Singles Energy            =      -0.0000000000000000 [Eh]
	 Same-Spin Energy          =      -0.2571401505706968 [Eh]
	 Opposite-Spin Energy      =      -0.7420427612951760 [Eh]
	 Correlation Energy        =      -0.9991829118658728 [Eh]
	 Total Energy              =    -337.8984048747611268 [Eh]

	 ================> DF-SCS-MP2 Energies <==================
	-----------------------------------------------------------
	 SCS Same-Spin Scale       =       0.3333333333333333 [-]
	 SCS Opposite-Spin Scale   =       1.2000000000000000 [-]
	 SCS Same-Spin Energy      =      -0.0857133835235656 [Eh]
	 SCS Opposite-Spin Energy  =      -0.8904513135542111 [Eh]
	 SCS Correlation Energy    =      -0.9761646970777768 [Eh]
	 SCS Total Energy          =    -337.8753866599730031 [Eh]
	-----------------------------------------------------------

  Dipole Moment: [D]
     X:    -0.3923      Y:    -0.6982      Z:     1.8635     Total:     2.0282

*** Psi4 exiting successfully. Buy a developer a beer!
