                               Psi4 1.3.2 release

  ==> Input File <==

--------------------------------------------------------------------------
#psi4
#
memory 32 gb

molecule  {
0 1
  F        0.6167210     1.0982160    -0.1288360
  F        0.6428170    -1.0831530    -0.1288340
  F       -1.2595220    -0.0150660    -0.1288310
  C       -0.0000390     0.0000040     0.3413910
  H        0.0001255     0.0000016     1.6301680
units angstrom
no_reorient  #important for SAPT in psi4, default
symmetry c1  #important for SAPT in psi4, default
}

set PROPERTIES_ORIGIN ["COM"]
properties('MP2/aug-cc-pvtz', properties = ['dipole'])
--------------------------------------------------------------------------

    Molecular point group: c1
  Charge       = 0
  Multiplicity = 1
  Basis Set: AUG-CC-PVTZ
    Blend: AUG-CC-PVTZ
  Basis Set: (AUG-CC-PVTZ AUX)
    Blend: AUG-CC-PVTZ-JKFIT

    Orbital Energies [Eh]
    ---------------------

    Doubly Occupied:

       1A    -26.350514     2A    -26.350501     3A    -26.350473
       4A    -11.532188     5A     -1.732740     6A     -1.642139
       7A     -1.642123     8A     -0.976478     9A     -0.825934
      10A     -0.825921    11A     -0.825500    12A     -0.714149
      13A     -0.714138    14A     -0.673149    15A     -0.673137
      16A     -0.658216    17A     -0.563859

  @DF-RHF Final Energy:  -336.88694503550244

   => Energetics <=

    Nuclear Repulsion Energy =            131.7724923888553121
    One-Electron Energy =                -731.2165570850246468
    Two-Electron Energy =                 262.5571196606668991
    Total Energy =                       -336.8869450355024355
  Basis Set: (AUG-CC-PVTZ AUX)
    Blend: AUG-CC-PVTZ-RI
    Molecular point group: c1

    Geometry (in Angstrom), charge = 0, multiplicity = 1:

       Center              X                  Y                   Z               Mass
    ------------   -----------------  -----------------  -----------------  -----------------
         F            0.616721536313     1.098216105462    -0.105932911375    18.998403162730
         F            0.642817536313    -1.083152894538    -0.105930911375    18.998403162730
         F           -1.259521463687    -0.015065894538    -0.105927911375    18.998403162730
         C           -0.000038463687     0.000004105462     0.364294088625    12.000000000000
         H            0.000126036313     0.000001705462     1.653071088625     1.007825032230

  Basis Set: AUG-CC-PVTZ
    Blend: AUG-CC-PVTZ
  Basis Set: (AUG-CC-PVTZ AUX)
    Blend: AUG-CC-PVTZ-JKFIT
	 Reference Energy          =    -336.8869450355024355 [Eh]
	 Singles Energy            =      -0.0000000000000000 [Eh]
	 Same-Spin Energy          =      -0.2573980569878884 [Eh]
	 Opposite-Spin Energy      =      -0.7428894799658572 [Eh]
	 Correlation Energy        =      -1.0002875369537456 [Eh]
	 Total Energy              =    -337.8872325724561847 [Eh]

	 ================> DF-SCS-MP2 Energies <==================
	-----------------------------------------------------------
	 SCS Same-Spin Scale       =       0.3333333333333333 [-]
	 SCS Opposite-Spin Scale   =       1.2000000000000000 [-]
	 SCS Same-Spin Energy      =      -0.0857993523292961 [Eh]
	 SCS Opposite-Spin Energy  =      -0.8914673759590286 [Eh]
	 SCS Correlation Energy    =      -0.9772667282883247 [Eh]
	 SCS Total Energy          =    -337.8642117637907631 [Eh]
	-----------------------------------------------------------

  Dipole Moment: [D]
     X:    -0.0001      Y:     0.0000      Z:     1.6053     Total:     1.6053

*** Psi4 exiting successfully. Buy a developer a beer!
