                               Psi4 1.3.2 release

  ==> Input File <==

--------------------------------------------------------------------------
#psi4
#
memory 32 gb

molecule  {
0 1
  F        0.7056811     1.0111371    -0.1944680
  F        0.6428170    -1.0831530    -0.1288340
  F       -1.2595220    -0.0150660    -0.1288310
  C       -0.0000390     0.0000040     0.3413910
  H        0.0001000     0.0000020     1.4301680
units angstrom
no_reorient  #important for SAPT in psi4, default
symmetry c1  #important for SAPT in psi4, default
}

set PROPERTIES_ORIGIN ["COM"]
properties('MP2/aug-cc-pvtz', properties = ['dipole'])
--------------------------------------------------------------------------

    Molecular point group: c1
  Charge       = 0
  Multiplicity = 1
  Basis Set: AUG-CC-PVTZ
    Blend: AUG-CC-PVTZ
  Basis Set: (AUG-CC-PVTZ AUX)
    Blend: AUG-CC-PVTZ-JKFIT

    Orbital Energies [Eh]
    ---------------------

    Doubly Occupied:

       1A    -26.351068     2A    -26.344991     3A    -26.338926
       4A    -11.513631     5A     -1.732092     6A     -1.644831
       7A     -1.630060     8A     -0.992010     9A     -0.847303
      10A     -0.827609    11A     -0.817151    12A     -0.717324
      13A     -0.706622    14A     -0.673252    15A     -0.664211
      16A     -0.649469    17A     -0.606005

  @DF-RHF Final Energy:  -336.90696481834340

   => Energetics <=

    Nuclear Repulsion Energy =            133.1860951498782697
    One-Electron Energy =                -734.0730104716271853
    Two-Electron Energy =                 263.9799505034055187
    Total Energy =                       -336.9069648183433969
  Basis Set: (AUG-CC-PVTZ AUX)
    Blend: AUG-CC-PVTZ-RI
    Molecular point group: c1

    Geometry (in Angstrom), charge = 0, multiplicity = 1:

       Center              X                  Y                   Z               Mass
    ------------   -----------------  -----------------  -----------------  -----------------
         F            0.681538766546     1.034769890208    -0.150873405460    18.998403162730
         F            0.618674666546    -1.059520209792    -0.085239405460    18.998403162730
         F           -1.283664333454     0.008566790208    -0.085236405460    18.998403162730
         C           -0.024181333454     0.023636790208     0.384985594540    12.000000000000
         H           -0.024042333454     0.023634790208     1.473762594540     1.007825032230

  Basis Set: AUG-CC-PVTZ
    Blend: AUG-CC-PVTZ
  Basis Set: (AUG-CC-PVTZ AUX)
    Blend: AUG-CC-PVTZ-JKFIT
	 Reference Energy          =    -336.9069648183433969 [Eh]
	 Singles Energy            =      -0.0000000000000000 [Eh]
	 Same-Spin Energy          =      -0.2567168754675867 [Eh]
	 Opposite-Spin Energy      =      -0.7405687582618521 [Eh]
	 Correlation Energy        =      -0.9972856337294388 [Eh]
	 Total Energy              =    -337.9042504520728585 [Eh]

	 ================> DF-SCS-MP2 Energies <==================
	-----------------------------------------------------------
	 SCS Same-Spin Scale       =       0.3333333333333333 [-]
	 SCS Opposite-Spin Scale   =       1.2000000000000000 [-]
	 SCS Same-Spin Energy      =      -0.0855722918225289 [Eh]
	 SCS Opposite-Spin Energy  =      -0.8886825099142225 [Eh]
	 SCS Correlation Energy    =      -0.9742548017367514 [Eh]
	 SCS Total Energy          =    -337.8812196200801736 [Eh]
	-----------------------------------------------------------

  Dipole Moment: [D]
     X:    -0.1376      Y:     0.1112      Z:     1.7815     Total:     1.7902

*** Psi4 exiting successfully. Buy a developer a beer!
