                               Psi4 1.3.2 release

  ==> Input File <==

--------------------------------------------------------------------------
#psi4
#
memory 32 gb

molecule  {
0 1
  F        0.5855156     1.1246119    -0.1057766
  F        0.6428170    -1.0831530    -0.1288340
  F       -1.2595220    -0.0150660    -0.1288310
  C       -0.0000390     0.0000040     0.3413910
  H        0.0001000     0.0000020     1.4301680
units angstrom
no_reorient  #important for SAPT in psi4, default
symmetry c1  #important for SAPT in psi4, default
}

set PROPERTIES_ORIGIN ["COM"]
properties('MP2/aug-cc-pvtz', properties = ['dipole'])
--------------------------------------------------------------------------

    Molecular point group: c1
  Charge       = 0
  Multiplicity = 1
  Basis Set: AUG-CC-PVTZ
    Blend: AUG-CC-PVTZ
  Basis Set: (AUG-CC-PVTZ AUX)
    Blend: AUG-CC-PVTZ-JKFIT

    Orbital Energies [Eh]
    ---------------------

    Doubly Occupied:

       1A    -26.349673     2A    -26.347586     3A    -26.345828
       4A    -11.513456     5A     -1.730969     6A     -1.642908
       7A     -1.638304     8A     -0.992401     9A     -0.845632
      10A     -0.826228    11A     -0.822788    12A     -0.714968
      13A     -0.711580    14A     -0.673519    15A     -0.670276
      16A     -0.656284    17A     -0.599843

  @DF-RHF Final Energy:  -336.90916902518967

   => Energetics <=

    Nuclear Repulsion Energy =            132.6404379778692260
    One-Electron Energy =                -732.9347287122591297
    Two-Electron Energy =                 263.3851217092002912
    Total Energy =                       -336.9091690251896694
  Basis Set: (AUG-CC-PVTZ AUX)
    Blend: AUG-CC-PVTZ-RI
    Molecular point group: c1

    Geometry (in Angstrom), charge = 0, multiplicity = 1:

       Center              X                  Y                   Z               Mass
    ------------   -----------------  -----------------  -----------------  -----------------
         F            0.593985461588     1.117448310965    -0.086252318780    18.998403162730
         F            0.651286861588    -1.090316589035    -0.109309718780    18.998403162730
         F           -1.251052138412    -0.022229589035    -0.109306718780    18.998403162730
         C            0.008430861588    -0.007159589035     0.360915281220    12.000000000000
         H            0.008569861588    -0.007161589035     1.449692281220     1.007825032230

  Basis Set: AUG-CC-PVTZ
    Blend: AUG-CC-PVTZ
  Basis Set: (AUG-CC-PVTZ AUX)
    Blend: AUG-CC-PVTZ-JKFIT
	 Reference Energy          =    -336.9091690251896694 [Eh]
	 Singles Energy            =      -0.0000000000000000 [Eh]
	 Same-Spin Energy          =      -0.2567051843244322 [Eh]
	 Opposite-Spin Energy      =      -0.7406409983849751 [Eh]
	 Correlation Energy        =      -0.9973461827094072 [Eh]
	 Total Energy              =    -337.9065152078990764 [Eh]

	 ================> DF-SCS-MP2 Energies <==================
	-----------------------------------------------------------
	 SCS Same-Spin Scale       =       0.3333333333333333 [-]
	 SCS Opposite-Spin Scale   =       1.2000000000000000 [-]
	 SCS Same-Spin Energy      =      -0.0855683947748107 [Eh]
	 SCS Opposite-Spin Energy  =      -0.8887691980619701 [Eh]
	 SCS Correlation Energy    =      -0.9743375928367808 [Eh]
	 SCS Total Energy          =    -337.8835066180264448 [Eh]
	-----------------------------------------------------------

  Dipole Moment: [D]
     X:     0.0470      Y:    -0.0337      Z:     1.6493     Total:     1.6503

*** Psi4 exiting successfully. Buy a developer a beer!
