                               Psi4 1.3.2 release

  ==> Input File <==

--------------------------------------------------------------------------
#psi4
#
memory 32 gb

molecule  {
0 1
  F        0.6012099     1.1115832    -0.1173762
  F        0.6428170    -1.0831530    -0.1288340
  F       -1.2595220    -0.0150660    -0.1288310
  C       -0.0000390     0.0000040     0.3413910
  H        0.0001000     0.0000020     1.4301680
units angstrom
no_reorient  #important for SAPT in psi4, default
symmetry c1  #important for SAPT in psi4, default
}

set PROPERTIES_ORIGIN ["COM"]
properties('MP2/aug-cc-pvtz', properties = ['dipole'])
--------------------------------------------------------------------------

    Molecular point group: c1
  Charge       = 0
  Multiplicity = 1
  Basis Set: AUG-CC-PVTZ
    Blend: AUG-CC-PVTZ
  Basis Set: (AUG-CC-PVTZ AUX)
    Blend: AUG-CC-PVTZ-JKFIT

    Orbital Energies [Eh]
    ---------------------

    Doubly Occupied:

       1A    -26.348424     2A    -26.347386     3A    -26.346500
       4A    -11.513473     5A     -1.731043     6A     -1.641447
       7A     -1.639137     8A     -0.992360     9A     -0.845792
      10A     -0.825158    11A     -0.823442    12A     -0.713965
      13A     -0.712267    14A     -0.672188    15A     -0.670568
      16A     -0.656120    17A     -0.600659

  @DF-RHF Final Energy:  -336.90944147172939

   => Energetics <=

    Nuclear Repulsion Energy =            132.6928861024302364
    One-Electron Energy =                -733.0447930201406734
    Two-Electron Energy =                 263.4424654459810995
    Total Energy =                       -336.9094414717293944
  Basis Set: (AUG-CC-PVTZ AUX)
    Blend: AUG-CC-PVTZ-RI
    Molecular point group: c1

    Geometry (in Angstrom), charge = 0, multiplicity = 1:

       Center              X                  Y                   Z               Mass
    ------------   -----------------  -----------------  -----------------  -----------------
         F            0.605420422820     1.107955521901    -0.094703857002    18.998403162730
         F            0.647027522820    -1.086780678099    -0.106161657002    18.998403162730
         F           -1.255311477180    -0.018693678099    -0.106158657002    18.998403162730
         C            0.004171522820    -0.003623678099     0.364063342998    12.000000000000
         H            0.004310522820    -0.003625678099     1.452840342998     1.007825032230

  Basis Set: AUG-CC-PVTZ
    Blend: AUG-CC-PVTZ
  Basis Set: (AUG-CC-PVTZ AUX)
    Blend: AUG-CC-PVTZ-JKFIT
	 Reference Energy          =    -336.9094414717293944 [Eh]
	 Singles Energy            =      -0.0000000000000000 [Eh]
	 Same-Spin Energy          =      -0.2566936450679732 [Eh]
	 Opposite-Spin Energy      =      -0.7406064868560307 [Eh]
	 Correlation Energy        =      -0.9973001319240039 [Eh]
	 Total Energy              =    -337.9067416036534155 [Eh]

	 ================> DF-SCS-MP2 Energies <==================
	-----------------------------------------------------------
	 SCS Same-Spin Scale       =       0.3333333333333333 [-]
	 SCS Opposite-Spin Scale   =       1.2000000000000000 [-]
	 SCS Same-Spin Energy      =      -0.0855645483559911 [Eh]
	 SCS Opposite-Spin Energy  =      -0.8887277842272369 [Eh]
	 SCS Correlation Energy    =      -0.9742923325832279 [Eh]
	 SCS Total Energy          =    -337.8837338043126124 [Eh]
	-----------------------------------------------------------

  Dipole Moment: [D]
     X:     0.0233      Y:    -0.0171      Z:     1.6665     Total:     1.6667

*** Psi4 exiting successfully. Buy a developer a beer!
