                               Psi4 1.3.2 release

  ==> Input File <==

--------------------------------------------------------------------------
#psi4
#
memory 32 gb

molecule  {
0 1
  F        0.5210036     1.1732626    -0.0580521
  F        0.6428170    -1.0831530    -0.1288340
  F       -1.2595220    -0.0150660    -0.1288310
  C       -0.0000390     0.0000040     0.3413910
  H        0.0001000     0.0000020     1.4301680
units angstrom
no_reorient  #important for SAPT in psi4, default
symmetry c1  #important for SAPT in psi4, default
}

set PROPERTIES_ORIGIN ["COM"]
properties('MP2/aug-cc-pvtz', properties = ['dipole'])
--------------------------------------------------------------------------

    Molecular point group: c1
  Charge       = 0
  Multiplicity = 1
  Basis Set: AUG-CC-PVTZ
    Blend: AUG-CC-PVTZ
  Basis Set: (AUG-CC-PVTZ AUX)
    Blend: AUG-CC-PVTZ-JKFIT

    Orbital Energies [Eh]
    ---------------------

    Doubly Occupied:

       1A    -26.354421     2A    -26.348051     3A    -26.343092
       4A    -11.513413     5A     -1.730827     6A     -1.648387
       7A     -1.634893     8A     -0.992541     9A     -0.845126
      10A     -0.830313    11A     -0.820049    12A     -0.718862
      13A     -0.708889    14A     -0.678788    15A     -0.669406
      16A     -0.655549    17A     -0.596430

  @DF-RHF Final Energy:  -336.90664323563220

   => Energetics <=

    Nuclear Repulsion Energy =            132.4731082575257801
    One-Electron Energy =                -732.5814261105649621
    Two-Electron Energy =                 263.2016746174069226
    Total Energy =                       -336.9066432356322025
  Basis Set: (AUG-CC-PVTZ AUX)
    Blend: AUG-CC-PVTZ-RI
    Molecular point group: c1

    Geometry (in Angstrom), charge = 0, multiplicity = 1:

       Center              X                  Y                   Z               Mass
    ------------   -----------------  -----------------  -----------------  -----------------
         F            0.546981630958     1.152895503159    -0.051479961469    18.998403162730
         F            0.668795030958    -1.103520096841    -0.122261861469    18.998403162730
         F           -1.233543969042    -0.035433096841    -0.122258861469    18.998403162730
         C            0.025939030958    -0.020363096841     0.347963138531    12.000000000000
         H            0.026078030958    -0.020365096841     1.436740138531     1.007825032230

  Basis Set: AUG-CC-PVTZ
    Blend: AUG-CC-PVTZ
  Basis Set: (AUG-CC-PVTZ AUX)
    Blend: AUG-CC-PVTZ-JKFIT
	 Reference Energy          =    -336.9066432356322025 [Eh]
	 Singles Energy            =      -0.0000000000000000 [Eh]
	 Same-Spin Energy          =      -0.2567867161746967 [Eh]
	 Opposite-Spin Energy      =      -0.7408481926570560 [Eh]
	 Correlation Energy        =      -0.9976349088317527 [Eh]
	 Total Energy              =    -337.9042781444639445 [Eh]

	 ================> DF-SCS-MP2 Energies <==================
	-----------------------------------------------------------
	 SCS Same-Spin Scale       =       0.3333333333333333 [-]
	 SCS Opposite-Spin Scale   =       1.2000000000000000 [-]
	 SCS Same-Spin Energy      =      -0.0855955720582322 [Eh]
	 SCS Opposite-Spin Energy  =      -0.8890178311884672 [Eh]
	 SCS Correlation Energy    =      -0.9746134032466994 [Eh]
	 SCS Total Energy          =    -337.8812566388788809 [Eh]
	-----------------------------------------------------------

  Dipole Moment: [D]
     X:     0.1425      Y:    -0.0961      Z:     1.5789     Total:     1.5882

*** Psi4 exiting successfully. Buy a developer a beer!
