                               Psi4 1.3.2 release

  ==> Input File <==

--------------------------------------------------------------------------
#psi4
#
memory 32 gb

molecule  {
0 1
  F        0.6471749     1.0704821    -0.1513225
  F        0.6428170    -1.0831530    -0.1288340
  F       -1.2595220    -0.0150660    -0.1288310
  C       -0.0000390     0.0000040     0.3413910
  H        0.0001000     0.0000020     1.4301680
units angstrom
no_reorient  #important for SAPT in psi4, default
symmetry c1  #important for SAPT in psi4, default
}

set PROPERTIES_ORIGIN ["COM"]
properties('MP2/aug-cc-pvtz', properties = ['dipole'])
--------------------------------------------------------------------------

    Molecular point group: c1
  Charge       = 0
  Multiplicity = 1
  Basis Set: AUG-CC-PVTZ
    Blend: AUG-CC-PVTZ
  Basis Set: (AUG-CC-PVTZ AUX)
    Blend: AUG-CC-PVTZ-JKFIT

    Orbital Energies [Eh]
    ---------------------

    Doubly Occupied:

       1A    -26.348488     2A    -26.346578     3A    -26.344518
       4A    -11.513533     5A     -1.731372     6A     -1.641603
       7A     -1.636829     8A     -0.992223     9A     -0.846353
      10A     -0.825320    11A     -0.821838    12A     -0.714373
      13A     -0.710888    14A     -0.671609    15A     -0.668381
      16A     -0.654550    17A     -0.603024

  @DF-RHF Final Energy:  -336.90935085856449

   => Energetics <=

    Nuclear Repulsion Energy =            132.8766821793248880
    One-Electron Energy =                -733.4291076489994339
    Two-Electron Energy =                 263.6430746111100234
    Total Energy =                       -336.9093508585644940
  Basis Set: (AUG-CC-PVTZ AUX)
    Blend: AUG-CC-PVTZ-RI
    Molecular point group: c1

    Geometry (in Angstrom), charge = 0, multiplicity = 1:

       Center              X                  Y                   Z               Mass
    ------------   -----------------  -----------------  -----------------  -----------------
         F            0.638910797865     1.078009013607    -0.119437335048    18.998403162730
         F            0.634552897865    -1.075626086393    -0.096948835048    18.998403162730
         F           -1.267786102135    -0.007539086393    -0.096945835048    18.998403162730
         C           -0.008303102135     0.007530913607     0.373276164952    12.000000000000
         H           -0.008164102135     0.007528913607     1.462053164952     1.007825032230

  Basis Set: AUG-CC-PVTZ
    Blend: AUG-CC-PVTZ
  Basis Set: (AUG-CC-PVTZ AUX)
    Blend: AUG-CC-PVTZ-JKFIT
	 Reference Energy          =    -336.9093508585644940 [Eh]
	 Singles Energy            =      -0.0000000000000000 [Eh]
	 Same-Spin Energy          =      -0.2566809190578722 [Eh]
	 Opposite-Spin Energy      =      -0.7405457567470354 [Eh]
	 Correlation Energy        =      -0.9972266758049075 [Eh]
	 Total Energy              =    -337.9065775343693758 [Eh]

	 ================> DF-SCS-MP2 Energies <==================
	-----------------------------------------------------------
	 SCS Same-Spin Scale       =       0.3333333333333333 [-]
	 SCS Opposite-Spin Scale   =       1.2000000000000000 [-]
	 SCS Same-Spin Energy      =      -0.0855603063526240 [Eh]
	 SCS Opposite-Spin Energy  =      -0.8886549080964424 [Eh]
	 SCS Correlation Energy    =      -0.9742152144490664 [Eh]
	 SCS Total Energy          =    -337.8835660730135828 [Eh]
	-----------------------------------------------------------

  Dipole Moment: [D]
     X:    -0.0467      Y:     0.0355      Z:     1.7169     Total:     1.7179

*** Psi4 exiting successfully. Buy a developer a beer!
