                               Psi4 1.3.2 release

  ==> Input File <==

--------------------------------------------------------------------------
#psi4
#
memory 32 gb

molecule  {
0 1
  F        0.6768404     1.0414441    -0.1732087
  F        0.6428170    -1.0831530    -0.1288340
  F       -1.2595220    -0.0150660    -0.1288310
  C       -0.0000390     0.0000040     0.3413910
  H        0.0001000     0.0000020     1.4301680
units angstrom
no_reorient  #important for SAPT in psi4, default
symmetry c1  #important for SAPT in psi4, default
}

set PROPERTIES_ORIGIN ["COM"]
properties('MP2/aug-cc-pvtz', properties = ['dipole'])
--------------------------------------------------------------------------

    Molecular point group: c1
  Charge       = 0
  Multiplicity = 1
  Basis Set: AUG-CC-PVTZ
    Blend: AUG-CC-PVTZ
  Basis Set: (AUG-CC-PVTZ AUX)
    Blend: AUG-CC-PVTZ-JKFIT

    Orbital Energies [Eh]
    ---------------------

    Doubly Occupied:

       1A    -26.349788     2A    -26.345859     3A    -26.341779
       4A    -11.513581     5A     -1.731688     6A     -1.643223
       7A     -1.633537     8A     -0.992120     9A     -0.846798
      10A     -0.826497    11A     -0.819531    12A     -0.715824
      13A     -0.708778    14A     -0.672407    15A     -0.666149
      16A     -0.652454    17A     -0.604538

  @DF-RHF Final Energy:  -336.90849648893538

   => Energetics <=

    Nuclear Repulsion Energy =            133.0219407457229579
    One-Electron Energy =                -733.7317749688476169
    Two-Electron Energy =                 263.8013377341892465
    Total Energy =                       -336.9084964889353841
  Basis Set: (AUG-CC-PVTZ AUX)
    Blend: AUG-CC-PVTZ-RI
    Molecular point group: c1

    Geometry (in Angstrom), charge = 0, multiplicity = 1:

       Center              X                  Y                   Z               Mass
    ------------   -----------------  -----------------  -----------------  -----------------
         F            0.660525259322     1.056851752418    -0.135383751806    18.998403162730
         F            0.626501859322    -1.067745347582    -0.091009051806    18.998403162730
         F           -1.275837140678     0.000341652418    -0.091006051806    18.998403162730
         C           -0.016354140678     0.015411652418     0.379215948194    12.000000000000
         H           -0.016215140678     0.015409652418     1.467992948194     1.007825032230

  Basis Set: AUG-CC-PVTZ
    Blend: AUG-CC-PVTZ
  Basis Set: (AUG-CC-PVTZ AUX)
    Blend: AUG-CC-PVTZ-JKFIT
	 Reference Energy          =    -336.9084964889353841 [Eh]
	 Singles Energy            =      -0.0000000000000000 [Eh]
	 Same-Spin Energy          =      -0.2566911559534374 [Eh]
	 Opposite-Spin Energy      =      -0.7405420041193949 [Eh]
	 Correlation Energy        =      -0.9972331600728322 [Eh]
	 Total Energy              =    -337.9057296490082081 [Eh]

	 ================> DF-SCS-MP2 Energies <==================
	-----------------------------------------------------------
	 SCS Same-Spin Scale       =       0.3333333333333333 [-]
	 SCS Opposite-Spin Scale   =       1.2000000000000000 [-]
	 SCS Same-Spin Energy      =      -0.0855637186511458 [Eh]
	 SCS Opposite-Spin Energy  =      -0.8886504049432739 [Eh]
	 SCS Correlation Energy    =      -0.9742141235944196 [Eh]
	 SCS Total Energy          =    -337.8827106125298201 [Eh]
	-----------------------------------------------------------

  Dipole Moment: [D]
     X:    -0.0925      Y:     0.0726      Z:     1.7496     Total:     1.7536

*** Psi4 exiting successfully. Buy a developer a beer!
