                               Psi4 1.3.2 release

  ==> Input File <==

--------------------------------------------------------------------------
#psi4
#
memory 32 gb

molecule  {
0 1
  F        0.6167210     1.0982160    -0.1288360
  F        0.6428170    -1.0831530    -0.1288340
  F       -1.2595220    -0.0150660    -0.1288310
  C       -0.0000390     0.0000040     0.3413910
  H        0.0000872     0.0000022     1.3301680
units angstrom
no_reorient  #important for SAPT in psi4, default
symmetry c1  #important for SAPT in psi4, default
}

set PROPERTIES_ORIGIN ["COM"]
properties('MP2/aug-cc-pvtz', properties = ['dipole'])
--------------------------------------------------------------------------

    Molecular point group: c1
  Charge       = 0
  Multiplicity = 1
  Basis Set: AUG-CC-PVTZ
    Blend: AUG-CC-PVTZ
  Basis Set: (AUG-CC-PVTZ AUX)
    Blend: AUG-CC-PVTZ-JKFIT

    Orbital Energies [Eh]
    ---------------------

    Doubly Occupied:

       1A    -26.346094     2A    -26.346081     3A    -26.346054
       4A    -11.503015     5A     -1.730973     6A     -1.639322
       7A     -1.639305     8A     -1.008036     9A     -0.857925
      10A     -0.823659    11A     -0.823646    12A     -0.712734
      13A     -0.712724    14A     -0.670193    15A     -0.670181
      16A     -0.655048    17A     -0.618212

  @DF-RHF Final Energy:  -336.90380184846947

   => Energetics <=

    Nuclear Repulsion Energy =            133.3285233032195833
    One-Electron Energy =                -734.2582487393030988
    Two-Electron Energy =                 264.0259235876141020
    Total Energy =                       -336.9038018484694703
  Basis Set: (AUG-CC-PVTZ AUX)
    Blend: AUG-CC-PVTZ-RI
    Molecular point group: c1

    Geometry (in Angstrom), charge = 0, multiplicity = 1:

       Center              X                  Y                   Z               Mass
    ------------   -----------------  -----------------  -----------------  -----------------
         F            0.616722087713     1.098216096824    -0.101613848469    18.998403162730
         F            0.642818087713    -1.083152903176    -0.101611848469    18.998403162730
         F           -1.259520912287    -0.015065903176    -0.101608848469    18.998403162730
         C           -0.000037912287     0.000004096824     0.368613151531    12.000000000000
         H            0.000088287713     0.000002296824     1.357390151531     1.007825032230

  Basis Set: AUG-CC-PVTZ
    Blend: AUG-CC-PVTZ
  Basis Set: (AUG-CC-PVTZ AUX)
    Blend: AUG-CC-PVTZ-JKFIT
	 Reference Energy          =    -336.9038018484694703 [Eh]
	 Singles Energy            =      -0.0000000000000000 [Eh]
	 Same-Spin Energy          =      -0.2564504593251018 [Eh]
	 Opposite-Spin Energy      =      -0.7399506020190391 [Eh]
	 Correlation Energy        =      -0.9964010613441409 [Eh]
	 Total Energy              =    -337.9002029098136290 [Eh]

	 ================> DF-SCS-MP2 Energies <==================
	-----------------------------------------------------------
	 SCS Same-Spin Scale       =       0.3333333333333333 [-]
	 SCS Opposite-Spin Scale   =       1.2000000000000000 [-]
	 SCS Same-Spin Energy      =      -0.0854834864417006 [Eh]
	 SCS Opposite-Spin Energy  =      -0.8879407224228468 [Eh]
	 SCS Correlation Energy    =      -0.9734242088645474 [Eh]
	 SCS Total Energy          =    -337.8772260573340418 [Eh]
	-----------------------------------------------------------

  Dipole Moment: [D]
     X:    -0.0002      Y:     0.0001      Z:     1.6992     Total:     1.6992

*** Psi4 exiting successfully. Buy a developer a beer!
