                               Psi4 1.4a3.dev225

  ==> Input File <==

--------------------------------------------------------------------------
#psi4
#
memory 32 gb

molecule  {
0 1
  F        1.0816510    -0.6454040    -0.1288250
  F       -1.0997840    -0.6140010    -0.1288250
  F        0.0181310     1.2594070    -0.1288290
  C       -0.0160884     0.0095898     0.3483625
  H        0.0000010     0.0000460     1.4300970
units angstrom
no_reorient  #important for SAPT in psi4, default
symmetry c1  #important for SAPT in psi4, default
}

set PROPERTIES_ORIGIN ["COM"]
properties('MP2/aug-cc-pvtz', properties = ['dipole'])
--------------------------------------------------------------------------

    Molecular point group: c1
  Charge       = 0
  Multiplicity = 1
  Basis Set: AUG-CC-PVTZ
    Blend: AUG-CC-PVTZ
  Basis Set: (AUG-CC-PVTZ AUX)
    Blend: AUG-CC-PVTZ-JKFIT

    Orbital Energies [Eh]
    ---------------------

    Doubly Occupied:

       1A    -26.350249     2A    -26.350228     3A    -26.339692
       4A    -11.513788     5A     -1.730603     6A     -1.644775
       7A     -1.631851     8A     -0.993204     9A     -0.846598
      10A     -0.824774    11A     -0.821019    12A     -0.714540
      13A     -0.709960    14A     -0.673104    15A     -0.666687
      16A     -0.654366    17A     -0.604304

  @DF-RHF Final Energy:  -336.90889071104277

   => Energetics <=

    Nuclear Repulsion Energy =            132.6543463663875002
    One-Electron Energy =                -732.9869882020224168
    Two-Electron Energy =                 263.4237511245921723
    Total Energy =                       -336.9088907110427726
  Basis Set: (AUG-CC-PVTZ AUX)
    Blend: AUG-CC-PVTZ-RI
    Molecular point group: c1

    Geometry (in Angstrom), charge = 0, multiplicity = 1:

       Center              X                  Y                   Z               Mass
    ------------   -----------------  -----------------  -----------------  -----------------
         F            1.084409420264    -0.647049099495    -0.104242547073    18.998403162730
         F           -1.097025579736    -0.615646099495    -0.104242547073    18.998403162730
         F            0.020889420264     1.257761900505    -0.104246547073    18.998403162730
         C           -0.013329979736     0.007944700505     0.372944952927    12.000000000000
         H            0.002759420264    -0.001599099495     1.454679452927     1.007825032230

  Basis Set: AUG-CC-PVTZ
    Blend: AUG-CC-PVTZ
  Basis Set: (AUG-CC-PVTZ AUX)
    Blend: AUG-CC-PVTZ-JKFIT
	 Reference Energy          =    -336.9088907110427726 [Eh]
	 Singles Energy            =      -0.0000000000000000 [Eh]
	 Same-Spin Energy          =      -0.2567280399467546 [Eh]
	 Opposite-Spin Energy      =      -0.7407850497676434 [Eh]
	 Correlation Energy        =      -0.9975130897143980 [Eh]
	 Total Energy              =    -337.9064038007571753 [Eh]

	 ================> DF-SCS-MP2 Energies <==================
	-----------------------------------------------------------
	 SCS Same-Spin Scale       =       0.3333333333333333 [-]
	 SCS Opposite-Spin Scale   =       1.2000000000000000 [-]
	 SCS Same-Spin Energy      =      -0.0855760133155849 [Eh]
	 SCS Opposite-Spin Energy  =      -0.8889420597211720 [Eh]
	 SCS Correlation Energy    =      -0.9745180730367569 [Eh]
	 SCS Total Energy          =    -337.8834087840795064 [Eh]
	-----------------------------------------------------------

  Dipole Moment: [D]
     X:    -0.1390      Y:     0.0830      Z:     1.7204     Total:     1.7280

*** Psi4 exiting successfully. Buy a developer a beer!
