                               Psi4 1.3.2 release

  ==> Input File <==

--------------------------------------------------------------------------
#psi4
#
memory 32 gb

molecule  {
0 1
  F        0.6167210     1.0982160    -0.1288360
  F        0.6428170    -1.0831530    -0.1288340
  F       -1.2595220    -0.0150660    -0.1288310
  C       -0.0917873    -0.1633643     0.4113413
  H        0.0001000     0.0000020     1.4301680
units angstrom
no_reorient  #important for SAPT in psi4, default
symmetry c1  #important for SAPT in psi4, default
}

set PROPERTIES_ORIGIN ["COM"]
properties('MP2/aug-cc-pvtz', properties = ['dipole'])
--------------------------------------------------------------------------

    Molecular point group: c1
  Charge       = 0
  Multiplicity = 1
  Basis Set: AUG-CC-PVTZ
    Blend: AUG-CC-PVTZ
  Basis Set: (AUG-CC-PVTZ AUX)
    Blend: AUG-CC-PVTZ-JKFIT

    Orbital Energies [Eh]
    ---------------------

    Doubly Occupied:

       1A    -26.377531     2A    -26.377493     3A    -26.272039
       4A    -11.524568     5A     -1.754351     6A     -1.684687
       7A     -1.544212     8A     -1.008644     9A     -0.870369
      10A     -0.847836    11A     -0.812764    12A     -0.732262
      13A     -0.701477    14A     -0.691792    15A     -0.611423
      16A     -0.609065    17A     -0.595432

  @DF-RHF Final Energy:  -336.87555575481497

   => Energetics <=

    Nuclear Repulsion Energy =            131.7651221842377538
    One-Electron Energy =                -731.2494651345739385
    Two-Electron Energy =                 262.6087871955212449
    Total Energy =                       -336.8755557548149682
  Basis Set: (AUG-CC-PVTZ AUX)
    Blend: AUG-CC-PVTZ-RI
    Molecular point group: c1

    Geometry (in Angstrom), charge = 0, multiplicity = 1:

       Center              X                  Y                   Z               Mass
    ------------   -----------------  -----------------  -----------------  -----------------
         F            0.632449501637     1.126220879974    -0.115044496293    18.998403162730
         F            0.658545501637    -1.055148120026    -0.115042496293    18.998403162730
         F           -1.243793498363     0.012938879974    -0.115039496293    18.998403162730
         C           -0.076058798363    -0.135359420026     0.425132803707    12.000000000000
         H            0.015828501637     0.028006879974     1.443959503707     1.007825032230

  Basis Set: AUG-CC-PVTZ
    Blend: AUG-CC-PVTZ
  Basis Set: (AUG-CC-PVTZ AUX)
    Blend: AUG-CC-PVTZ-JKFIT
	 Reference Energy          =    -336.8755557548149682 [Eh]
	 Singles Energy            =      -0.0000000000000000 [Eh]
	 Same-Spin Energy          =      -0.2580994768752076 [Eh]
	 Opposite-Spin Energy      =      -0.7442889657928473 [Eh]
	 Correlation Energy        =      -1.0023884426680549 [Eh]
	 Total Energy              =    -337.8779441974830320 [Eh]

	 ================> DF-SCS-MP2 Energies <==================
	-----------------------------------------------------------
	 SCS Same-Spin Scale       =       0.3333333333333333 [-]
	 SCS Opposite-Spin Scale   =       1.2000000000000000 [-]
	 SCS Same-Spin Energy      =      -0.0860331589584025 [Eh]
	 SCS Opposite-Spin Energy  =      -0.8931467589514167 [Eh]
	 SCS Correlation Energy    =      -0.9791799179098193 [Eh]
	 SCS Total Energy          =    -337.8547356727248143 [Eh]
	-----------------------------------------------------------

  Dipole Moment: [D]
     X:    -0.7768      Y:    -1.3827      Z:     2.0329     Total:     2.5784

*** Psi4 exiting successfully. Buy a developer a beer!
