                               Psi4 1.4a3.dev225

  ==> Input File <==

--------------------------------------------------------------------------
#psi4
#
memory 32 gb

molecule  {
0 1
  F        1.0816510    -0.6454040    -0.1288250
  F       -1.0997840    -0.6140010    -0.1288250
  F        0.0181310     1.2594070    -0.1288290
  C        0.0160924    -0.0096118     0.3343735
  H        0.0000010     0.0000460     1.4300970
units angstrom
no_reorient  #important for SAPT in psi4, default
symmetry c1  #important for SAPT in psi4, default
}

set PROPERTIES_ORIGIN ["COM"]
properties('MP2/aug-cc-pvtz', properties = ['dipole'])
--------------------------------------------------------------------------

    Molecular point group: c1
  Charge       = 0
  Multiplicity = 1
  Basis Set: AUG-CC-PVTZ
    Blend: AUG-CC-PVTZ
  Basis Set: (AUG-CC-PVTZ AUX)
    Blend: AUG-CC-PVTZ-JKFIT

    Orbital Energies [Eh]
    ---------------------

    Doubly Occupied:

       1A    -26.354665     2A    -26.344052     3A    -26.344031
       4A    -11.513343     5A     -1.733526     6A     -1.646663
       7A     -1.635082     8A     -0.991780     9A     -0.846303
      10A     -0.827337    11A     -0.824139    12A     -0.715663
      13A     -0.711453    14A     -0.674440    15A     -0.669427
      16A     -0.655622    17A     -0.598179

  @DF-RHF Final Energy:  -336.90942194506380

   => Energetics <=

    Nuclear Repulsion Energy =            132.8491495632686110
    One-Electron Energy =                -733.3457348009796988
    Two-Electron Energy =                 263.5871632926472898
    Total Energy =                       -336.9094219450637979
  Basis Set: (AUG-CC-PVTZ AUX)
    Blend: AUG-CC-PVTZ-RI
    Molecular point group: c1

    Geometry (in Angstrom), charge = 0, multiplicity = 1:

       Center              X                  Y                   Z               Mass
    ------------   -----------------  -----------------  -----------------  -----------------
         F            1.078892950833    -0.643757539328    -0.101844536742    18.998403162730
         F           -1.102542049167    -0.612354539328    -0.101844536742    18.998403162730
         F            0.015372950833     1.261053460672    -0.101848536742    18.998403162730
         C            0.013334350833    -0.007965339328     0.361353963258    12.000000000000
         H           -0.002757049167     0.001692460672     1.457077463258     1.007825032230

  Basis Set: AUG-CC-PVTZ
    Blend: AUG-CC-PVTZ
  Basis Set: (AUG-CC-PVTZ AUX)
    Blend: AUG-CC-PVTZ-JKFIT
	 Reference Energy          =    -336.9094219450637979 [Eh]
	 Singles Energy            =      -0.0000000000000000 [Eh]
	 Same-Spin Energy          =      -0.2566682542231675 [Eh]
	 Opposite-Spin Energy      =      -0.7404183269279072 [Eh]
	 Correlation Energy        =      -0.9970865811510747 [Eh]
	 Total Energy              =    -337.9065085262148500 [Eh]

	 ================> DF-SCS-MP2 Energies <==================
	-----------------------------------------------------------
	 SCS Same-Spin Scale       =       0.3333333333333333 [-]
	 SCS Opposite-Spin Scale   =       1.2000000000000000 [-]
	 SCS Same-Spin Energy      =      -0.0855560847410558 [Eh]
	 SCS Opposite-Spin Energy  =      -0.8885019923134886 [Eh]
	 SCS Correlation Energy    =      -0.9740580770545444 [Eh]
	 SCS Total Energy          =    -337.8834800221183627 [Eh]
	-----------------------------------------------------------

  Dipole Moment: [D]
     X:     0.1402      Y:    -0.0836      Z:     1.6455     Total:     1.6536

*** Psi4 exiting successfully. Buy a developer a beer!
