                               Psi4 1.4a3.dev225

  ==> Input File <==

--------------------------------------------------------------------------
#psi4
#
memory 32 gb

molecule  {
0 1
  F        1.0816510    -0.6454040    -0.1288250
  F       -1.0997840    -0.6140010    -0.1288250
  F        0.0181310     1.2594070    -0.1288290
  C        0.0000020    -0.0000110     0.3413680
  H        0.0000010     0.0000486     1.4800970
units angstrom
no_reorient  #important for SAPT in psi4, default
symmetry c1  #important for SAPT in psi4, default
}

set PROPERTIES_ORIGIN ["COM"]
properties('MP2/aug-cc-pvtz', properties = ['dipole'])
--------------------------------------------------------------------------

    Molecular point group: c1
  Charge       = 0
  Multiplicity = 1
  Basis Set: AUG-CC-PVTZ
    Blend: AUG-CC-PVTZ
  Basis Set: (AUG-CC-PVTZ AUX)
    Blend: AUG-CC-PVTZ-JKFIT

    Orbital Energies [Eh]
    ---------------------

    Doubly Occupied:

       1A    -26.347866     2A    -26.347863     3A    -26.347832
       4A    -11.518488     5A     -1.731393     6A     -1.640400
       7A     -1.640396     8A     -0.986758     9A     -0.840237
      10A     -0.824429    11A     -0.824424    12A     -0.713167
      13A     -0.713164    14A     -0.671350    15A     -0.671346
      16A     -0.656284    17A     -0.592463

  @DF-RHF Final Energy:  -336.90702707632903

   => Energetics <=

    Nuclear Repulsion Energy =            132.4860593542807976
    One-Electron Energy =                -732.6504535329416967
    Two-Electron Energy =                 263.2573671023318980
    Total Energy =                       -336.9070270763290296
  Basis Set: (AUG-CC-PVTZ AUX)
    Blend: AUG-CC-PVTZ-RI
    Molecular point group: c1

    Geometry (in Angstrom), charge = 0, multiplicity = 1:

       Center              X                  Y                   Z               Mass
    ------------   -----------------  -----------------  -----------------  -----------------
         F            1.081651185549    -0.645403356844    -0.103763385725    18.998403162730
         F           -1.099783814451    -0.614000356844    -0.103763385725    18.998403162730
         F            0.018131185549     1.259407643156    -0.103767385725    18.998403162730
         C            0.000002185549    -0.000010356844     0.366429614275    12.000000000000
         H            0.000001185549     0.000049243156     1.505158614275     1.007825032230

  Basis Set: AUG-CC-PVTZ
    Blend: AUG-CC-PVTZ
  Basis Set: (AUG-CC-PVTZ AUX)
    Blend: AUG-CC-PVTZ-JKFIT
	 Reference Energy          =    -336.9070270763290296 [Eh]
	 Singles Energy            =      -0.0000000000000000 [Eh]
	 Same-Spin Energy          =      -0.2568395202425675 [Eh]
	 Opposite-Spin Energy      =      -0.7410307481758949 [Eh]
	 Correlation Energy        =      -0.9978702684184624 [Eh]
	 Total Energy              =    -337.9048973447474964 [Eh]

	 ================> DF-SCS-MP2 Energies <==================
	-----------------------------------------------------------
	 SCS Same-Spin Scale       =       0.3333333333333333 [-]
	 SCS Opposite-Spin Scale   =       1.2000000000000000 [-]
	 SCS Same-Spin Energy      =      -0.0856131734141892 [Eh]
	 SCS Opposite-Spin Energy  =      -0.8892368978110738 [Eh]
	 SCS Correlation Energy    =      -0.9748500712252630 [Eh]
	 SCS Total Energy          =    -337.8818771475542917 [Eh]
	-----------------------------------------------------------

  Dipole Moment: [D]
     X:     0.0000      Y:     0.0000      Z:     1.6695     Total:     1.6695

*** Psi4 exiting successfully. Buy a developer a beer!
