                               Psi4 1.4a3.dev225

  ==> Input File <==

--------------------------------------------------------------------------
#psi4
#
memory 32 gb

molecule  {
0 1
  F        1.0816510    -0.6454040    -0.1288250
  F       -1.0997840    -0.6140010    -0.1288250
  F        0.0181310     1.2594070    -0.1288290
  C       -0.0402241     0.0239909     0.3588543
  H        0.0000010     0.0000460     1.4300970
units angstrom
no_reorient  #important for SAPT in psi4, default
symmetry c1  #important for SAPT in psi4, default
}

set PROPERTIES_ORIGIN ["COM"]
properties('MP2/aug-cc-pvtz', properties = ['dipole'])
--------------------------------------------------------------------------

    Molecular point group: c1
  Charge       = 0
  Multiplicity = 1
  Basis Set: AUG-CC-PVTZ
    Blend: AUG-CC-PVTZ
  Basis Set: (AUG-CC-PVTZ AUX)
    Blend: AUG-CC-PVTZ-JKFIT

    Orbital Energies [Eh]
    ---------------------

    Doubly Occupied:

       1A    -26.354833     2A    -26.354812     3A    -26.328527
       4A    -11.514570     5A     -1.732177     6A     -1.651874
       7A     -1.618035     8A     -0.995017     9A     -0.848864
      10A     -0.826948    11A     -0.817115    12A     -0.717114
      13A     -0.705165    14A     -0.677350    15A     -0.659305
      16A     -0.649913    17A     -0.607570

  @DF-RHF Final Energy:  -336.90647695955926

   => Energetics <=

    Nuclear Repulsion Energy =            132.5123293622373239
    One-Electron Energy =                -732.7192385001875437
    Two-Electron Energy =                 263.3004321783909631
    Total Energy =                       -336.9064769595592566
  Basis Set: (AUG-CC-PVTZ AUX)
    Blend: AUG-CC-PVTZ-RI
    Molecular point group: c1

    Geometry (in Angstrom), charge = 0, multiplicity = 1:

       Center              X                  Y                   Z               Mass
    ------------   -----------------  -----------------  -----------------  -----------------
         F            1.088546789480    -0.649517752478    -0.106041063393    18.998403162730
         F           -1.092888210520    -0.618114752478    -0.106041063393    18.998403162730
         F            0.025026789480     1.255293247522    -0.106045063393    18.998403162730
         C           -0.033328310520     0.019877147522     0.381638236607    12.000000000000
         H            0.006896789480    -0.004067752478     1.452880936607     1.007825032230

  Basis Set: AUG-CC-PVTZ
    Blend: AUG-CC-PVTZ
  Basis Set: (AUG-CC-PVTZ AUX)
    Blend: AUG-CC-PVTZ-JKFIT
	 Reference Energy          =    -336.9064769595592566 [Eh]
	 Singles Energy            =      -0.0000000000000000 [Eh]
	 Same-Spin Energy          =      -0.2568387124104250 [Eh]
	 Opposite-Spin Energy      =      -0.7411812143139289 [Eh]
	 Correlation Energy        =      -0.9980199267243539 [Eh]
	 Total Energy              =    -337.9044968862835958 [Eh]

	 ================> DF-SCS-MP2 Energies <==================
	-----------------------------------------------------------
	 SCS Same-Spin Scale       =       0.3333333333333333 [-]
	 SCS Opposite-Spin Scale   =       1.2000000000000000 [-]
	 SCS Same-Spin Energy      =      -0.0856129041368083 [Eh]
	 SCS Opposite-Spin Energy  =      -0.8894174571767147 [Eh]
	 SCS Correlation Energy    =      -0.9750303613135231 [Eh]
	 SCS Total Energy          =    -337.8815073208727995 [Eh]
	-----------------------------------------------------------

  Dipole Moment: [D]
     X:    -0.3460      Y:     0.2065      Z:     1.7750     Total:     1.8201

*** Psi4 exiting successfully. Buy a developer a beer!
