                               Psi4 1.3.2 release

  ==> Input File <==

--------------------------------------------------------------------------
#psi4
#
memory 32 gb

molecule  {
0 1
  F        0.5991470     1.0669465    -0.2155522
  F        0.6428170    -1.0831530    -0.1288340
  F       -1.2595220    -0.0150660    -0.1288310
  C       -0.0000390     0.0000040     0.3413910
  H        0.0001000     0.0000020     1.4301680
units angstrom
no_reorient  #important for SAPT in psi4, default
symmetry c1  #important for SAPT in psi4, default
}

set PROPERTIES_ORIGIN ["COM"]
properties('MP2/aug-cc-pvtz', properties = ['dipole'])
--------------------------------------------------------------------------

    Molecular point group: c1
  Charge       = 0
  Multiplicity = 1
  Basis Set: AUG-CC-PVTZ
    Blend: AUG-CC-PVTZ
  Basis Set: (AUG-CC-PVTZ AUX)
    Blend: AUG-CC-PVTZ-JKFIT

    Orbital Energies [Eh]
    ---------------------

    Doubly Occupied:

       1A    -26.345038     2A    -26.344696     3A    -26.344668
       4A    -11.513636     5A     -1.732002     6A     -1.638511
       7A     -1.635827     8A     -0.991962     9A     -0.847584
      10A     -0.823547    11A     -0.820705    12A     -0.713364
      13A     -0.710000    14A     -0.668107    15A     -0.666001
      16A     -0.652300    17A     -0.607247

  @DF-RHF Final Energy:  -336.90884699792213

   => Energetics <=

    Nuclear Repulsion Energy =            133.2295891551956686
    One-Electron Energy =                -734.1664838655671019
    Two-Electron Energy =                 264.0280477124493359
    Total Energy =                       -336.9088469979221259
  Basis Set: (AUG-CC-PVTZ AUX)
    Blend: AUG-CC-PVTZ-RI
    Molecular point group: c1

    Geometry (in Angstrom), charge = 0, multiplicity = 1:

       Center              X                  Y                   Z               Mass
    ------------   -----------------  -----------------  -----------------  -----------------
         F            0.603917381492     1.075432954213    -0.166235480202    18.998403162730
         F            0.647587381492    -1.074666545787    -0.079517280202    18.998403162730
         F           -1.254751618508    -0.006579545787    -0.079514280202    18.998403162730
         C            0.004731381492     0.008490454213     0.390707719798    12.000000000000
         H            0.004870381492     0.008488454213     1.479484719798     1.007825032230

  Basis Set: AUG-CC-PVTZ
    Blend: AUG-CC-PVTZ
  Basis Set: (AUG-CC-PVTZ AUX)
    Blend: AUG-CC-PVTZ-JKFIT
	 Reference Energy          =    -336.9088469979221259 [Eh]
	 Singles Energy            =      -0.0000000000000000 [Eh]
	 Same-Spin Energy          =      -0.2566664784710904 [Eh]
	 Opposite-Spin Energy      =      -0.7404487907341286 [Eh]
	 Correlation Energy        =      -0.9971152692052190 [Eh]
	 Total Energy              =    -337.9059622671273360 [Eh]

	 ================> DF-SCS-MP2 Energies <==================
	-----------------------------------------------------------
	 SCS Same-Spin Scale       =       0.3333333333333333 [-]
	 SCS Opposite-Spin Scale   =       1.2000000000000000 [-]
	 SCS Same-Spin Energy      =      -0.0855554928236968 [Eh]
	 SCS Opposite-Spin Energy  =      -0.8885385488809543 [Eh]
	 SCS Correlation Energy    =      -0.9740940417046511 [Eh]
	 SCS Total Energy          =    -337.8829410396267576 [Eh]
	-----------------------------------------------------------

  Dipole Moment: [D]
     X:     0.0157      Y:     0.0281      Z:     1.8122     Total:     1.8124

*** Psi4 exiting successfully. Buy a developer a beer!
