                               Psi4 1.4a3.dev225

  ==> Input File <==

--------------------------------------------------------------------------
#psi4
#
memory 32 gb

molecule  {
0 1
  F        1.0816510    -0.6454040    -0.1288250
  F       -1.0997840    -0.6140010    -0.1288250
  F        0.0181310     1.2594070    -0.1288290
  C        0.0000020    -0.0000110     0.3413680
  H        0.0000010     0.0000470     1.4500970
units angstrom
no_reorient  #important for SAPT in psi4, default
symmetry c1  #important for SAPT in psi4, default
}

set PROPERTIES_ORIGIN ["COM"]
properties('MP2/aug-cc-pvtz', properties = ['dipole'])
--------------------------------------------------------------------------

    Molecular point group: c1
  Charge       = 0
  Multiplicity = 1
  Basis Set: AUG-CC-PVTZ
    Blend: AUG-CC-PVTZ
  Basis Set: (AUG-CC-PVTZ AUX)
    Blend: AUG-CC-PVTZ-JKFIT

    Orbital Energies [Eh]
    ---------------------

    Doubly Occupied:

       1A    -26.347435     2A    -26.347432     3A    -26.347402
       4A    -11.515508     5A     -1.731229     6A     -1.640129
       7A     -1.640126     8A     -0.989937     9A     -0.843644
      10A     -0.824212    11A     -0.824208    12A     -0.713036
      13A     -0.713033    14A     -0.671064    15A     -0.671061
      16A     -0.655978    17A     -0.597905

  @DF-RHF Final Energy:  -336.90889432399808

   => Energetics <=

    Nuclear Repulsion Energy =            132.6429911789015819
    One-Electron Energy =                -732.9570919837730116
    Two-Electron Energy =                 263.4052064808734031
    Total Energy =                       -336.9088943239980836
  Basis Set: (AUG-CC-PVTZ AUX)
    Blend: AUG-CC-PVTZ-RI
    Molecular point group: c1

    Geometry (in Angstrom), charge = 0, multiplicity = 1:

       Center              X                  Y                   Z               Mass
    ------------   -----------------  -----------------  -----------------  -----------------
         F            1.081651185549    -0.645403333809    -0.103331479435    18.998403162730
         F           -1.099783814451    -0.614000333809    -0.103331479435    18.998403162730
         F            0.018131185549     1.259407666191    -0.103335479435    18.998403162730
         C            0.000002185549    -0.000010333809     0.366861520565    12.000000000000
         H            0.000001185549     0.000047666191     1.475590520565     1.007825032230

  Basis Set: AUG-CC-PVTZ
    Blend: AUG-CC-PVTZ
  Basis Set: (AUG-CC-PVTZ AUX)
    Blend: AUG-CC-PVTZ-JKFIT
	 Reference Energy          =    -336.9088943239980836 [Eh]
	 Singles Energy            =      -0.0000000000000000 [Eh]
	 Same-Spin Energy          =      -0.2567445025538512 [Eh]
	 Opposite-Spin Energy      =      -0.7407483113609934 [Eh]
	 Correlation Energy        =      -0.9974928139148446 [Eh]
	 Total Energy              =    -337.9063871379129296 [Eh]

	 ================> DF-SCS-MP2 Energies <==================
	-----------------------------------------------------------
	 SCS Same-Spin Scale       =       0.3333333333333333 [-]
	 SCS Opposite-Spin Scale   =       1.2000000000000000 [-]
	 SCS Same-Spin Energy      =      -0.0855815008512837 [Eh]
	 SCS Opposite-Spin Energy  =      -0.8888979736331920 [Eh]
	 SCS Correlation Energy    =      -0.9744794744844757 [Eh]
	 SCS Total Energy          =    -337.8833737984825802 [Eh]
	-----------------------------------------------------------

  Dipole Moment: [D]
     X:     0.0000      Y:    -0.0000      Z:     1.6783     Total:     1.6783

*** Psi4 exiting successfully. Buy a developer a beer!
