                               Psi4 1.4a3.dev225

  ==> Input File <==

--------------------------------------------------------------------------
#psi4
#
memory 32 gb

molecule  {
0 1
  F        1.0816510    -0.6454040    -0.1288250
  F       -1.0997840    -0.6140010    -0.1288250
  F        0.0181310     1.2594070    -0.1288290
  C        0.0000020    -0.0000110     0.3413680
  H        0.0000010     0.0000450     1.4100970
units angstrom
no_reorient  #important for SAPT in psi4, default
symmetry c1  #important for SAPT in psi4, default
}

set PROPERTIES_ORIGIN ["COM"]
properties('MP2/aug-cc-pvtz', properties = ['dipole'])
--------------------------------------------------------------------------

    Molecular point group: c1
  Charge       = 0
  Multiplicity = 1
  Basis Set: AUG-CC-PVTZ
    Blend: AUG-CC-PVTZ
  Basis Set: (AUG-CC-PVTZ AUX)
    Blend: AUG-CC-PVTZ-JKFIT

    Orbital Energies [Eh]
    ---------------------

    Doubly Occupied:

       1A    -26.346918     2A    -26.346915     3A    -26.346885
       4A    -11.511428     5A     -1.731071     6A     -1.639810
       7A     -1.639807     8A     -0.994941     9A     -0.848339
      10A     -0.823971    11A     -0.823967    12A     -0.712895
      13A     -0.712892    14A     -0.670725    15A     -0.670721
      16A     -0.655615    17A     -0.604954

  @DF-RHF Final Energy:  -336.90972095712505

   => Energetics <=

    Nuclear Repulsion Energy =            132.8608453413189920
    One-Electron Energy =                -733.3774218438371690
    Two-Electron Energy =                 263.6068555453931594
    Total Energy =                       -336.9097209571250460
  Basis Set: (AUG-CC-PVTZ AUX)
    Blend: AUG-CC-PVTZ-RI
    Molecular point group: c1

    Geometry (in Angstrom), charge = 0, multiplicity = 1:

       Center              X                  Y                   Z               Mass
    ------------   -----------------  -----------------  -----------------  -----------------
         F            1.081651185549    -0.645403305015    -0.102755604381    18.998403162730
         F           -1.099783814451    -0.614000305015    -0.102755604381    18.998403162730
         F            0.018131185549     1.259407694985    -0.102759604381    18.998403162730
         C            0.000002185549    -0.000010305015     0.367437395619    12.000000000000
         H            0.000001185549     0.000045694985     1.436166395619     1.007825032230

  Basis Set: AUG-CC-PVTZ
    Blend: AUG-CC-PVTZ
  Basis Set: (AUG-CC-PVTZ AUX)
    Blend: AUG-CC-PVTZ-JKFIT
	 Reference Energy          =    -336.9097209571250460 [Eh]
	 Singles Energy            =      -0.0000000000000000 [Eh]
	 Same-Spin Energy          =      -0.2566298753883350 [Eh]
	 Opposite-Spin Energy      =      -0.7404211045382365 [Eh]
	 Correlation Energy        =      -0.9970509799265715 [Eh]
	 Total Energy              =    -337.9067719370516443 [Eh]

	 ================> DF-SCS-MP2 Energies <==================
	-----------------------------------------------------------
	 SCS Same-Spin Scale       =       0.3333333333333333 [-]
	 SCS Opposite-Spin Scale   =       1.2000000000000000 [-]
	 SCS Same-Spin Energy      =      -0.0855432917961117 [Eh]
	 SCS Opposite-Spin Energy  =      -0.8885053254458838 [Eh]
	 SCS Correlation Energy    =      -0.9740486172419954 [Eh]
	 SCS Total Energy          =    -337.8837695743670224 [Eh]
	-----------------------------------------------------------

  Dipole Moment: [D]
     X:     0.0000      Y:    -0.0000      Z:     1.6877     Total:     1.6877

*** Psi4 exiting successfully. Buy a developer a beer!
