                               Psi4 1.4a3.dev225

  ==> Input File <==

--------------------------------------------------------------------------
#psi4
#
memory 32 gb

molecule  {
0 1
  F        1.0816510    -0.6454040    -0.1288250
  F       -1.0997840    -0.6140010    -0.1288250
  F        0.0181310     1.2594070    -0.1288290
  C        0.0000020    -0.0000110     0.3413680
  H        0.0000010     0.0000434     1.3800970
units angstrom
no_reorient  #important for SAPT in psi4, default
symmetry c1  #important for SAPT in psi4, default
}

set PROPERTIES_ORIGIN ["COM"]
properties('MP2/aug-cc-pvtz', properties = ['dipole'])
--------------------------------------------------------------------------

    Molecular point group: c1
  Charge       = 0
  Multiplicity = 1
  Basis Set: AUG-CC-PVTZ
    Blend: AUG-CC-PVTZ
  Basis Set: (AUG-CC-PVTZ AUX)
    Blend: AUG-CC-PVTZ-JKFIT

    Orbital Energies [Eh]
    ---------------------

    Doubly Occupied:

       1A    -26.346574     2A    -26.346572     3A    -26.346541
       4A    -11.508300     5A     -1.731001     6A     -1.639603
       7A     -1.639600     8A     -0.999338     9A     -0.851930
      10A     -0.823827    11A     -0.823823    12A     -0.712816
      13A     -0.712813    14A     -0.670502    15A     -0.670498
      16A     -0.655378    17A     -0.610065

  @DF-RHF Final Energy:  -336.90883873008897

   => Energetics <=

    Nuclear Repulsion Energy =            133.0311722482517496
    One-Electron Energy =                -733.7016597267452198
    Two-Electron Energy =                 263.7616487484044683
    Total Energy =                       -336.9088387300889735
  Basis Set: (AUG-CC-PVTZ AUX)
    Blend: AUG-CC-PVTZ-RI
    Molecular point group: c1

    Geometry (in Angstrom), charge = 0, multiplicity = 1:

       Center              X                  Y                   Z               Mass
    ------------   -----------------  -----------------  -----------------  -----------------
         F            1.081651185549    -0.645403281980    -0.102323698090    18.998403162730
         F           -1.099783814451    -0.614000281980    -0.102323698090    18.998403162730
         F            0.018131185549     1.259407718020    -0.102327698090    18.998403162730
         C            0.000002185549    -0.000010281980     0.367869301910    12.000000000000
         H            0.000001185549     0.000044118020     1.406598301910     1.007825032230

  Basis Set: AUG-CC-PVTZ
    Blend: AUG-CC-PVTZ
  Basis Set: (AUG-CC-PVTZ AUX)
    Blend: AUG-CC-PVTZ-JKFIT
	 Reference Energy          =    -336.9088387300889735 [Eh]
	 Singles Energy            =      -0.0000000000000000 [Eh]
	 Same-Spin Energy          =      -0.2565541895706947 [Eh]
	 Opposite-Spin Energy      =      -0.7402145615848363 [Eh]
	 Correlation Energy        =      -0.9967687511555310 [Eh]
	 Total Energy              =    -337.9056074812444876 [Eh]

	 ================> DF-SCS-MP2 Energies <==================
	-----------------------------------------------------------
	 SCS Same-Spin Scale       =       0.3333333333333333 [-]
	 SCS Opposite-Spin Scale   =       1.2000000000000000 [-]
	 SCS Same-Spin Energy      =      -0.0855180631902316 [Eh]
	 SCS Opposite-Spin Energy  =      -0.8882574739018035 [Eh]
	 SCS Correlation Energy    =      -0.9737755370920351 [Eh]
	 SCS Total Energy          =    -337.8826142671809976 [Eh]
	-----------------------------------------------------------

  Dipole Moment: [D]
     X:     0.0000      Y:    -0.0000      Z:     1.6932     Total:     1.6932

*** Psi4 exiting successfully. Buy a developer a beer!
