                               Psi4 1.3.2 release

  ==> Input File <==

--------------------------------------------------------------------------
#psi4
#
memory 32 gb

molecule  {
0 1
  F        0.6167210     1.0982160    -0.1288360
  F        0.6428170    -1.0831530    -0.1288340
  F       -1.2595220    -0.0150660    -0.1288310
  C        0.0458351     0.0816882     0.3064159
  H        0.0001000     0.0000020     1.4301680
units angstrom
no_reorient  #important for SAPT in psi4, default
symmetry c1  #important for SAPT in psi4, default
}

set PROPERTIES_ORIGIN ["COM"]
properties('MP2/aug-cc-pvtz', properties = ['dipole'])
--------------------------------------------------------------------------

    Molecular point group: c1
  Charge       = 0
  Multiplicity = 1
  Basis Set: AUG-CC-PVTZ
    Blend: AUG-CC-PVTZ
  Basis Set: (AUG-CC-PVTZ AUX)
    Blend: AUG-CC-PVTZ-JKFIT

    Orbital Energies [Eh]
    ---------------------

    Doubly Occupied:

       1A    -26.385525     2A    -26.331138     3A    -26.331113
       4A    -11.514368     5A     -1.767248     6A     -1.654344
       7A     -1.614968     8A     -0.994767     9A     -0.858621
      10A     -0.840750    11A     -0.834145    12A     -0.721551
      13A     -0.704600    14A     -0.681643    15A     -0.665610
      16A     -0.644450    17A     -0.581730

  @DF-RHF Final Energy:  -336.89906432808488

   => Energetics <=

    Nuclear Repulsion Energy =            133.2811467696940042
    One-Electron Energy =                -734.1072812789011550
    Two-Electron Energy =                 263.9270701811222466
    Total Energy =                       -336.8990643280848758
  Basis Set: (AUG-CC-PVTZ AUX)
    Blend: AUG-CC-PVTZ-RI
    Molecular point group: c1

    Geometry (in Angstrom), charge = 0, multiplicity = 1:

       Center              X                  Y                   Z               Mass
    ------------   -----------------  -----------------  -----------------  -----------------
         F            0.608858112902     1.084213700997    -0.097058064581    18.998403162730
         F            0.634954112902    -1.097155299003    -0.097056064581    18.998403162730
         F           -1.267384887098    -0.029068299003    -0.097053064581    18.998403162730
         C            0.037972212902     0.067685900997     0.338193835419    12.000000000000
         H           -0.007762887098    -0.014000299003     1.461945935419     1.007825032230

  Basis Set: AUG-CC-PVTZ
    Blend: AUG-CC-PVTZ
  Basis Set: (AUG-CC-PVTZ AUX)
    Blend: AUG-CC-PVTZ-JKFIT
	 Reference Energy          =    -336.8990643280848758 [Eh]
	 Singles Energy            =      -0.0000000000000000 [Eh]
	 Same-Spin Energy          =      -0.2568593302868902 [Eh]
	 Opposite-Spin Energy      =      -0.7403056545152609 [Eh]
	 Correlation Energy        =      -0.9971649848021511 [Eh]
	 Total Energy              =    -337.8962293128870442 [Eh]

	 ================> DF-SCS-MP2 Energies <==================
	-----------------------------------------------------------
	 SCS Same-Spin Scale       =       0.3333333333333333 [-]
	 SCS Opposite-Spin Scale   =       1.2000000000000000 [-]
	 SCS Same-Spin Energy      =      -0.0856197767622967 [Eh]
	 SCS Opposite-Spin Energy  =      -0.8883667854183130 [Eh]
	 SCS Correlation Energy    =      -0.9739865621806097 [Eh]
	 SCS Total Energy          =    -337.8730508902654606 [Eh]
	-----------------------------------------------------------

  Dipole Moment: [D]
     X:     0.4076      Y:     0.7260      Z:     1.4860     Total:     1.7033

*** Psi4 exiting successfully. Buy a developer a beer!
