                               Psi4 1.3.2 release

  ==> Input File <==

--------------------------------------------------------------------------
#psi4
#
memory 32 gb

molecule  {
0 1
  F        0.6312902     1.1241351    -0.0398289
  F        0.6428170    -1.0831530    -0.1288340
  F       -1.2595220    -0.0150660    -0.1288310
  C       -0.0000390     0.0000040     0.3413910
  H        0.0001000     0.0000020     1.4301680
units angstrom
no_reorient  #important for SAPT in psi4, default
symmetry c1  #important for SAPT in psi4, default
}

set PROPERTIES_ORIGIN ["COM"]
properties('MP2/aug-cc-pvtz', properties = ['dipole'])
--------------------------------------------------------------------------

    Molecular point group: c1
  Charge       = 0
  Multiplicity = 1
  Basis Set: AUG-CC-PVTZ
    Blend: AUG-CC-PVTZ
  Basis Set: (AUG-CC-PVTZ AUX)
    Blend: AUG-CC-PVTZ-JKFIT

    Orbital Energies [Eh]
    ---------------------

    Doubly Occupied:

       1A    -26.349505     2A    -26.349477     3A    -26.348933
       4A    -11.513328     5A     -1.730447     6A     -1.643727
       7A     -1.641340     8A     -0.992652     9A     -0.844913
      10A     -0.826731    11A     -0.824586    12A     -0.715696
      13A     -0.712641    14A     -0.675350    15A     -0.673598
      16A     -0.658824    17A     -0.594944

  @DF-RHF Final Energy:  -336.90809697831810

   => Energetics <=

    Nuclear Repulsion Energy =            132.3183881707357159
    One-Electron Energy =                -732.2595866320082223
    Two-Electron Energy =                 263.0331014829544074
    Total Energy =                       -336.9080969783180990
  Basis Set: (AUG-CC-PVTZ AUX)
    Blend: AUG-CC-PVTZ-RI
    Molecular point group: c1

    Geometry (in Angstrom), charge = 0, multiplicity = 1:

       Center              X                  Y                   Z               Mass
    ------------   -----------------  -----------------  -----------------  -----------------
         F            0.627337110049     1.117100911622    -0.038202428509    18.998403162730
         F            0.638863910049    -1.090187188378    -0.127207528509    18.998403162730
         F           -1.263475089951    -0.022100188378    -0.127204528509    18.998403162730
         C           -0.003992089951    -0.007030188378     0.343017471491    12.000000000000
         H           -0.003853089951    -0.007032188378     1.431794471491     1.007825032230

  Basis Set: AUG-CC-PVTZ
    Blend: AUG-CC-PVTZ
  Basis Set: (AUG-CC-PVTZ AUX)
    Blend: AUG-CC-PVTZ-JKFIT
	 Reference Energy          =    -336.9080969783180990 [Eh]
	 Singles Energy            =      -0.0000000000000000 [Eh]
	 Same-Spin Energy          =      -0.2567612317792083 [Eh]
	 Opposite-Spin Energy      =      -0.7408184686312304 [Eh]
	 Correlation Energy        =      -0.9975797004104386 [Eh]
	 Total Energy              =    -337.9056766787285255 [Eh]

	 ================> DF-SCS-MP2 Energies <==================
	-----------------------------------------------------------
	 SCS Same-Spin Scale       =       0.3333333333333333 [-]
	 SCS Opposite-Spin Scale   =       1.2000000000000000 [-]
	 SCS Same-Spin Energy      =      -0.0855870772597361 [Eh]
	 SCS Opposite-Spin Energy  =      -0.8889821623574764 [Eh]
	 SCS Correlation Energy    =      -0.9745692396172125 [Eh]
	 SCS Total Energy          =    -337.8826662179353093 [Eh]
	-----------------------------------------------------------

  Dipole Moment: [D]
     X:    -0.0117      Y:    -0.0206      Z:     1.5512     Total:     1.5514

*** Psi4 exiting successfully. Buy a developer a beer!
