                               Psi4 1.3.2 release

  ==> Input File <==

--------------------------------------------------------------------------
#psi4
#
memory 32 gb

molecule  {
0 1
  F        0.6167210     1.0982160    -0.1288360
  F        0.6428170    -1.0831530    -0.1288340
  F       -1.2595220    -0.0150660    -0.1288310
  C       -0.0000390     0.0000040     0.3413910
  H        0.0001000     0.0000020     1.4301680
units angstrom
no_reorient  #important for SAPT in psi4, default
symmetry c1  #important for SAPT in psi4, default
}

set PROPERTIES_ORIGIN ["COM"]
properties('MP2/aug-cc-pvtz', properties = ['dipole'])
--------------------------------------------------------------------------

    Molecular point group: c1
  Charge       = 0
  Multiplicity = 1
  Basis Set: AUG-CC-PVTZ
    Blend: AUG-CC-PVTZ
  Basis Set: (AUG-CC-PVTZ AUX)
    Blend: AUG-CC-PVTZ-JKFIT

    Orbital Energies [Eh]
    ---------------------

    Doubly Occupied:

       1A    -26.347174     2A    -26.347161     3A    -26.347133
       4A    -11.513491     5A     -1.731135     6A     -1.639965
       7A     -1.639948     8A     -0.992317     9A     -0.845965
      10A     -0.824083    11A     -0.824070    12A     -0.712962
      13A     -0.712951    14A     -0.670889    15A     -0.670877
      16A     -0.655788    17A     -0.601461

  @DF-RHF Final Energy:  -336.90956483803802

   => Energetics <=

    Nuclear Repulsion Energy =            132.7496979499670147
    One-Electron Energy =                -733.1637883467772099
    Two-Electron Energy =                 263.5045255587722295
    Total Energy =                       -336.9095648380380226
  Basis Set: (AUG-CC-PVTZ AUX)
    Blend: AUG-CC-PVTZ-RI
    Molecular point group: c1

    Geometry (in Angstrom), charge = 0, multiplicity = 1:

       Center              X                  Y                   Z               Mass
    ------------   -----------------  -----------------  -----------------  -----------------
         F            0.616721903433     1.098216099704    -0.103053536104    18.998403162730
         F            0.642817903433    -1.083152900296    -0.103051536104    18.998403162730
         F           -1.259521096567    -0.015065900296    -0.103048536104    18.998403162730
         C           -0.000038096567     0.000004099704     0.367173463896    12.000000000000
         H            0.000100903433     0.000002099704     1.455950463896     1.007825032230

  Basis Set: AUG-CC-PVTZ
    Blend: AUG-CC-PVTZ
  Basis Set: (AUG-CC-PVTZ AUX)
    Blend: AUG-CC-PVTZ-JKFIT
	 Reference Energy          =    -336.9095648380380226 [Eh]
	 Singles Energy            =      -0.0000000000000000 [Eh]
	 Same-Spin Energy          =      -0.2566857246910204 [Eh]
	 Opposite-Spin Energy      =      -0.7405790453621508 [Eh]
	 Correlation Energy        =      -0.9972647700531712 [Eh]
	 Total Energy              =    -337.9068296080911864 [Eh]

	 ================> DF-SCS-MP2 Energies <==================
	-----------------------------------------------------------
	 SCS Same-Spin Scale       =       0.3333333333333333 [-]
	 SCS Opposite-Spin Scale   =       1.2000000000000000 [-]
	 SCS Same-Spin Energy      =      -0.0855619082303401 [Eh]
	 SCS Opposite-Spin Energy  =      -0.8886948544345810 [Eh]
	 SCS Correlation Energy    =      -0.9742567626649211 [Eh]
	 SCS Total Energy          =    -337.8838216007029587 [Eh]
	-----------------------------------------------------------

  Dipole Moment: [D]
     X:    -0.0001      Y:     0.0001      Z:     1.6835     Total:     1.6835

*** Psi4 exiting successfully. Buy a developer a beer!
