                               Psi4 1.3.2 release

  ==> Input File <==

--------------------------------------------------------------------------
#psi4
#
memory 32 gb

molecule  {
0 1
  O        0.3919700     1.5293850    -0.0006790
  O       -2.0863750     0.8019610     0.0007680
  O       -1.4819380    -1.4327800    -0.0008360
  C        1.2904720    -0.7184350     0.0008240
  C        2.6798860    -0.0990590    -0.0001190
  C        0.1998040     0.3200060    -0.0000370
  C       -1.2307060    -0.2376900    -0.0001000
  H        1.1330450    -1.3706030    -0.8672720
  H        1.1334350    -1.3685260     0.8705840
  H        2.8258740     0.5280000    -0.8820420
  H        2.8261650     0.5300460     0.8802900
  H        3.4430440    -0.8810290     0.0006450
  H       -3.0240490     0.2824300     0.0005820
units angstrom
no_reorient  #important for SAPT in psi4, default
symmetry c1  #important for SAPT in psi4, default
}

set PROPERTIES_ORIGIN ["COM"]
properties('MP2/aug-cc-pvtz', properties = ['dipole'])
--------------------------------------------------------------------------

    Molecular point group: c1
  Charge       = 0
  Multiplicity = 1
  Basis Set: AUG-CC-PVTZ
    Blend: AUG-CC-PVTZ
  Basis Set: (AUG-CC-PVTZ AUX)
    Blend: AUG-CC-PVTZ-JKFIT

    Orbital Energies [Eh]
    ---------------------

    Doubly Occupied:

       1A    -20.647460     2A    -20.587353     3A    -20.584175
       4A    -11.416473     5A    -11.360688     6A    -11.251833
       7A    -11.226624     8A     -1.479404     9A     -1.406795
      10A     -1.382583    11A     -1.073064    12A     -0.959856
      13A     -0.871067    14A     -0.756295    15A     -0.729838
      16A     -0.707792    17A     -0.664328    18A     -0.648540
      19A     -0.628923    20A     -0.617729    21A     -0.544163
      22A     -0.535880    23A     -0.526992    24A     -0.523458
      25A     -0.506588    26A     -0.497220    27A     -0.433189

  @DF-RHF Final Energy:  -379.69068246887173

   => Energetics <=

    Nuclear Repulsion Energy =            296.8656123653454415
    One-Electron Energy =               -1107.9759694365206997
    Two-Electron Energy =                 431.4196746023035303
    Total Energy =                       -379.6906824688717279
  Basis Set: (AUG-CC-PVTZ AUX)
    Blend: AUG-CC-PVTZ-RI
    Molecular point group: c1

    Geometry (in Angstrom), charge = 0, multiplicity = 1:

       Center              X                  Y                   Z               Mass
    ------------   -----------------  -----------------  -----------------  -----------------
         O            0.461841502555     1.497504417254    -0.000656228714    15.994914619570
         O           -2.016503497445     0.770080417254     0.000790771286    15.994914619570
         O           -1.412066497445    -1.464660582746    -0.000813228714    15.994914619570
         C            1.360343502555    -0.750315582746     0.000846771286    12.000000000000
         C            2.749757502555    -0.130939582746    -0.000096228714    12.000000000000
         C            0.269675502555     0.288125417254    -0.000014228714    12.000000000000
         C           -1.160834497445    -0.269570582746    -0.000077228714    12.000000000000
         H            1.202916502555    -1.402483582746    -0.867249228714     1.007825032230
         H            1.203306502555    -1.400406582746     0.870606771286     1.007825032230
         H            2.895745502555     0.496119417254    -0.882019228714     1.007825032230
         H            2.896036502555     0.498165417254     0.880312771286     1.007825032230
         H            3.512915502555    -0.912909582746     0.000667771286     1.007825032230
         H           -2.954177497445     0.250549417254     0.000604771286     1.007825032230

  Basis Set: AUG-CC-PVTZ
    Blend: AUG-CC-PVTZ
  Basis Set: (AUG-CC-PVTZ AUX)
    Blend: AUG-CC-PVTZ-JKFIT
	 Reference Energy          =    -379.6906824688717279 [Eh]
	 Singles Energy            =      -0.0000000000000000 [Eh]
	 Same-Spin Energy          =      -0.3677277221970990 [Eh]
	 Opposite-Spin Energy      =      -1.1393809570255791 [Eh]
	 Correlation Energy        =      -1.5071086792226780 [Eh]
	 Total Energy              =    -381.1977911480943817 [Eh]

	 ================> DF-SCS-MP2 Energies <==================
	-----------------------------------------------------------
	 SCS Same-Spin Scale       =       0.3333333333333333 [-]
	 SCS Opposite-Spin Scale   =       1.2000000000000000 [-]
	 SCS Same-Spin Energy      =      -0.1225759073990330 [Eh]
	 SCS Opposite-Spin Energy  =      -1.3672571484306948 [Eh]
	 SCS Correlation Energy    =      -1.4898330558297277 [Eh]
	 SCS Total Energy          =    -381.1805155247014341 [Eh]
	-----------------------------------------------------------

  Dipole Moment: [D]
     X:    -0.2584      Y:    -1.2068      Z:     0.0025     Total:     1.2341

*** Psi4 exiting successfully. Buy a developer a beer!
