                               Psi4 1.3.2 release

  ==> Input File <==

--------------------------------------------------------------------------
#psi4
#
memory 32 gb

molecule  {
0 1
  O        0.3919700     1.5293850    -0.0006790
  O       -2.1568130     0.7397400     0.0007420
  O       -1.4819380    -1.4327800    -0.0008360
  C        1.3084292    -0.6992421     0.0008180
  C        2.6798860    -0.0990590    -0.0001190
  C        0.1998040     0.3200060    -0.0000370
  C       -1.2307060    -0.2376900    -0.0001000
  H        1.1330450    -1.3706030    -0.8672720
  H        1.1334350    -1.3685260     0.8705840
  H        2.8258740     0.5280000    -0.8820420
  H        2.8261650     0.5300460     0.8802900
  H        3.4430440    -0.8810290     0.0006450
  H       -3.0240490     0.2824300     0.0005820
units angstrom
no_reorient  #important for SAPT in psi4, default
symmetry c1  #important for SAPT in psi4, default
}

set PROPERTIES_ORIGIN ["COM"]
properties('MP2/aug-cc-pvtz', properties = ['dipole'])
--------------------------------------------------------------------------

    Molecular point group: c1
  Charge       = 0
  Multiplicity = 1
  Basis Set: AUG-CC-PVTZ
    Blend: AUG-CC-PVTZ
  Basis Set: (AUG-CC-PVTZ AUX)
    Blend: AUG-CC-PVTZ-JKFIT

    Orbital Energies [Eh]
    ---------------------

    Doubly Occupied:

       1A    -20.636932     2A    -20.586382     3A    -20.584100
       4A    -11.416957     5A    -11.365100     6A    -11.255626
       7A    -11.227348     8A     -1.486213     9A     -1.409606
      10A     -1.383951    11A     -1.077598    12A     -0.966727
      13A     -0.879931    14A     -0.768502    15A     -0.729628
      16A     -0.712757    17A     -0.663804    18A     -0.654063
      19A     -0.629439    20A     -0.619605    21A     -0.552508
      22A     -0.538698    23A     -0.530792    24A     -0.520098
      25A     -0.503610    26A     -0.493831    27A     -0.436930

  @DF-RHF Final Energy:  -379.70510017179527

   => Energetics <=

    Nuclear Repulsion Energy =            296.7290979147783787
    One-Electron Energy =               -1107.6069265613336938
    Two-Electron Energy =                 431.1727284747601061
    Total Energy =                       -379.7051001717952659
  Basis Set: (AUG-CC-PVTZ AUX)
    Blend: AUG-CC-PVTZ-RI
    Molecular point group: c1

    Geometry (in Angstrom), charge = 0, multiplicity = 1:

       Center              X                  Y                   Z               Mass
    ------------   -----------------  -----------------  -----------------  -----------------
         O            0.470771702181     1.505001154319    -0.000651447183    15.994914619570
         O           -2.078011297819     0.715356154319     0.000769552817    15.994914619570
         O           -1.403136297819    -1.457163845681    -0.000808447183    15.994914619570
         C            1.387230902181    -0.723625945681     0.000845552817    12.000000000000
         C            2.758687702181    -0.123442845681    -0.000091447183    12.000000000000
         C            0.278605702181     0.295622154319    -0.000009447183    12.000000000000
         C           -1.151904297819    -0.262073845681    -0.000072447183    12.000000000000
         H            1.211846702181    -1.394986845681    -0.867244447183     1.007825032230
         H            1.212236702181    -1.392909845681     0.870611552817     1.007825032230
         H            2.904675702181     0.503616154319    -0.882014447183     1.007825032230
         H            2.904966702181     0.505662154319     0.880317552817     1.007825032230
         H            3.521845702181    -0.905412845681     0.000672552817     1.007825032230
         H           -2.945247297819     0.258046154319     0.000609552817     1.007825032230

  Basis Set: AUG-CC-PVTZ
    Blend: AUG-CC-PVTZ
  Basis Set: (AUG-CC-PVTZ AUX)
    Blend: AUG-CC-PVTZ-JKFIT
	 Reference Energy          =    -379.7051001717952659 [Eh]
	 Singles Energy            =      -0.0000000000000000 [Eh]
	 Same-Spin Energy          =      -0.3659639875342454 [Eh]
	 Opposite-Spin Energy      =      -1.1353665039420695 [Eh]
	 Correlation Energy        =      -1.5013304914763150 [Eh]
	 Total Energy              =    -381.2064306632715898 [Eh]

	 ================> DF-SCS-MP2 Energies <==================
	-----------------------------------------------------------
	 SCS Same-Spin Scale       =       0.3333333333333333 [-]
	 SCS Opposite-Spin Scale   =       1.2000000000000000 [-]
	 SCS Same-Spin Energy      =      -0.1219879958447485 [Eh]
	 SCS Opposite-Spin Energy  =      -1.3624398047304833 [Eh]
	 SCS Correlation Energy    =      -1.4844278005752318 [Eh]
	 SCS Total Energy          =    -381.1895279723705130 [Eh]
	-----------------------------------------------------------

  Dipole Moment: [D]
     X:    -0.0519      Y:    -1.1903      Z:     0.0025     Total:     1.1914

*** Psi4 exiting successfully. Buy a developer a beer!
