                               Psi4 1.3.2 release

  ==> Input File <==

--------------------------------------------------------------------------
#psi4
#
memory 32 gb

molecule  {
0 1
  O        0.3919700     1.5293850    -0.0006790
  O       -2.1568130     0.7397400     0.0007420
  O       -1.4819380    -1.4327800    -0.0008360
  C        1.2904720    -0.7184350     0.0008240
  C        2.6798860    -0.0990590    -0.0001190
  C        0.1803351     0.2981913    -0.0437198
  C       -1.2307060    -0.2376900    -0.0001000
  H        1.1330450    -1.3706030    -0.8672720
  H        1.1334350    -1.3685260     0.8705840
  H        2.8258740     0.5280000    -0.8820420
  H        2.8261650     0.5300460     0.8802900
  H        3.4430440    -0.8810290     0.0006450
  H       -3.0240490     0.2824300     0.0005820
units angstrom
no_reorient  #important for SAPT in psi4, default
symmetry c1  #important for SAPT in psi4, default
}

set PROPERTIES_ORIGIN ["COM"]
properties('MP2/aug-cc-pvtz', properties = ['dipole'])
--------------------------------------------------------------------------

    Molecular point group: c1
  Charge       = 0
  Multiplicity = 1
  Basis Set: AUG-CC-PVTZ
    Blend: AUG-CC-PVTZ
  Basis Set: (AUG-CC-PVTZ AUX)
    Blend: AUG-CC-PVTZ-JKFIT

    Orbital Energies [Eh]
    ---------------------

    Doubly Occupied:

       1A    -20.637860     2A    -20.587514     3A    -20.586069
       4A    -11.418180     5A    -11.366993     6A    -11.255202
       7A    -11.228493     8A     -1.487733     9A     -1.394596
      10A     -1.385646    11A     -1.075526    12A     -0.972518
      13A     -0.882329    14A     -0.772166    15A     -0.730625
      16A     -0.711266    17A     -0.665564    18A     -0.648958
      19A     -0.630353    20A     -0.618827    21A     -0.546624
      22A     -0.534182    23A     -0.528332    24A     -0.519910
      25A     -0.502670    26A     -0.496002    27A     -0.442317

  @DF-RHF Final Energy:  -379.70062522086937

   => Energetics <=

    Nuclear Repulsion Energy =            296.5647482637673420
    One-Electron Energy =               -1107.2778355083071347
    Two-Electron Energy =                 431.0124620236704232
    Total Energy =                       -379.7006252208693695
  Basis Set: (AUG-CC-PVTZ AUX)
    Blend: AUG-CC-PVTZ-RI
    Molecular point group: c1

    Geometry (in Angstrom), charge = 0, multiplicity = 1:

       Center              X                  Y                   Z               Mass
    ------------   -----------------  -----------------  -----------------  -----------------
         O            0.475173405045     1.509824079240     0.004485403723    15.994914619570
         O           -2.073609594955     0.720179079240     0.005906403723    15.994914619570
         O           -1.398734594955    -1.452340920760     0.004328403723    15.994914619570
         C            1.373675405045    -0.737995920760     0.005988403723    12.000000000000
         C            2.763089405045    -0.118619920760     0.005045403723    12.000000000000
         C            0.263538505045     0.278630379240    -0.038555396277    12.000000000000
         C           -1.147502594955    -0.257250920760     0.005064403723    12.000000000000
         H            1.216248405045    -1.390163920760    -0.862107596277     1.007825032230
         H            1.216638405045    -1.388086920760     0.875748403723     1.007825032230
         H            2.909077405045     0.508439079240    -0.876877596277     1.007825032230
         H            2.909368405045     0.510485079240     0.885454403723     1.007825032230
         H            3.526247405045    -0.900589920760     0.005809403723     1.007825032230
         H           -2.940845594955     0.262869079240     0.005746403723     1.007825032230

  Basis Set: AUG-CC-PVTZ
    Blend: AUG-CC-PVTZ
  Basis Set: (AUG-CC-PVTZ AUX)
    Blend: AUG-CC-PVTZ-JKFIT
	 Reference Energy          =    -379.7006252208693695 [Eh]
	 Singles Energy            =      -0.0000000000000000 [Eh]
	 Same-Spin Energy          =      -0.3666207027742568 [Eh]
	 Opposite-Spin Energy      =      -1.1373009859314391 [Eh]
	 Correlation Energy        =      -1.5039216887056961 [Eh]
	 Total Energy              =    -381.2045469095750718 [Eh]

	 ================> DF-SCS-MP2 Energies <==================
	-----------------------------------------------------------
	 SCS Same-Spin Scale       =       0.3333333333333333 [-]
	 SCS Opposite-Spin Scale   =       1.2000000000000000 [-]
	 SCS Same-Spin Energy      =      -0.1222069009247523 [Eh]
	 SCS Opposite-Spin Energy  =      -1.3647611831177269 [Eh]
	 SCS Correlation Energy    =      -1.4869680840424793 [Eh]
	 SCS Total Energy          =    -381.1875933049118430 [Eh]
	-----------------------------------------------------------

  Dipole Moment: [D]
     X:    -0.1214      Y:    -1.2449      Z:    -0.0342     Total:     1.2513

*** Psi4 exiting successfully. Buy a developer a beer!
