                               Psi4 1.3.2 release

  ==> Input File <==

--------------------------------------------------------------------------
#psi4
#
memory 32 gb

molecule  {
0 1
  O        0.3919700     1.5293850    -0.0006790
  O       -2.1568130     0.7397400     0.0007420
  O       -1.4819380    -1.4327800    -0.0008360
  C        1.2904720    -0.7184350     0.0008240
  C        2.6798860    -0.0990590    -0.0001190
  C        0.1684185     0.1224840     0.0000679
  C       -1.2307060    -0.2376900    -0.0001000
  H        1.1330450    -1.3706030    -0.8672720
  H        1.1334350    -1.3685260     0.8705840
  H        2.8258740     0.5280000    -0.8820420
  H        2.8261650     0.5300460     0.8802900
  H        3.4430440    -0.8810290     0.0006450
  H       -3.0240490     0.2824300     0.0005820
units angstrom
no_reorient  #important for SAPT in psi4, default
symmetry c1  #important for SAPT in psi4, default
}

set PROPERTIES_ORIGIN ["COM"]
properties('MP2/aug-cc-pvtz', properties = ['dipole'])
--------------------------------------------------------------------------

    Molecular point group: c1
  Charge       = 0
  Multiplicity = 1
  Basis Set: AUG-CC-PVTZ
    Blend: AUG-CC-PVTZ
  Basis Set: (AUG-CC-PVTZ AUX)
    Blend: AUG-CC-PVTZ-JKFIT

    Orbital Energies [Eh]
    ---------------------

    Doubly Occupied:

       1A    -20.642210     2A    -20.589910     3A    -20.578904
       4A    -11.424325     5A    -11.378209     6A    -11.261827
       7A    -11.235117     8A     -1.492350     9A     -1.392839
      10A     -1.304929    11A     -1.102424    12A     -0.992056
      13A     -0.903222    14A     -0.784714    15A     -0.732802
      16A     -0.709532    17A     -0.674121    18A     -0.638909
      19A     -0.636476    20A     -0.598130    21A     -0.558085
      22A     -0.533061    23A     -0.523575    24A     -0.505893
      25A     -0.503461    26A     -0.455944    27A     -0.444653

  @DF-RHF Final Energy:  -379.62999988730326

   => Energetics <=

    Nuclear Repulsion Energy =            296.2986617529504656
    One-Electron Energy =               -1106.6619658967647410
    Two-Electron Energy =                 430.7333042565110190
    Total Energy =                       -379.6299998873032564
  Basis Set: (AUG-CC-PVTZ AUX)
    Blend: AUG-CC-PVTZ-RI
    Molecular point group: c1

    Geometry (in Angstrom), charge = 0, multiplicity = 1:

       Center              X                  Y                   Z               Mass
    ------------   -----------------  -----------------  -----------------  -----------------
         O            0.476574922499     1.530489105138    -0.000664490189    15.994914619570
         O           -2.072208077501     0.740844105138     0.000756509811    15.994914619570
         O           -1.397333077501    -1.431675894862    -0.000821490189    15.994914619570
         C            1.375076922499    -0.717330894862     0.000838509811    12.000000000000
         C            2.764490922499    -0.097954894862    -0.000104490189    12.000000000000
         C            0.253023422499     0.123588105138     0.000082409811    12.000000000000
         C           -1.146101077501    -0.236585894862    -0.000085490189    12.000000000000
         H            1.217649922499    -1.369498894862    -0.867257490189     1.007825032230
         H            1.218039922499    -1.367421894862     0.870598509811     1.007825032230
         H            2.910478922499     0.529104105138    -0.882027490189     1.007825032230
         H            2.910769922499     0.531150105138     0.880304509811     1.007825032230
         H            3.527648922499    -0.879924894862     0.000659509811     1.007825032230
         H           -2.939444077501     0.283534105138     0.000596509811     1.007825032230

  Basis Set: AUG-CC-PVTZ
    Blend: AUG-CC-PVTZ
  Basis Set: (AUG-CC-PVTZ AUX)
    Blend: AUG-CC-PVTZ-JKFIT
	 Reference Energy          =    -379.6299998873032564 [Eh]
	 Singles Energy            =      -0.0000000000000000 [Eh]
	 Same-Spin Energy          =      -0.3742824251609199 [Eh]
	 Opposite-Spin Energy      =      -1.1534563073131601 [Eh]
	 Correlation Energy        =      -1.5277387324740799 [Eh]
	 Total Energy              =    -381.1577386197773194 [Eh]

	 ================> DF-SCS-MP2 Energies <==================
	-----------------------------------------------------------
	 SCS Same-Spin Scale       =       0.3333333333333333 [-]
	 SCS Opposite-Spin Scale   =       1.2000000000000000 [-]
	 SCS Same-Spin Energy      =      -0.1247608083869733 [Eh]
	 SCS Opposite-Spin Energy  =      -1.3841475687757920 [Eh]
	 SCS Correlation Energy    =      -1.5089083771627654 [Eh]
	 SCS Total Energy          =    -381.1389082644660107 [Eh]
	-----------------------------------------------------------

  Dipole Moment: [D]
     X:     0.1113      Y:    -1.5828      Z:     0.0029     Total:     1.5867

*** Psi4 exiting successfully. Buy a developer a beer!
