                               Psi4 1.4a3.dev225

  ==> Input File <==

--------------------------------------------------------------------------
#psi4
#
memory 32 gb

molecule  {
0 1
  O       -0.3919860     1.5294040    -0.0000050
  O        2.1568610     0.7396830     0.0000040
  O        1.4818540    -1.4327810     0.0000010
  C       -1.2904460    -0.7184520    -0.0000070
  C       -2.6798770    -0.0990580     0.0000080
  C       -0.1966723     0.3002908    -0.0000030
  C        1.2307160    -0.2376360     0.0000010
  H       -1.1331960    -1.3695760     0.8689140
  H       -1.1332070    -1.3695530    -0.8689480
  H       -2.8259870     0.5289990     0.8811930
  H       -2.8259930     0.5290290    -0.8811540
  H       -3.4430160    -0.8810440    -0.0000020
  H        3.0240790     0.2823190     0.0000050
units angstrom
no_reorient  #important for SAPT in psi4, default
symmetry c1  #important for SAPT in psi4, default
}

set PROPERTIES_ORIGIN ["COM"]
properties('MP2/aug-cc-pvtz', properties = ['dipole'])
--------------------------------------------------------------------------

    Molecular point group: c1
  Charge       = 0
  Multiplicity = 1
  Basis Set: AUG-CC-PVTZ
    Blend: AUG-CC-PVTZ
  Basis Set: (AUG-CC-PVTZ AUX)
    Blend: AUG-CC-PVTZ-JKFIT

    Orbital Energies [Eh]
    ---------------------

    Doubly Occupied:

       1A    -20.637239     2A    -20.586758     3A    -20.584590
       4A    -11.417283     5A    -11.366860     6A    -11.255067
       7A    -11.228926     8A     -1.486479     9A     -1.397426
      10A     -1.384563    11A     -1.077919    12A     -0.968472
      13A     -0.882294    14A     -0.770912    15A     -0.729745
      16A     -0.711731    17A     -0.665045    18A     -0.650825
      19A     -0.631140    20A     -0.618270    21A     -0.546710
      22A     -0.535245    23A     -0.528770    24A     -0.520568
      25A     -0.502364    26A     -0.497101    27A     -0.440853

  @DF-RHF Final Energy:  -379.70289034110647

   => Energetics <=

    Nuclear Repulsion Energy =            296.5684450502412233
    One-Electron Energy =               -1107.2963572706075865
    Two-Electron Energy =                 431.0250218792598389
    Total Energy =                       -379.7028903411064675
  Basis Set: (AUG-CC-PVTZ AUX)
    Blend: AUG-CC-PVTZ-RI
    Molecular point group: c1

    Geometry (in Angstrom), charge = 0, multiplicity = 1:

       Center              X                  Y                   Z               Mass
    ------------   -----------------  -----------------  -----------------  -----------------
         O           -0.473267035537     1.509599222939    -0.000004961410    15.994914619570
         O            2.075579964463     0.719878222939     0.000004038590    15.994914619570
         O            1.400572964463    -1.452585777061     0.000001038590    15.994914619570
         C           -1.371727035537    -0.738256777061    -0.000006961410    12.000000000000
         C           -2.761158035537    -0.118862777061     0.000008038590    12.000000000000
         C           -0.277953335537     0.280486022939    -0.000002961410    12.000000000000
         C            1.149434964463    -0.257440777061     0.000001038590    12.000000000000
         H           -1.214477035537    -1.389380777061     0.868914038590     1.007825032230
         H           -1.214488035537    -1.389357777061    -0.868947961410     1.007825032230
         H           -2.907268035537     0.509194222939     0.881193038590     1.007825032230
         H           -2.907274035537     0.509224222939    -0.881153961410     1.007825032230
         H           -3.524297035537    -0.900848777061    -0.000001961410     1.007825032230
         H            2.942797964463     0.262514222939     0.000005038590     1.007825032230

  Basis Set: AUG-CC-PVTZ
    Blend: AUG-CC-PVTZ
  Basis Set: (AUG-CC-PVTZ AUX)
    Blend: AUG-CC-PVTZ-JKFIT
	 Reference Energy          =    -379.7028903411064675 [Eh]
	 Singles Energy            =      -0.0000000000000000 [Eh]
	 Same-Spin Energy          =      -0.3664155876386364 [Eh]
	 Opposite-Spin Energy      =      -1.1366459641726434 [Eh]
	 Correlation Energy        =      -1.5030615518112798 [Eh]
	 Total Energy              =    -381.2059518929177671 [Eh]

	 ================> DF-SCS-MP2 Energies <==================
	-----------------------------------------------------------
	 SCS Same-Spin Scale       =       0.3333333333333333 [-]
	 SCS Opposite-Spin Scale   =       1.2000000000000000 [-]
	 SCS Same-Spin Energy      =      -0.1221385292128788 [Eh]
	 SCS Opposite-Spin Energy  =      -1.3639751570071721 [Eh]
	 SCS Correlation Energy    =      -1.4861136862200508 [Eh]
	 SCS Total Energy          =    -381.1890040273265186 [Eh]
	-----------------------------------------------------------

  Dipole Moment: [D]
     X:     0.0579      Y:    -1.2508      Z:    -0.0000     Total:     1.2521

*** Psi4 exiting successfully. Buy a developer a beer!
