                               Psi4 1.3.2 release

  ==> Input File <==

--------------------------------------------------------------------------
#psi4
#
memory 32 gb

molecule  {
0 1
  O        0.3919700     1.5293850    -0.0006790
  O       -2.1568130     0.7397400     0.0007420
  O       -1.6054827    -1.3999723    -0.0007879
  C        1.2904720    -0.7184350     0.0008240
  C        2.6798860    -0.0990590    -0.0001190
  C        0.1998040     0.3200060    -0.0000370
  C       -1.2307060    -0.2376900    -0.0001000
  H        1.1330450    -1.3706030    -0.8672720
  H        1.1334350    -1.3685260     0.8705840
  H        2.8258740     0.5280000    -0.8820420
  H        2.8261650     0.5300460     0.8802900
  H        3.4430440    -0.8810290     0.0006450
  H       -3.0240490     0.2824300     0.0005820
units angstrom
no_reorient  #important for SAPT in psi4, default
symmetry c1  #important for SAPT in psi4, default
}

set PROPERTIES_ORIGIN ["COM"]
properties('MP2/aug-cc-pvtz', properties = ['dipole'])
--------------------------------------------------------------------------

    Molecular point group: c1
  Charge       = 0
  Multiplicity = 1
  Basis Set: AUG-CC-PVTZ
    Blend: AUG-CC-PVTZ
  Basis Set: (AUG-CC-PVTZ AUX)
    Blend: AUG-CC-PVTZ-JKFIT

    Orbital Energies [Eh]
    ---------------------

    Doubly Occupied:

       1A    -20.625918     2A    -20.592880     3A    -20.580904
       4A    -11.414909     5A    -11.372337     6A    -11.258496
       7A    -11.231281     8A     -1.485861     9A     -1.414852
      10A     -1.372563    11A     -1.079813    12A     -0.969296
      13A     -0.880601    14A     -0.769059    15A     -0.726335
      16A     -0.712472    17A     -0.664017    18A     -0.657241
      19A     -0.631189    20A     -0.618992    21A     -0.550186
      22A     -0.541269    23A     -0.532667    24A     -0.517408
      25A     -0.505076    26A     -0.495842    27A     -0.441229

  @DF-RHF Final Energy:  -379.70323341152863

   => Energetics <=

    Nuclear Repulsion Energy =            296.1300429728673294
    One-Electron Energy =               -1106.3811632235158413
    Two-Electron Energy =                 430.5478868391198262
    Total Energy =                       -379.7032334115286289
  Basis Set: (AUG-CC-PVTZ AUX)
    Blend: AUG-CC-PVTZ-RI
    Molecular point group: c1

    Geometry (in Angstrom), charge = 0, multiplicity = 1:

       Center              X                  Y                   Z               Mass
    ------------   -----------------  -----------------  -----------------  -----------------
         O            0.492251041013     1.502115369043    -0.000659693203    15.994914619570
         O           -2.056531958987     0.712470369043     0.000761306797    15.994914619570
         O           -1.505201658987    -1.427241930957    -0.000768593203    15.994914619570
         C            1.390753041013    -0.745704630957     0.000843306797    12.000000000000
         C            2.780167041013    -0.126328630957    -0.000099693203    12.000000000000
         C            0.300085041013     0.292736369043    -0.000017693203    12.000000000000
         C           -1.130424958987    -0.264959630957    -0.000080693203    12.000000000000
         H            1.233326041013    -1.397872630957    -0.867252693203     1.007825032230
         H            1.233716041013    -1.395795630957     0.870603306797     1.007825032230
         H            2.926155041013     0.500730369043    -0.882022693203     1.007825032230
         H            2.926446041013     0.502776369043     0.880309306797     1.007825032230
         H            3.543325041013    -0.908298630957     0.000664306797     1.007825032230
         H           -2.923767958987     0.255160369043     0.000601306797     1.007825032230

  Basis Set: AUG-CC-PVTZ
    Blend: AUG-CC-PVTZ
  Basis Set: (AUG-CC-PVTZ AUX)
    Blend: AUG-CC-PVTZ-JKFIT
	 Reference Energy          =    -379.7032334115286289 [Eh]
	 Singles Energy            =      -0.0000000000000000 [Eh]
	 Same-Spin Energy          =      -0.3657161781938089 [Eh]
	 Opposite-Spin Energy      =      -1.1350862565109341 [Eh]
	 Correlation Energy        =      -1.5008024347047431 [Eh]
	 Total Energy              =    -381.2040358462333529 [Eh]

	 ================> DF-SCS-MP2 Energies <==================
	-----------------------------------------------------------
	 SCS Same-Spin Scale       =       0.3333333333333333 [-]
	 SCS Opposite-Spin Scale   =       1.2000000000000000 [-]
	 SCS Same-Spin Energy      =      -0.1219053927312696 [Eh]
	 SCS Opposite-Spin Energy  =      -1.3621035078131210 [Eh]
	 SCS Correlation Energy    =      -1.4840089005443906 [Eh]
	 SCS Total Energy          =    -381.1872423120730105 [Eh]
	-----------------------------------------------------------

  Dipole Moment: [D]
     X:     0.3576      Y:    -1.2018      Z:     0.0024     Total:     1.2539

*** Psi4 exiting successfully. Buy a developer a beer!
