                               Psi4 1.3.2 release

  ==> Input File <==

--------------------------------------------------------------------------
#psi4
#
memory 32 gb

molecule  {
0 1
  O        0.3919700     1.5293850    -0.0006790
  O       -2.1568130     0.7397400     0.0007420
  O       -1.4819380    -1.4327800    -0.0008360
  C        1.2904720    -0.7184350     0.0008240
  C        2.6075322     0.0427812    -0.0002527
  C        0.1998040     0.3200060    -0.0000370
  C       -1.2307060    -0.2376900    -0.0001000
  H        1.1330450    -1.3706030    -0.8672720
  H        1.1334350    -1.3685260     0.8705840
  H        2.8258740     0.5280000    -0.8820420
  H        2.8261650     0.5300460     0.8802900
  H        3.4430440    -0.8810290     0.0006450
  H       -3.0240490     0.2824300     0.0005820
units angstrom
no_reorient  #important for SAPT in psi4, default
symmetry c1  #important for SAPT in psi4, default
}

set PROPERTIES_ORIGIN ["COM"]
properties('MP2/aug-cc-pvtz', properties = ['dipole'])
--------------------------------------------------------------------------

    Molecular point group: c1
  Charge       = 0
  Multiplicity = 1
  Basis Set: AUG-CC-PVTZ
    Blend: AUG-CC-PVTZ
  Basis Set: (AUG-CC-PVTZ AUX)
    Blend: AUG-CC-PVTZ-JKFIT

    Orbital Energies [Eh]
    ---------------------

    Doubly Occupied:

       1A    -20.636007     2A    -20.587687     3A    -20.583911
       4A    -11.414929     5A    -11.363780     6A    -11.257005
       7A    -11.232557     8A     -1.485596     9A     -1.410895
      10A     -1.383569    11A     -1.078072    12A     -0.965472
      13A     -0.881118    14A     -0.770873    15A     -0.729408
      16A     -0.712553    17A     -0.669381    18A     -0.651652
      19A     -0.641397    20A     -0.619705    21A     -0.558878
      22A     -0.547329    23A     -0.522669    24A     -0.511104
      25A     -0.502578    26A     -0.486405    27A     -0.433351

  @DF-RHF Final Energy:  -379.68227091592962

   => Energetics <=

    Nuclear Repulsion Energy =            297.5642348669060766
    One-Electron Energy =               -1109.2172436193118301
    Two-Electron Energy =                 431.9707378364761325
    Total Energy =                       -379.6822709159296210
  Basis Set: (AUG-CC-PVTZ AUX)
    Blend: AUG-CC-PVTZ-RI
    Molecular point group: c1

    Geometry (in Angstrom), charge = 0, multiplicity = 1:

       Center              X                  Y                   Z               Mass
    ------------   -----------------  -----------------  -----------------  -----------------
         O            0.481393225327     1.490576542303    -0.000636428320    15.994914619570
         O           -2.067389774673     0.700931542303     0.000784571680    15.994914619570
         O           -1.392514774673    -1.471588457697    -0.000793428320    15.994914619570
         C            1.379895225327    -0.757243457697     0.000866571680    12.000000000000
         C            2.696955425327     0.003972742303    -0.000210128320    12.000000000000
         C            0.289227225327     0.281197542303     0.000005571680    12.000000000000
         C           -1.141282774673    -0.276498457697    -0.000057428320    12.000000000000
         H            1.222468225327    -1.409411457697    -0.867229428320     1.007825032230
         H            1.222858225327    -1.407334457697     0.870626571680     1.007825032230
         H            2.915297225327     0.489191542303    -0.881999428320     1.007825032230
         H            2.915588225327     0.491237542303     0.880332571680     1.007825032230
         H            3.532467225327    -0.919837457697     0.000687571680     1.007825032230
         H           -2.934625774673     0.243621542303     0.000624571680     1.007825032230

  Basis Set: AUG-CC-PVTZ
    Blend: AUG-CC-PVTZ
  Basis Set: (AUG-CC-PVTZ AUX)
    Blend: AUG-CC-PVTZ-JKFIT
	 Reference Energy          =    -379.6822709159296210 [Eh]
	 Singles Energy            =      -0.0000000000000000 [Eh]
	 Same-Spin Energy          =      -0.3662685562719504 [Eh]
	 Opposite-Spin Energy      =      -1.1364304356988026 [Eh]
	 Correlation Energy        =      -1.5026989919707532 [Eh]
	 Total Energy              =    -381.1849699079003813 [Eh]

	 ================> DF-SCS-MP2 Energies <==================
	-----------------------------------------------------------
	 SCS Same-Spin Scale       =       0.3333333333333333 [-]
	 SCS Opposite-Spin Scale   =       1.2000000000000000 [-]
	 SCS Same-Spin Energy      =      -0.1220895187573168 [Eh]
	 SCS Opposite-Spin Energy  =      -1.3637165228385630 [Eh]
	 SCS Correlation Energy    =      -1.4858060415958798 [Eh]
	 SCS Total Energy          =    -381.1680769575254999 [Eh]
	-----------------------------------------------------------

  Dipole Moment: [D]
     X:    -0.1304      Y:    -1.1071      Z:     0.0024     Total:     1.1148

*** Psi4 exiting successfully. Buy a developer a beer!
