                               Psi4 1.3.2 release

  ==> Input File <==

--------------------------------------------------------------------------
#psi4
#
memory 32 gb

molecule  {
0 1
  O        0.3919700     1.5293850    -0.0006790
  O       -2.1568130     0.7397400     0.0007420
  O       -1.4819380    -1.4327800    -0.0008360
  C        1.2904720    -0.7184350     0.0008240
  C        2.6798860    -0.0990590    -0.0001190
  C        0.1998040     0.3200060    -0.0000370
  C       -1.0443661    -0.1650439    -0.0000918
  H        1.1330450    -1.3706030    -0.8672720
  H        1.1334350    -1.3685260     0.8705840
  H        2.8258740     0.5280000    -0.8820420
  H        2.8261650     0.5300460     0.8802900
  H        3.4430440    -0.8810290     0.0006450
  H       -3.0240490     0.2824300     0.0005820
units angstrom
no_reorient  #important for SAPT in psi4, default
symmetry c1  #important for SAPT in psi4, default
}

set PROPERTIES_ORIGIN ["COM"]
properties('MP2/aug-cc-pvtz', properties = ['dipole'])
--------------------------------------------------------------------------

    Molecular point group: c1
  Charge       = 0
  Multiplicity = 1
  Basis Set: AUG-CC-PVTZ
    Blend: AUG-CC-PVTZ
  Basis Set: (AUG-CC-PVTZ AUX)
    Blend: AUG-CC-PVTZ-JKFIT

    Orbital Energies [Eh]
    ---------------------

    Doubly Occupied:

       1A    -20.619321     2A    -20.611897     3A    -20.591485
       4A    -11.432543     5A    -11.366859     6A    -11.261604
       7A    -11.234294     8A     -1.454223     9A     -1.413673
      10A     -1.321884    11A     -1.100746    12A     -1.027048
      13A     -0.889116    14A     -0.772327    15A     -0.724048
      16A     -0.707361    17A     -0.667590    18A     -0.660635
      19A     -0.611128    20A     -0.593626    21A     -0.555537
      22A     -0.543526    23A     -0.538153    24A     -0.508613
      25A     -0.502193    26A     -0.468852    27A     -0.464493

  @DF-RHF Final Energy:  -379.62812300500946

   => Energetics <=

    Nuclear Repulsion Energy =            297.1656247508565230
    One-Electron Energy =               -1108.3019459527254185
    Two-Electron Energy =                 431.5081981968594391
    Total Energy =                       -379.6281230050094564
  Basis Set: (AUG-CC-PVTZ AUX)
    Blend: AUG-CC-PVTZ-RI
    Molecular point group: c1

    Geometry (in Angstrom), charge = 0, multiplicity = 1:

       Center              X                  Y                   Z               Mass
    ------------   -----------------  -----------------  -----------------  -----------------
         O            0.450968126255     1.498714495982    -0.000653117252    15.994914619570
         O           -2.097814873745     0.709069495982     0.000767882748    15.994914619570
         O           -1.422939873745    -1.463450504018    -0.000810117252    15.994914619570
         C            1.349470126255    -0.749105504018     0.000849882748    12.000000000000
         C            2.738884126255    -0.129729504018    -0.000093117252    12.000000000000
         C            0.258802126255     0.289335495982    -0.000011117252    12.000000000000
         C           -0.985367973745    -0.195714404018    -0.000065917252    12.000000000000
         H            1.192043126255    -1.401273504018    -0.867246117252     1.007825032230
         H            1.192433126255    -1.399196504018     0.870609882748     1.007825032230
         H            2.884872126255     0.497329495982    -0.882016117252     1.007825032230
         H            2.885163126255     0.499375495982     0.880315882748     1.007825032230
         H            3.502042126255    -0.911699504018     0.000670882748     1.007825032230
         H           -2.965050873745     0.251759495982     0.000607882748     1.007825032230

  Basis Set: AUG-CC-PVTZ
    Blend: AUG-CC-PVTZ
  Basis Set: (AUG-CC-PVTZ AUX)
    Blend: AUG-CC-PVTZ-JKFIT
	 Reference Energy          =    -379.6281230050094564 [Eh]
	 Singles Energy            =      -0.0000000000000000 [Eh]
	 Same-Spin Energy          =      -0.3721496920724666 [Eh]
	 Opposite-Spin Energy      =      -1.1506881375292588 [Eh]
	 Correlation Energy        =      -1.5228378296017255 [Eh]
	 Total Energy              =    -381.1509608346111690 [Eh]

	 ================> DF-SCS-MP2 Energies <==================
	-----------------------------------------------------------
	 SCS Same-Spin Scale       =       0.3333333333333333 [-]
	 SCS Opposite-Spin Scale   =       1.2000000000000000 [-]
	 SCS Same-Spin Energy      =      -0.1240498973574889 [Eh]
	 SCS Opposite-Spin Energy  =      -1.3808257650351106 [Eh]
	 SCS Correlation Energy    =      -1.5048756623925994 [Eh]
	 SCS Total Energy          =    -381.1329986674020347 [Eh]
	-----------------------------------------------------------

  Dipole Moment: [D]
     X:     0.6377      Y:    -1.2483      Z:     0.0023     Total:     1.4017

*** Psi4 exiting successfully. Buy a developer a beer!
