                               Psi4 1.3.2 release

  ==> Input File <==

--------------------------------------------------------------------------
#psi4
#
memory 32 gb

molecule  {
0 1
  O        0.3919700     1.5293850    -0.0006790
  O       -2.1568130     0.7397400     0.0007420
  O       -1.4819380    -1.4327800    -0.0008360
  C        1.2721826    -0.7373116     0.0008297
  C        2.6798860    -0.0990590    -0.0001190
  C        0.1998040     0.3200060    -0.0000370
  C       -1.2307060    -0.2376900    -0.0001000
  H        1.1330450    -1.3706030    -0.8672720
  H        1.1334350    -1.3685260     0.8705840
  H        2.8258740     0.5280000    -0.8820420
  H        2.8261650     0.5300460     0.8802900
  H        3.4430440    -0.8810290     0.0006450
  H       -3.0240490     0.2824300     0.0005820
units angstrom
no_reorient  #important for SAPT in psi4, default
symmetry c1  #important for SAPT in psi4, default
}

set PROPERTIES_ORIGIN ["COM"]
properties('MP2/aug-cc-pvtz', properties = ['dipole'])
--------------------------------------------------------------------------

    Molecular point group: c1
  Charge       = 0
  Multiplicity = 1
  Basis Set: AUG-CC-PVTZ
    Blend: AUG-CC-PVTZ
  Basis Set: (AUG-CC-PVTZ AUX)
    Blend: AUG-CC-PVTZ-JKFIT

    Orbital Energies [Eh]
    ---------------------

    Doubly Occupied:

       1A    -20.636069     2A    -20.588481     3A    -20.583619
       4A    -11.415193     5A    -11.365874     6A    -11.253031
       7A    -11.229209     8A     -1.485578     9A     -1.410280
      10A     -1.383440    11A     -1.073267    12A     -0.964090
      13A     -0.880399    14A     -0.770666    15A     -0.729340
      16A     -0.712386    17A     -0.665204    18A     -0.654588
      19A     -0.631426    20A     -0.619010    21A     -0.543697
      22A     -0.538763    23A     -0.526441    24A     -0.519317
      25A     -0.506783    26A     -0.500969    27A     -0.437480

  @DF-RHF Final Energy:  -379.70554002676982

   => Energetics <=

    Nuclear Repulsion Energy =            296.5519226929759498
    One-Electron Energy =               -1107.2657284031597555
    Two-Electron Energy =                 431.0082656834139812
    Total Energy =                       -379.7055400267698246
  Basis Set: (AUG-CC-PVTZ AUX)
    Blend: AUG-CC-PVTZ-RI
    Molecular point group: c1

    Geometry (in Angstrom), charge = 0, multiplicity = 1:

       Center              X                  Y                   Z               Mass
    ------------   -----------------  -----------------  -----------------  -----------------
         O            0.475034683444     1.509478527788    -0.000652823226    15.994914619570
         O           -2.073748316556     0.719833527788     0.000768176774    15.994914619570
         O           -1.398873316556    -1.452686472212    -0.000809823226    15.994914619570
         C            1.355247283444    -0.757218072212     0.000855876774    12.000000000000
         C            2.762950683444    -0.118965472212    -0.000092823226    12.000000000000
         C            0.282868683444     0.300099527788    -0.000010823226    12.000000000000
         C           -1.147641316556    -0.257596472212    -0.000073823226    12.000000000000
         H            1.216109683444    -1.390509472212    -0.867245823226     1.007825032230
         H            1.216499683444    -1.388432472212     0.870610176774     1.007825032230
         H            2.908938683444     0.508093527788    -0.882015823226     1.007825032230
         H            2.909229683444     0.510139527788     0.880316176774     1.007825032230
         H            3.526108683444    -0.900935472212     0.000671176774     1.007825032230
         H           -2.940984316556     0.262523527788     0.000608176774     1.007825032230

  Basis Set: AUG-CC-PVTZ
    Blend: AUG-CC-PVTZ
  Basis Set: (AUG-CC-PVTZ AUX)
    Blend: AUG-CC-PVTZ-JKFIT
	 Reference Energy          =    -379.7055400267698246 [Eh]
	 Singles Energy            =      -0.0000000000000000 [Eh]
	 Same-Spin Energy          =      -0.3656330827956022 [Eh]
	 Opposite-Spin Energy      =      -1.1351552067234678 [Eh]
	 Correlation Energy        =      -1.5007882895190701 [Eh]
	 Total Energy              =    -381.2063283162888752 [Eh]

	 ================> DF-SCS-MP2 Energies <==================
	-----------------------------------------------------------
	 SCS Same-Spin Scale       =       0.3333333333333333 [-]
	 SCS Opposite-Spin Scale   =       1.2000000000000000 [-]
	 SCS Same-Spin Energy      =      -0.1218776942652007 [Eh]
	 SCS Opposite-Spin Energy  =      -1.3621862480681612 [Eh]
	 SCS Correlation Energy    =      -1.4840639423333619 [Eh]
	 SCS Total Energy          =    -381.1896039691031888 [Eh]
	-----------------------------------------------------------

  Dipole Moment: [D]
     X:    -0.0718      Y:    -1.1738      Z:     0.0025     Total:     1.1760

*** Psi4 exiting successfully. Buy a developer a beer!
