                               Psi4 1.4a3.dev225

  ==> Input File <==

--------------------------------------------------------------------------
#psi4
#
memory 32 gb

molecule  {
0 1
  O       -0.3919860     1.5294040    -0.0000050
  O        2.1568610     0.7396830     0.0000040
  O        1.4818540    -1.4327810     0.0000010
  C       -1.2904460    -0.7184520    -0.0000070
  C       -2.6798770    -0.0990580     0.0000080
  C       -0.1998110     0.3200430    -0.0000030
  C        1.2493501    -0.2449003     0.0000011
  H       -1.1331960    -1.3695760     0.8689140
  H       -1.1332070    -1.3695530    -0.8689480
  H       -2.8259870     0.5289990     0.8811930
  H       -2.8259930     0.5290290    -0.8811540
  H       -3.4430160    -0.8810440    -0.0000020
  H        3.0240790     0.2823190     0.0000050
units angstrom
no_reorient  #important for SAPT in psi4, default
symmetry c1  #important for SAPT in psi4, default
}

set PROPERTIES_ORIGIN ["COM"]
properties('MP2/aug-cc-pvtz', properties = ['dipole'])
--------------------------------------------------------------------------

    Molecular point group: c1
  Charge       = 0
  Multiplicity = 1
  Basis Set: AUG-CC-PVTZ
    Blend: AUG-CC-PVTZ
  Basis Set: (AUG-CC-PVTZ AUX)
    Blend: AUG-CC-PVTZ-JKFIT

    Orbital Energies [Eh]
    ---------------------

    Doubly Occupied:

       1A    -20.638270     2A    -20.585200     3A    -20.583667
       4A    -11.414566     5A    -11.364272     6A    -11.253399
       7A    -11.227633     8A     -1.490743     9A     -1.408091
      10A     -1.390413    11A     -1.073626    12A     -0.960038
      13A     -0.879277    14A     -0.768639    15A     -0.732159
      16A     -0.712159    17A     -0.665743    18A     -0.653036
      19A     -0.631428    20A     -0.621001    21A     -0.546034
      22A     -0.537769    23A     -0.527928    24A     -0.522691
      25A     -0.506767    26A     -0.498523    27A     -0.433218

  @DF-RHF Final Energy:  -379.70714976038369

   => Energetics <=

    Nuclear Repulsion Energy =            296.6115528639327295
    One-Electron Energy =               -1107.3848239189674132
    Two-Electron Energy =                 431.0661212946509977
    Total Energy =                       -379.7071497603836860
  Basis Set: (AUG-CC-PVTZ AUX)
    Blend: AUG-CC-PVTZ-RI
    Molecular point group: c1

    Geometry (in Angstrom), charge = 0, multiplicity = 1:

       Center              X                  Y                   Z               Mass
    ------------   -----------------  -----------------  -----------------  -----------------
         O           -0.475089457499     1.508130514599    -0.000004973171    15.994914619570
         O            2.073757542501     0.718409514599     0.000004026829    15.994914619570
         O            1.398750542501    -1.454054485401     0.000001026829    15.994914619570
         C           -1.373549457499    -0.739725485401    -0.000006973171    12.000000000000
         C           -2.762980457499    -0.120331485401     0.000008026829    12.000000000000
         C           -0.282914457499     0.298769514599    -0.000002973171    12.000000000000
         C            1.166246642501    -0.266173785401     0.000001126829    12.000000000000
         H           -1.216299457499    -1.390849485401     0.868914026829     1.007825032230
         H           -1.216310457499    -1.390826485401    -0.868947973171     1.007825032230
         H           -2.909090457499     0.507725514599     0.881193026829     1.007825032230
         H           -2.909096457499     0.507755514599    -0.881153973171     1.007825032230
         H           -3.526119457499    -0.902317485401    -0.000001973171     1.007825032230
         H            2.940975542501     0.261045514599     0.000005026829     1.007825032230

  Basis Set: AUG-CC-PVTZ
    Blend: AUG-CC-PVTZ
  Basis Set: (AUG-CC-PVTZ AUX)
    Blend: AUG-CC-PVTZ-JKFIT
	 Reference Energy          =    -379.7071497603836860 [Eh]
	 Singles Energy            =      -0.0000000000000000 [Eh]
	 Same-Spin Energy          =      -0.3654537339634976 [Eh]
	 Opposite-Spin Energy      =      -1.1343698880476674 [Eh]
	 Correlation Energy        =      -1.4998236220111649 [Eh]
	 Total Energy              =    -381.2069733823948354 [Eh]

	 ================> DF-SCS-MP2 Energies <==================
	-----------------------------------------------------------
	 SCS Same-Spin Scale       =       0.3333333333333333 [-]
	 SCS Opposite-Spin Scale   =       1.2000000000000000 [-]
	 SCS Same-Spin Energy      =      -0.1218179113211659 [Eh]
	 SCS Opposite-Spin Energy  =      -1.3612438656572008 [Eh]
	 SCS Correlation Energy    =      -1.4830617769783667 [Eh]
	 SCS Total Energy          =    -381.1902115373620745 [Eh]
	-----------------------------------------------------------

  Dipole Moment: [D]
     X:     0.1458      Y:    -1.1961      Z:    -0.0000     Total:     1.2050

*** Psi4 exiting successfully. Buy a developer a beer!
