                               Psi4 1.3.2 release

  ==> Input File <==

--------------------------------------------------------------------------
#psi4
#
memory 32 gb

molecule  {
0 1
  O        0.4130473     1.5258471    -0.0006713
  O       -2.1568130     0.7397400     0.0007420
  O       -1.4819380    -1.4327800    -0.0008360
  C        1.2904720    -0.7184350     0.0008240
  C        2.6798860    -0.0990590    -0.0001190
  C        0.1998040     0.3200060    -0.0000370
  C       -1.2307060    -0.2376900    -0.0001000
  H        1.1330450    -1.3706030    -0.8672720
  H        1.1334350    -1.3685260     0.8705840
  H        2.8258740     0.5280000    -0.8820420
  H        2.8261650     0.5300460     0.8802900
  H        3.4430440    -0.8810290     0.0006450
  H       -3.0240490     0.2824300     0.0005820
units angstrom
no_reorient  #important for SAPT in psi4, default
symmetry c1  #important for SAPT in psi4, default
}

set PROPERTIES_ORIGIN ["COM"]
properties('MP2/aug-cc-pvtz', properties = ['dipole'])
--------------------------------------------------------------------------

    Molecular point group: c1
  Charge       = 0
  Multiplicity = 1
  Basis Set: AUG-CC-PVTZ
    Blend: AUG-CC-PVTZ
  Basis Set: (AUG-CC-PVTZ AUX)
    Blend: AUG-CC-PVTZ-JKFIT

    Orbital Energies [Eh]
    ---------------------

    Doubly Occupied:

       1A    -20.637281     2A    -20.587405     3A    -20.584769
       4A    -11.417247     5A    -11.365443     6A    -11.253317
       7A    -11.227645     8A     -1.486550     9A     -1.410023
      10A     -1.384498    11A     -1.074442    12A     -0.965995
      13A     -0.880026    14A     -0.769706    15A     -0.730003
      16A     -0.712989    17A     -0.664650    18A     -0.654277
      19A     -0.630273    20A     -0.620113    21A     -0.546295
      22A     -0.538405    23A     -0.528146    24A     -0.520645
      25A     -0.504605    26A     -0.498407    27A     -0.437668

  @DF-RHF Final Energy:  -379.70582605354730

   => Energetics <=

    Nuclear Repulsion Energy =            296.6106980527485462
    One-Electron Energy =               -1107.3713976465176074
    Two-Electron Energy =                 431.0548735402217062
    Total Energy =                       -379.7058260535472982
  Basis Set: (AUG-CC-PVTZ AUX)
    Blend: AUG-CC-PVTZ-RI
    Molecular point group: c1

    Geometry (in Angstrom), charge = 0, multiplicity = 1:

       Center              X                  Y                   Z               Mass
    ------------   -----------------  -----------------  -----------------  -----------------
         O            0.490656792103     1.504275157141    -0.000645659930    15.994914619570
         O           -2.079203507897     0.718168057141     0.000767640070    15.994914619570
         O           -1.404328507897    -1.454351942859    -0.000810359930    15.994914619570
         C            1.368081492103    -0.740006942859     0.000849640070    12.000000000000
         C            2.757495492103    -0.120630942859    -0.000093359930    12.000000000000
         C            0.277413492103     0.298434057141    -0.000011359930    12.000000000000
         C           -1.153096507897    -0.259261942859    -0.000074359930    12.000000000000
         H            1.210654492103    -1.392174942859    -0.867246359930     1.007825032230
         H            1.211044492103    -1.390097942859     0.870609640070     1.007825032230
         H            2.903483492103     0.506428057141    -0.882016359930     1.007825032230
         H            2.903774492103     0.508474057141     0.880315640070     1.007825032230
         H            3.520653492103    -0.902600942859     0.000670640070     1.007825032230
         H           -2.946439507897     0.260858057141     0.000607640070     1.007825032230

  Basis Set: AUG-CC-PVTZ
    Blend: AUG-CC-PVTZ
  Basis Set: (AUG-CC-PVTZ AUX)
    Blend: AUG-CC-PVTZ-JKFIT
	 Reference Energy          =    -379.7058260535472982 [Eh]
	 Singles Energy            =      -0.0000000000000000 [Eh]
	 Same-Spin Energy          =      -0.3658240121021967 [Eh]
	 Opposite-Spin Energy      =      -1.1353054674381140 [Eh]
	 Correlation Energy        =      -1.5011294795403107 [Eh]
	 Total Energy              =    -381.2069555330876369 [Eh]

	 ================> DF-SCS-MP2 Energies <==================
	-----------------------------------------------------------
	 SCS Same-Spin Scale       =       0.3333333333333333 [-]
	 SCS Opposite-Spin Scale   =       1.2000000000000000 [-]
	 SCS Same-Spin Energy      =      -0.1219413373673989 [Eh]
	 SCS Opposite-Spin Energy  =      -1.3623665609257367 [Eh]
	 SCS Correlation Energy    =      -1.4843078982931357 [Eh]
	 SCS Total Energy          =    -381.1901339518404370 [Eh]
	-----------------------------------------------------------

  Dipole Moment: [D]
     X:    -0.1202      Y:    -1.1747      Z:     0.0024     Total:     1.1809

*** Psi4 exiting successfully. Buy a developer a beer!
