                               Psi4 1.3.2 release

  ==> Input File <==

--------------------------------------------------------------------------
#psi4
#
memory 32 gb

molecule  {
0 1
  O        0.3919700     1.5293850    -0.0006790
  O       -2.1568130     0.7397400     0.0007420
  O       -1.4819380    -1.4327800    -0.0008360
  C        1.2904720    -0.7184350     0.0008240
  C        2.6798860    -0.0990590    -0.0001190
  C        0.1899019     0.3092552    -0.0218819
  C       -1.2307060    -0.2376900    -0.0001000
  H        1.1330450    -1.3706030    -0.8672720
  H        1.1334350    -1.3685260     0.8705840
  H        2.8258740     0.5280000    -0.8820420
  H        2.8261650     0.5300460     0.8802900
  H        3.4430440    -0.8810290     0.0006450
  H       -3.0240490     0.2824300     0.0005820
units angstrom
no_reorient  #important for SAPT in psi4, default
symmetry c1  #important for SAPT in psi4, default
}

set PROPERTIES_ORIGIN ["COM"]
properties('MP2/aug-cc-pvtz', properties = ['dipole'])
--------------------------------------------------------------------------

    Molecular point group: c1
  Charge       = 0
  Multiplicity = 1
  Basis Set: AUG-CC-PVTZ
    Blend: AUG-CC-PVTZ
  Basis Set: (AUG-CC-PVTZ AUX)
    Blend: AUG-CC-PVTZ-JKFIT

    Orbital Energies [Eh]
    ---------------------

    Doubly Occupied:

       1A    -20.637210     2A    -20.587404     3A    -20.585001
       4A    -11.417175     5A    -11.366163     6A    -11.254681
       7A    -11.228373     8A     -1.486828     9A     -1.402277
      10A     -1.384765    11A     -1.075354    12A     -0.969008
      13A     -0.881261    14A     -0.770846    15A     -0.730053
      16A     -0.711998    17A     -0.664968    18A     -0.651546
      19A     -0.630375    20A     -0.619168    21A     -0.546855
      22A     -0.536264    23A     -0.528520    24A     -0.520328
      25A     -0.503189    26A     -0.497821    27A     -0.439886

  @DF-RHF Final Energy:  -379.70389113279936

   => Energetics <=

    Nuclear Repulsion Energy =            296.6064585474272235
    One-Electron Energy =               -1107.3660645651314098
    Two-Electron Energy =                 431.0557148849048303
    Total Energy =                       -379.7038911327993560
  Basis Set: (AUG-CC-PVTZ AUX)
    Blend: AUG-CC-PVTZ-RI
    Molecular point group: c1

    Geometry (in Angstrom), charge = 0, multiplicity = 1:

       Center              X                  Y                   Z               Mass
    ------------   -----------------  -----------------  -----------------  -----------------
         O            0.474048248778     1.508522848272     0.001917037076    15.994914619570
         O           -2.074734751222     0.718877848272     0.003338037076    15.994914619570
         O           -1.399859751222    -1.453642151728     0.001760037076    15.994914619570
         C            1.372550248778    -0.739297151728     0.003420037076    12.000000000000
         C            2.761964248778    -0.119921151728     0.002477037076    12.000000000000
         C            0.271980148778     0.288393048272    -0.019285862924    12.000000000000
         C           -1.148627751222    -0.258552151728     0.002496037076    12.000000000000
         H            1.215123248778    -1.391465151728    -0.864675962924     1.007825032230
         H            1.215513248778    -1.389388151728     0.873180037076     1.007825032230
         H            2.907952248778     0.507137848272    -0.879445962924     1.007825032230
         H            2.908243248778     0.509183848272     0.882886037076     1.007825032230
         H            3.525122248778    -0.901891151728     0.003241037076     1.007825032230
         H           -2.941970751222     0.261567848272     0.003178037076     1.007825032230

  Basis Set: AUG-CC-PVTZ
    Blend: AUG-CC-PVTZ
  Basis Set: (AUG-CC-PVTZ AUX)
    Blend: AUG-CC-PVTZ-JKFIT
	 Reference Energy          =    -379.7038911327993560 [Eh]
	 Singles Energy            =      -0.0000000000000000 [Eh]
	 Same-Spin Energy          =      -0.3661682789259511 [Eh]
	 Opposite-Spin Energy      =      -1.1361824776511162 [Eh]
	 Correlation Energy        =      -1.5023507565770673 [Eh]
	 Total Energy              =    -381.2062418893764288 [Eh]

	 ================> DF-SCS-MP2 Energies <==================
	-----------------------------------------------------------
	 SCS Same-Spin Scale       =       0.3333333333333333 [-]
	 SCS Opposite-Spin Scale   =       1.2000000000000000 [-]
	 SCS Same-Spin Energy      =      -0.1220560929753170 [Eh]
	 SCS Opposite-Spin Energy  =      -1.3634189731813395 [Eh]
	 SCS Correlation Energy    =      -1.4854750661566565 [Eh]
	 SCS Total Energy          =    -381.1893661989560087 [Eh]
	-----------------------------------------------------------

  Dipole Moment: [D]
     X:    -0.0943      Y:    -1.2151      Z:    -0.0163     Total:     1.2188

*** Psi4 exiting successfully. Buy a developer a beer!
