                               Psi4 1.3.2 release

  ==> Input File <==

--------------------------------------------------------------------------
#psi4
#
memory 32 gb

molecule  {
0 1
  O        0.3919700     1.5293850    -0.0006790
  O       -2.1568130     0.7397400     0.0007420
  O       -1.4819380    -1.4327800    -0.0008360
  C        1.2904720    -0.7184350     0.0008240
  C        2.6798860    -0.0990590    -0.0001190
  C        0.1841112     0.2212450     0.0000154
  C       -1.2307060    -0.2376900    -0.0001000
  H        1.1330450    -1.3706030    -0.8672720
  H        1.1334350    -1.3685260     0.8705840
  H        2.8258740     0.5280000    -0.8820420
  H        2.8261650     0.5300460     0.8802900
  H        3.4430440    -0.8810290     0.0006450
  H       -3.0240490     0.2824300     0.0005820
units angstrom
no_reorient  #important for SAPT in psi4, default
symmetry c1  #important for SAPT in psi4, default
}

set PROPERTIES_ORIGIN ["COM"]
properties('MP2/aug-cc-pvtz', properties = ['dipole'])
--------------------------------------------------------------------------

    Molecular point group: c1
  Charge       = 0
  Multiplicity = 1
  Basis Set: AUG-CC-PVTZ
    Blend: AUG-CC-PVTZ
  Basis Set: (AUG-CC-PVTZ AUX)
    Blend: AUG-CC-PVTZ-JKFIT

    Orbital Energies [Eh]
    ---------------------

    Doubly Occupied:

       1A    -20.639736     2A    -20.587164     3A    -20.583942
       4A    -11.421109     5A    -11.372217     6A    -11.258119
       7A    -11.231596     8A     -1.489067     9A     -1.388494
      10A     -1.351443    11A     -1.088863    12A     -0.979827
      13A     -0.891222    14A     -0.776750    15A     -0.731057
      16A     -0.709670    17A     -0.668497    18A     -0.640759
      19A     -0.634543    20A     -0.611097    21A     -0.549557
      22A     -0.530895    23A     -0.527650    24A     -0.516081
      25A     -0.503257    26A     -0.475560    27A     -0.451388

  @DF-RHF Final Energy:  -379.67901408381226

   => Energetics <=

    Nuclear Repulsion Energy =            296.3807686522764016
    One-Electron Energy =               -1106.9004399310347253
    Two-Electron Energy =                 430.8406571949460613
    Total Energy =                       -379.6790140838122625
  Basis Set: (AUG-CC-PVTZ AUX)
    Blend: AUG-CC-PVTZ-RI
    Molecular point group: c1

    Geometry (in Angstrom), charge = 0, multiplicity = 1:

       Center              X                  Y                   Z               Mass
    ------------   -----------------  -----------------  -----------------  -----------------
         O            0.474729295983     1.518873773147    -0.000658315637    15.994914619570
         O           -2.074053704017     0.729228773147     0.000762684363    15.994914619570
         O           -1.399178704017    -1.443291226853    -0.000815315637    15.994914619570
         C            1.373231295983    -0.728946226853     0.000844684363    12.000000000000
         C            2.762645295983    -0.109570226853    -0.000098315637    12.000000000000
         C            0.266870495983     0.210733773147     0.000036084363    12.000000000000
         C           -1.147946704017    -0.248201226853    -0.000079315637    12.000000000000
         H            1.215804295983    -1.381114226853    -0.867251315637     1.007825032230
         H            1.216194295983    -1.379037226853     0.870604684363     1.007825032230
         H            2.908633295983     0.517488773147    -0.882021315637     1.007825032230
         H            2.908924295983     0.519534773147     0.880310684363     1.007825032230
         H            3.525803295983    -0.891540226853     0.000665684363     1.007825032230
         H           -2.941289704017     0.271918773147     0.000602684363     1.007825032230

  Basis Set: AUG-CC-PVTZ
    Blend: AUG-CC-PVTZ
  Basis Set: (AUG-CC-PVTZ AUX)
    Blend: AUG-CC-PVTZ-JKFIT
	 Reference Energy          =    -379.6790140838122625 [Eh]
	 Singles Energy            =      -0.0000000000000000 [Eh]
	 Same-Spin Energy          =      -0.3694507305869074 [Eh]
	 Opposite-Spin Energy      =      -1.1432957438348963 [Eh]
	 Correlation Energy        =      -1.5127464744218035 [Eh]
	 Total Energy              =    -381.1917605582340798 [Eh]

	 ================> DF-SCS-MP2 Energies <==================
	-----------------------------------------------------------
	 SCS Same-Spin Scale       =       0.3333333333333333 [-]
	 SCS Opposite-Spin Scale   =       1.2000000000000000 [-]
	 SCS Same-Spin Energy      =      -0.1231502435289691 [Eh]
	 SCS Opposite-Spin Energy  =      -1.3719548926018754 [Eh]
	 SCS Correlation Energy    =      -1.4951051361308445 [Eh]
	 SCS Total Energy          =    -381.1741192199431225 [Eh]
	-----------------------------------------------------------

  Dipole Moment: [D]
     X:    -0.0096      Y:    -1.4630      Z:     0.0027     Total:     1.4630

*** Psi4 exiting successfully. Buy a developer a beer!
