                               Psi4 1.3.2 release

  ==> Input File <==

--------------------------------------------------------------------------
#psi4
#
memory 32 gb

molecule  {
0 1
  O        0.3919700     1.5293850    -0.0006790
  O       -2.1568130     0.7397400     0.0007420
  O       -1.4819380    -1.4327800    -0.0008360
  C        1.2904720    -0.7184350     0.0008240
  C        2.6798860    -0.0990590    -0.0001190
  C        0.2722274     0.2510506     0.0000202
  C       -1.2307060    -0.2376900    -0.0001000
  H        1.1330450    -1.3706030    -0.8672720
  H        1.1334350    -1.3685260     0.8705840
  H        2.8258740     0.5280000    -0.8820420
  H        2.8261650     0.5300460     0.8802900
  H        3.4430440    -0.8810290     0.0006450
  H       -3.0240490     0.2824300     0.0005820
units angstrom
no_reorient  #important for SAPT in psi4, default
symmetry c1  #important for SAPT in psi4, default
}

set PROPERTIES_ORIGIN ["COM"]
properties('MP2/aug-cc-pvtz', properties = ['dipole'])
--------------------------------------------------------------------------

    Molecular point group: c1
  Charge       = 0
  Multiplicity = 1
  Basis Set: AUG-CC-PVTZ
    Blend: AUG-CC-PVTZ
  Basis Set: (AUG-CC-PVTZ AUX)
    Blend: AUG-CC-PVTZ-JKFIT

    Orbital Energies [Eh]
    ---------------------

    Doubly Occupied:

       1A    -20.635880     2A    -20.581546     3A    -20.579176
       4A    -11.416420     5A    -11.371677     6A    -11.256510
       7A    -11.233406     8A     -1.481844     9A     -1.381277
      10A     -1.372112    11A     -1.101272    12A     -0.960145
      13A     -0.884634    14A     -0.768107    15A     -0.726657
      16A     -0.712880    17A     -0.667005    18A     -0.648923
      19A     -0.635418    20A     -0.612428    21A     -0.547111
      22A     -0.534756    23A     -0.531239    24A     -0.520649
      25A     -0.499649    26A     -0.487142    27A     -0.438423

  @DF-RHF Final Energy:  -379.68602584604577

   => Energetics <=

    Nuclear Repulsion Energy =            296.2925526278233974
    One-Electron Energy =               -1106.7845848760953231
    Two-Electron Energy =                 430.8060064022261599
    Total Energy =                       -379.6860258460457658
  Basis Set: (AUG-CC-PVTZ AUX)
    Blend: AUG-CC-PVTZ-RI
    Molecular point group: c1

    Geometry (in Angstrom), charge = 0, multiplicity = 1:

       Center              X                  Y                   Z               Mass
    ------------   -----------------  -----------------  -----------------  -----------------
         O            0.464365904393     1.515368321206    -0.000658880167    15.994914619570
         O           -2.084417095607     0.725723321206     0.000762119833    15.994914619570
         O           -1.409542095607    -1.446796678794    -0.000815880167    15.994914619570
         C            1.362867904393    -0.732451678794     0.000844119833    12.000000000000
         C            2.752281904393    -0.113075678794    -0.000098880167    12.000000000000
         C            0.344623304393     0.237033921206     0.000040319833    12.000000000000
         C           -1.158310095607    -0.251706678794    -0.000079880167    12.000000000000
         H            1.205440904393    -1.384619678794    -0.867251880167     1.007825032230
         H            1.205830904393    -1.382542678794     0.870604119833     1.007825032230
         H            2.898269904393     0.513983321206    -0.882021880167     1.007825032230
         H            2.898560904393     0.516029321206     0.880310119833     1.007825032230
         H            3.515439904393    -0.895045678794     0.000665119833     1.007825032230
         H           -2.951653095607     0.268413321206     0.000602119833     1.007825032230

  Basis Set: AUG-CC-PVTZ
    Blend: AUG-CC-PVTZ
  Basis Set: (AUG-CC-PVTZ AUX)
    Blend: AUG-CC-PVTZ-JKFIT
	 Reference Energy          =    -379.6860258460457658 [Eh]
	 Singles Energy            =      -0.0000000000000000 [Eh]
	 Same-Spin Energy          =      -0.3682073352157654 [Eh]
	 Opposite-Spin Energy      =      -1.1395948174219011 [Eh]
	 Correlation Energy        =      -1.5078021526376664 [Eh]
	 Total Energy              =    -381.1938279986834459 [Eh]

	 ================> DF-SCS-MP2 Energies <==================
	-----------------------------------------------------------
	 SCS Same-Spin Scale       =       0.3333333333333333 [-]
	 SCS Opposite-Spin Scale   =       1.2000000000000000 [-]
	 SCS Same-Spin Energy      =      -0.1227357784052551 [Eh]
	 SCS Opposite-Spin Energy  =      -1.3675137809062812 [Eh]
	 SCS Correlation Energy    =      -1.4902495593115364 [Eh]
	 SCS Total Energy          =    -381.1762754053573303 [Eh]
	-----------------------------------------------------------

  Dipole Moment: [D]
     X:     0.2950      Y:    -1.4692      Z:     0.0028     Total:     1.4985

*** Psi4 exiting successfully. Buy a developer a beer!
