                               Psi4 1.4a3.dev225

  ==> Input File <==

--------------------------------------------------------------------------
#psi4
#
memory 32 gb

molecule  {
0 1
  O       -0.3919860     1.5294040    -0.0000050
  O        2.1568610     0.7396830     0.0000040
  O        1.4818540    -1.4327810     0.0000010
  C       -1.2904460    -0.7184520    -0.0000070
  C       -2.6798770    -0.0990580     0.0000080
  C       -0.1998110     0.3200430    -0.0000030
  C        1.1841308    -0.2194751     0.0000009
  H       -1.1331960    -1.3695760     0.8689140
  H       -1.1332070    -1.3695530    -0.8689480
  H       -2.8259870     0.5289990     0.8811930
  H       -2.8259930     0.5290290    -0.8811540
  H       -3.4430160    -0.8810440    -0.0000020
  H        3.0240790     0.2823190     0.0000050
units angstrom
no_reorient  #important for SAPT in psi4, default
symmetry c1  #important for SAPT in psi4, default
}

set PROPERTIES_ORIGIN ["COM"]
properties('MP2/aug-cc-pvtz', properties = ['dipole'])
--------------------------------------------------------------------------

    Molecular point group: c1
  Charge       = 0
  Multiplicity = 1
  Basis Set: AUG-CC-PVTZ
    Blend: AUG-CC-PVTZ
  Basis Set: (AUG-CC-PVTZ AUX)
    Blend: AUG-CC-PVTZ-JKFIT

    Orbital Energies [Eh]
    ---------------------

    Doubly Occupied:

       1A    -20.632264     2A    -20.593081     3A    -20.584879
       4A    -11.420241     5A    -11.367514     6A    -11.256211
       7A    -11.229841     8A     -1.474251     9A     -1.414301
      10A     -1.367138    11A     -1.079640    12A     -0.979981
      13A     -0.882388    14A     -0.771574    15A     -0.723253
      16A     -0.714126    17A     -0.662792    18A     -0.657138
      19A     -0.626309    20A     -0.614109    21A     -0.549978
      22A     -0.540882    23A     -0.531233    24A     -0.514905
      25A     -0.503418    26A     -0.493044    27A     -0.446296

  @DF-RHF Final Energy:  -379.69831094343078

   => Energetics <=

    Nuclear Repulsion Energy =            296.7163127413249981
    One-Electron Energy =               -1107.5676701563611459
    Two-Electron Energy =                 431.1530464716053075
    Total Energy =                       -379.6983109434307835
  Basis Set: (AUG-CC-PVTZ AUX)
    Blend: AUG-CC-PVTZ-RI
    Molecular point group: c1

    Geometry (in Angstrom), charge = 0, multiplicity = 1:

       Center              X                  Y                   Z               Mass
    ------------   -----------------  -----------------  -----------------  -----------------
         O           -0.467418982091     1.505140243753    -0.000004949649    15.994914619570
         O            2.081428017909     0.715419243753     0.000004050351    15.994914619570
         O            1.406421017909    -1.457044756247     0.000001050351    15.994914619570
         C           -1.365878982091    -0.742715756247    -0.000006949649    12.000000000000
         C           -2.755309982091    -0.123321756247     0.000008050351    12.000000000000
         C           -0.275243982091     0.295779243753    -0.000002949649    12.000000000000
         C            1.108697817909    -0.243738856247     0.000000950351    12.000000000000
         H           -1.208628982091    -1.393839756247     0.868914050351     1.007825032230
         H           -1.208639982091    -1.393816756247    -0.868947949649     1.007825032230
         H           -2.901419982091     0.504735243753     0.881193050351     1.007825032230
         H           -2.901425982091     0.504765243753    -0.881153949649     1.007825032230
         H           -3.518448982091    -0.905307756247    -0.000001949649     1.007825032230
         H            2.948646017909     0.258055243753     0.000005050351     1.007825032230

  Basis Set: AUG-CC-PVTZ
    Blend: AUG-CC-PVTZ
  Basis Set: (AUG-CC-PVTZ AUX)
    Blend: AUG-CC-PVTZ-JKFIT
	 Reference Energy          =    -379.6983109434307835 [Eh]
	 Singles Energy            =      -0.0000000000000000 [Eh]
	 Same-Spin Energy          =      -0.3668097122862628 [Eh]
	 Opposite-Spin Energy      =      -1.1378265504166156 [Eh]
	 Correlation Energy        =      -1.5046362627028784 [Eh]
	 Total Energy              =    -381.2029472061336719 [Eh]

	 ================> DF-SCS-MP2 Energies <==================
	-----------------------------------------------------------
	 SCS Same-Spin Scale       =       0.3333333333333333 [-]
	 SCS Opposite-Spin Scale   =       1.2000000000000000 [-]
	 SCS Same-Spin Energy      =      -0.1222699040954209 [Eh]
	 SCS Opposite-Spin Energy  =      -1.3653918604999387 [Eh]
	 SCS Correlation Energy    =      -1.4876617645953596 [Eh]
	 SCS Total Energy          =    -381.1859727080261564 [Eh]
	-----------------------------------------------------------

  Dipole Moment: [D]
     X:    -0.1324      Y:    -1.1615      Z:    -0.0000     Total:     1.1691

*** Psi4 exiting successfully. Buy a developer a beer!
