                               Psi4 1.3.2 release

  ==> Input File <==

--------------------------------------------------------------------------
#psi4
#
memory 32 gb

molecule  {
0 1
  O        0.3919700     1.5293850    -0.0006790
  O       -2.1568130     0.7397400     0.0007420
  O       -1.4819380    -1.4327800    -0.0008360
  C        1.2904720    -0.7184350     0.0008240
  C        2.6904840    -0.1234019    -0.0000957
  C        0.1998040     0.3200060    -0.0000370
  C       -1.2307060    -0.2376900    -0.0001000
  H        1.1330450    -1.3706030    -0.8672720
  H        1.1334350    -1.3685260     0.8705840
  H        2.8258740     0.5280000    -0.8820420
  H        2.8261650     0.5300460     0.8802900
  H        3.4430440    -0.8810290     0.0006450
  H       -3.0240490     0.2824300     0.0005820
units angstrom
no_reorient  #important for SAPT in psi4, default
symmetry c1  #important for SAPT in psi4, default
}

set PROPERTIES_ORIGIN ["COM"]
properties('MP2/aug-cc-pvtz', properties = ['dipole'])
--------------------------------------------------------------------------

    Molecular point group: c1
  Charge       = 0
  Multiplicity = 1
  Basis Set: AUG-CC-PVTZ
    Blend: AUG-CC-PVTZ
  Basis Set: (AUG-CC-PVTZ AUX)
    Blend: AUG-CC-PVTZ-JKFIT

    Orbital Energies [Eh]
    ---------------------

    Doubly Occupied:

       1A    -20.636671     2A    -20.587588     3A    -20.583946
       4A    -11.416376     5A    -11.365942     6A    -11.254165
       7A    -11.228416     8A     -1.486039     9A     -1.409995
      10A     -1.383805    11A     -1.075102    12A     -0.965726
      13A     -0.880541    14A     -0.769545    15A     -0.729599
      16A     -0.712838    17A     -0.664104    18A     -0.654901
      19A     -0.628823    20A     -0.619356    21A     -0.555703
      22A     -0.535881    23A     -0.526229    24A     -0.521213
      25A     -0.503917    26A     -0.495764    27A     -0.437775

  @DF-RHF Final Energy:  -379.70528631347258

   => Energetics <=

    Nuclear Repulsion Energy =            296.4962076031235938
    One-Electron Energy =               -1107.1430687911556561
    Two-Electron Energy =                 430.9415748745594783
    Total Energy =                       -379.7052863134725840
  Basis Set: (AUG-CC-PVTZ AUX)
    Blend: AUG-CC-PVTZ-RI
    Molecular point group: c1

    Geometry (in Angstrom), charge = 0, multiplicity = 1:

       Center              X                  Y                   Z               Mass
    ------------   -----------------  -----------------  -----------------  -----------------
         O            0.471637221477     1.510121422142    -0.000654893171    15.994914619570
         O           -2.077145778523     0.720476422142     0.000766106829    15.994914619570
         O           -1.402270778523    -1.452043577858    -0.000811893171    15.994914619570
         C            1.370139221477    -0.737698577858     0.000848106829    12.000000000000
         C            2.770151221477    -0.142665477858    -0.000071593171    12.000000000000
         C            0.279471221477     0.300742422142    -0.000012893171    12.000000000000
         C           -1.151038778523    -0.256953577858    -0.000075893171    12.000000000000
         H            1.212712221477    -1.389866577858    -0.867247893171     1.007825032230
         H            1.213102221477    -1.387789577858     0.870608106829     1.007825032230
         H            2.905541221477     0.508736422142    -0.882017893171     1.007825032230
         H            2.905832221477     0.510782422142     0.880314106829     1.007825032230
         H            3.522711221477    -0.900292577858     0.000669106829     1.007825032230
         H           -2.944381778523     0.263166422142     0.000606106829     1.007825032230

  Basis Set: AUG-CC-PVTZ
    Blend: AUG-CC-PVTZ
  Basis Set: (AUG-CC-PVTZ AUX)
    Blend: AUG-CC-PVTZ-JKFIT
	 Reference Energy          =    -379.7052863134725840 [Eh]
	 Singles Energy            =      -0.0000000000000000 [Eh]
	 Same-Spin Energy          =      -0.3657749366576954 [Eh]
	 Opposite-Spin Energy      =      -1.1352508233126595 [Eh]
	 Correlation Energy        =      -1.5010257599703549 [Eh]
	 Total Energy              =    -381.2063120734429162 [Eh]

	 ================> DF-SCS-MP2 Energies <==================
	-----------------------------------------------------------
	 SCS Same-Spin Scale       =       0.3333333333333333 [-]
	 SCS Opposite-Spin Scale   =       1.2000000000000000 [-]
	 SCS Same-Spin Energy      =      -0.1219249788858985 [Eh]
	 SCS Opposite-Spin Energy  =      -1.3623009879751913 [Eh]
	 SCS Correlation Energy    =      -1.4842259668610898 [Eh]
	 SCS Total Energy          =    -381.1895122803337017 [Eh]
	-----------------------------------------------------------

  Dipole Moment: [D]
     X:    -0.0633      Y:    -1.1915      Z:     0.0025     Total:     1.1932

*** Psi4 exiting successfully. Buy a developer a beer!
