                               Psi4 1.3.2 release

  ==> Input File <==

--------------------------------------------------------------------------
#psi4
#
memory 32 gb

molecule  {
0 1
  O        0.2645028     1.5428467    -0.0007181
  O       -2.1568130     0.7397400     0.0007420
  O       -1.4819380    -1.4327800    -0.0008360
  C        1.2904720    -0.7184350     0.0008240
  C        2.6798860    -0.0990590    -0.0001190
  C        0.1998040     0.3200060    -0.0000370
  C       -1.2307060    -0.2376900    -0.0001000
  H        1.1330450    -1.3706030    -0.8672720
  H        1.1334350    -1.3685260     0.8705840
  H        2.8258740     0.5280000    -0.8820420
  H        2.8261650     0.5300460     0.8802900
  H        3.4430440    -0.8810290     0.0006450
  H       -3.0240490     0.2824300     0.0005820
units angstrom
no_reorient  #important for SAPT in psi4, default
symmetry c1  #important for SAPT in psi4, default
}

set PROPERTIES_ORIGIN ["COM"]
properties('MP2/aug-cc-pvtz', properties = ['dipole'])
--------------------------------------------------------------------------

    Molecular point group: c1
  Charge       = 0
  Multiplicity = 1
  Basis Set: AUG-CC-PVTZ
    Blend: AUG-CC-PVTZ
  Basis Set: (AUG-CC-PVTZ AUX)
    Blend: AUG-CC-PVTZ-JKFIT

    Orbital Energies [Eh]
    ---------------------

    Doubly Occupied:

       1A    -20.631547     2A    -20.587247     3A    -20.578163
       4A    -11.408873     5A    -11.365496     6A    -11.259717
       7A    -11.231949     8A     -1.482043     9A     -1.409616
      10A     -1.378629    11A     -1.079793    12A     -0.961977
      13A     -0.880657    14A     -0.768788    15A     -0.726746
      16A     -0.709498    17A     -0.663267    18A     -0.654862
      19A     -0.630281    20A     -0.613753    21A     -0.552264
      22A     -0.540357    23A     -0.532540    24A     -0.519705
      25A     -0.504021    26A     -0.497035    27A     -0.433484

  @DF-RHF Final Energy:  -379.70393815573800

   => Energetics <=

    Nuclear Repulsion Energy =            296.9449509573218506
    One-Electron Energy =               -1108.0931625507939771
    Two-Electron Energy =                 431.4442734377340685
    Total Energy =                       -379.7039381557380011
  Basis Set: (AUG-CC-PVTZ AUX)
    Blend: AUG-CC-PVTZ-RI
    Molecular point group: c1

    Geometry (in Angstrom), charge = 0, multiplicity = 1:

       Center              X                  Y                   Z               Mass
    ------------   -----------------  -----------------  -----------------  -----------------
         O            0.365398748500     1.518609828825    -0.000685123366    15.994914619570
         O           -2.055917051500     0.715503128825     0.000774976634    15.994914619570
         O           -1.381042051500    -1.457016871175    -0.000803023366    15.994914619570
         C            1.391367948500    -0.742671871175     0.000856976634    12.000000000000
         C            2.780781948500    -0.123295871175    -0.000086023366    12.000000000000
         C            0.300699948500     0.295769128825    -0.000004023366    12.000000000000
         C           -1.129810051500    -0.261926871175    -0.000067023366    12.000000000000
         H            1.233940948500    -1.394839871175    -0.867239023366     1.007825032230
         H            1.234330948500    -1.392762871175     0.870616976634     1.007825032230
         H            2.926769948500     0.503763128825    -0.882009023366     1.007825032230
         H            2.927060948500     0.505809128825     0.880322976634     1.007825032230
         H            3.543939948500    -0.905265871175     0.000677976634     1.007825032230
         H           -2.923153051500     0.258193128825     0.000614976634     1.007825032230

  Basis Set: AUG-CC-PVTZ
    Blend: AUG-CC-PVTZ
  Basis Set: (AUG-CC-PVTZ AUX)
    Blend: AUG-CC-PVTZ-JKFIT
	 Reference Energy          =    -379.7039381557380011 [Eh]
	 Singles Energy            =      -0.0000000000000000 [Eh]
	 Same-Spin Energy          =      -0.3656171593429411 [Eh]
	 Opposite-Spin Energy      =      -1.1349091642856548 [Eh]
	 Correlation Energy        =      -1.5005263236285959 [Eh]
	 Total Energy              =    -381.2044644793666066 [Eh]

	 ================> DF-SCS-MP2 Energies <==================
	-----------------------------------------------------------
	 SCS Same-Spin Scale       =       0.3333333333333333 [-]
	 SCS Opposite-Spin Scale   =       1.2000000000000000 [-]
	 SCS Same-Spin Energy      =      -0.1218723864476470 [Eh]
	 SCS Opposite-Spin Energy  =      -1.3618909971427857 [Eh]
	 SCS Correlation Energy    =      -1.4837633835904327 [Eh]
	 SCS Total Energy          =    -381.1877015393284296 [Eh]
	-----------------------------------------------------------

  Dipole Moment: [D]
     X:     0.2845      Y:    -1.2082      Z:     0.0026     Total:     1.2413

*** Psi4 exiting successfully. Buy a developer a beer!
