                               Psi4 1.3.2 release

  ==> Input File <==

--------------------------------------------------------------------------
#psi4
#
memory 32 gb

molecule  {
0 1
  O        0.3919700     1.5293850    -0.0006790
  O       -2.1737305     0.7234283     0.0007348
  O       -1.4819380    -1.4327800    -0.0008360
  C        1.2904720    -0.7184350     0.0008240
  C        2.6798860    -0.0990590    -0.0001190
  C        0.1998040     0.3200060    -0.0000370
  C       -1.2307060    -0.2376900    -0.0001000
  H        1.1330450    -1.3706030    -0.8672720
  H        1.1334350    -1.3685260     0.8705840
  H        2.8258740     0.5280000    -0.8820420
  H        2.8261650     0.5300460     0.8802900
  H        3.4430440    -0.8810290     0.0006450
  H       -3.0240490     0.2824300     0.0005820
units angstrom
no_reorient  #important for SAPT in psi4, default
symmetry c1  #important for SAPT in psi4, default
}

set PROPERTIES_ORIGIN ["COM"]
properties('MP2/aug-cc-pvtz', properties = ['dipole'])
--------------------------------------------------------------------------

    Molecular point group: c1
  Charge       = 0
  Multiplicity = 1
  Basis Set: AUG-CC-PVTZ
    Blend: AUG-CC-PVTZ
  Basis Set: (AUG-CC-PVTZ AUX)
    Blend: AUG-CC-PVTZ-JKFIT

    Orbital Energies [Eh]
    ---------------------

    Doubly Occupied:

       1A    -20.633397     2A    -20.588252     3A    -20.583006
       4A    -11.416107     5A    -11.366681     6A    -11.254859
       7A    -11.228711     8A     -1.487954     9A     -1.410838
      10A     -1.384042    11A     -1.075808    12A     -0.967058
      13A     -0.882906    14A     -0.773803    15A     -0.728958
      16A     -0.713782    17A     -0.664466    18A     -0.655488
      19A     -0.630672    20A     -0.619015    21A     -0.547941
      22A     -0.539429    23A     -0.529259    24A     -0.519723
      25A     -0.503910    26A     -0.498632    27A     -0.438252

  @DF-RHF Final Energy:  -379.70733737086664

   => Energetics <=

    Nuclear Repulsion Energy =            296.6056830553216628
    One-Electron Energy =               -1107.3401407261940221
    Two-Electron Energy =                 431.0271203000057767
    Total Energy =                       -379.7073373708666395
  Basis Set: (AUG-CC-PVTZ AUX)
    Blend: AUG-CC-PVTZ-RI
    Molecular point group: c1

    Geometry (in Angstrom), charge = 0, multiplicity = 1:

       Center              X                  Y                   Z               Mass
    ------------   -----------------  -----------------  -----------------  -----------------
         O            0.475535715682     1.509815531394    -0.000651024144    15.994914619570
         O           -2.090164784318     0.703858831394     0.000762775856    15.994914619570
         O           -1.398372284318    -1.452349468606    -0.000808024144    15.994914619570
         C            1.374037715682    -0.738004468606     0.000851975856    12.000000000000
         C            2.763451715682    -0.118628468606    -0.000091024144    12.000000000000
         C            0.283369715682     0.300436531394    -0.000009024144    12.000000000000
         C           -1.147140284318    -0.257259468606    -0.000072024144    12.000000000000
         H            1.216610715682    -1.390172468606    -0.867244024144     1.007825032230
         H            1.217000715682    -1.388095468606     0.870611975856     1.007825032230
         H            2.909439715682     0.508430531394    -0.882014024144     1.007825032230
         H            2.909730715682     0.510476531394     0.880317975856     1.007825032230
         H            3.526609715682    -0.900598468606     0.000672975856     1.007825032230
         H           -2.940483284318     0.262860531394     0.000609975856     1.007825032230

  Basis Set: AUG-CC-PVTZ
    Blend: AUG-CC-PVTZ
  Basis Set: (AUG-CC-PVTZ AUX)
    Blend: AUG-CC-PVTZ-JKFIT
	 Reference Energy          =    -379.7073373708666395 [Eh]
	 Singles Energy            =      -0.0000000000000000 [Eh]
	 Same-Spin Energy          =      -0.3653303908504563 [Eh]
	 Opposite-Spin Energy      =      -1.1342921057766637 [Eh]
	 Correlation Energy        =      -1.4996224966271199 [Eh]
	 Total Energy              =    -381.2069598674937652 [Eh]

	 ================> DF-SCS-MP2 Energies <==================
	-----------------------------------------------------------
	 SCS Same-Spin Scale       =       0.3333333333333333 [-]
	 SCS Opposite-Spin Scale   =       1.2000000000000000 [-]
	 SCS Same-Spin Energy      =      -0.1217767969501521 [Eh]
	 SCS Opposite-Spin Energy  =      -1.3611505269319963 [Eh]
	 SCS Correlation Energy    =      -1.4829273238821483 [Eh]
	 SCS Total Energy          =    -381.1902646947488051 [Eh]
	-----------------------------------------------------------

  Dipole Moment: [D]
     X:    -0.0096      Y:    -1.1754      Z:     0.0025     Total:     1.1755

*** Psi4 exiting successfully. Buy a developer a beer!
