                               Psi4 1.3.2 release

  ==> Input File <==

--------------------------------------------------------------------------
#psi4
#
memory 32 gb

molecule  {
0 1
  O        0.3919700     1.5293850    -0.0006790
  O       -2.1568130     0.7397400     0.0007420
  O       -1.3556408    -1.4524940    -0.0008760
  C        1.2904720    -0.7184350     0.0008240
  C        2.6798860    -0.0990590    -0.0001190
  C        0.1998040     0.3200060    -0.0000370
  C       -1.2307060    -0.2376900    -0.0001000
  H        1.1330450    -1.3706030    -0.8672720
  H        1.1334350    -1.3685260     0.8705840
  H        2.8258740     0.5280000    -0.8820420
  H        2.8261650     0.5300460     0.8802900
  H        3.4430440    -0.8810290     0.0006450
  H       -3.0240490     0.2824300     0.0005820
units angstrom
no_reorient  #important for SAPT in psi4, default
symmetry c1  #important for SAPT in psi4, default
}

set PROPERTIES_ORIGIN ["COM"]
properties('MP2/aug-cc-pvtz', properties = ['dipole'])
--------------------------------------------------------------------------

    Molecular point group: c1
  Charge       = 0
  Multiplicity = 1
  Basis Set: AUG-CC-PVTZ
    Blend: AUG-CC-PVTZ
  Basis Set: (AUG-CC-PVTZ AUX)
    Blend: AUG-CC-PVTZ-JKFIT

    Orbital Energies [Eh]
    ---------------------

    Doubly Occupied:

       1A    -20.646260     2A    -20.586169     3A    -20.581719
       4A    -11.417381     5A    -11.358356     6A    -11.249793
       7A    -11.225060     8A     -1.486939     9A     -1.404784
      10A     -1.393635    11A     -1.070453    12A     -0.961413
      13A     -0.879918    14A     -0.770022    15A     -0.733088
      16A     -0.711198    17A     -0.665679    18A     -0.651315
      19A     -0.628738    20A     -0.620224    21A     -0.544289
      22A     -0.536666    23A     -0.524928    24A     -0.520637
      25A     -0.507040    26A     -0.495878    27A     -0.432235

  @DF-RHF Final Energy:  -379.70266448084226

   => Energetics <=

    Nuclear Repulsion Energy =            297.3663365247368233
    One-Electron Energy =               -1108.9303632710857528
    Two-Electron Energy =                 431.8613622655066138
    Total Energy =                       -379.7026644808422589
  Basis Set: (AUG-CC-PVTZ AUX)
    Blend: AUG-CC-PVTZ-RI
    Molecular point group: c1

    Geometry (in Angstrom), charge = 0, multiplicity = 1:

       Center              X                  Y                   Z               Mass
    ------------   -----------------  -----------------  -----------------  -----------------
         O            0.453084780999     1.510348890156    -0.000645882279    15.994914619570
         O           -2.095698219001     0.720703890156     0.000775117721    15.994914619570
         O           -1.294526019001    -1.471530109844    -0.000842882279    15.994914619570
         C            1.351586780999    -0.737471109844     0.000857117721    12.000000000000
         C            2.741000780999    -0.118095109844    -0.000085882279    12.000000000000
         C            0.260918780999     0.300969890156    -0.000003882279    12.000000000000
         C           -1.169591219001    -0.256726109844    -0.000066882279    12.000000000000
         H            1.194159780999    -1.389639109844    -0.867238882279     1.007825032230
         H            1.194549780999    -1.387562109844     0.870617117721     1.007825032230
         H            2.886988780999     0.508963890156    -0.882008882279     1.007825032230
         H            2.887279780999     0.511009890156     0.880323117721     1.007825032230
         H            3.504158780999    -0.900065109844     0.000678117721     1.007825032230
         H           -2.962934219001     0.263393890156     0.000615117721     1.007825032230

  Basis Set: AUG-CC-PVTZ
    Blend: AUG-CC-PVTZ
  Basis Set: (AUG-CC-PVTZ AUX)
    Blend: AUG-CC-PVTZ-JKFIT
	 Reference Energy          =    -379.7026644808422589 [Eh]
	 Singles Energy            =      -0.0000000000000000 [Eh]
	 Same-Spin Energy          =      -0.3660723503895404 [Eh]
	 Opposite-Spin Energy      =      -1.1357984585931962 [Eh]
	 Correlation Energy        =      -1.5018708089827366 [Eh]
	 Total Energy              =    -381.2045352898250030 [Eh]

	 ================> DF-SCS-MP2 Energies <==================
	-----------------------------------------------------------
	 SCS Same-Spin Scale       =       0.3333333333333333 [-]
	 SCS Opposite-Spin Scale   =       1.2000000000000000 [-]
	 SCS Same-Spin Energy      =      -0.1220241167965135 [Eh]
	 SCS Opposite-Spin Energy  =      -1.3629581503118353 [Eh]
	 SCS Correlation Energy    =      -1.4849822671083488 [Eh]
	 SCS Total Energy          =    -381.1876467479506232 [Eh]
	-----------------------------------------------------------

  Dipole Moment: [D]
     X:    -0.4875      Y:    -1.1926      Z:     0.0025     Total:     1.2884

*** Psi4 exiting successfully. Buy a developer a beer!
