                               Psi4 1.3.2 release

  ==> Input File <==

--------------------------------------------------------------------------
#psi4
#
memory 32 gb

molecule  {
0 1
  O        0.3919700     1.5293850    -0.0006790
  O       -2.1568130     0.7397400     0.0007420
  O       -1.3979607    -1.4473939    -0.0008636
  C        1.2904720    -0.7184350     0.0008240
  C        2.6798860    -0.0990590    -0.0001190
  C        0.1998040     0.3200060    -0.0000370
  C       -1.2307060    -0.2376900    -0.0001000
  H        1.1330450    -1.3706030    -0.8672720
  H        1.1334350    -1.3685260     0.8705840
  H        2.8258740     0.5280000    -0.8820420
  H        2.8261650     0.5300460     0.8802900
  H        3.4430440    -0.8810290     0.0006450
  H       -3.0240490     0.2824300     0.0005820
units angstrom
no_reorient  #important for SAPT in psi4, default
symmetry c1  #important for SAPT in psi4, default
}

set PROPERTIES_ORIGIN ["COM"]
properties('MP2/aug-cc-pvtz', properties = ['dipole'])
--------------------------------------------------------------------------

    Molecular point group: c1
  Charge       = 0
  Multiplicity = 1
  Basis Set: AUG-CC-PVTZ
    Blend: AUG-CC-PVTZ
  Basis Set: (AUG-CC-PVTZ AUX)
    Blend: AUG-CC-PVTZ-JKFIT

    Orbital Energies [Eh]
    ---------------------

    Doubly Occupied:

       1A    -20.643091     2A    -20.585466     3A    -20.583655
       4A    -11.416927     5A    -11.360742     6A    -11.251296
       7A    -11.226163     8A     -1.486490     9A     -1.406522
      10A     -1.390433    11A     -1.072075    12A     -0.962765
      13A     -0.879971    14A     -0.769872    15A     -0.731882
      16A     -0.711779    17A     -0.665152    18A     -0.652296
      19A     -0.629342    20A     -0.619843    21A     -0.545263
      22A     -0.537265    23A     -0.526130    24A     -0.521051
      25A     -0.506087    26A     -0.496999    27A     -0.434009

  @DF-RHF Final Energy:  -379.70448664898339

   => Energetics <=

    Nuclear Repulsion Energy =            297.0979604683194566
    One-Electron Energy =               -1108.3797622362696984
    Two-Electron Energy =                 431.5773151189668511
    Total Energy =                       -379.7044866489833908
  Basis Set: (AUG-CC-PVTZ AUX)
    Blend: AUG-CC-PVTZ-RI
    Molecular point group: c1

    Geometry (in Angstrom), charge = 0, multiplicity = 1:

       Center              X                  Y                   Z               Mass
    ------------   -----------------  -----------------  -----------------  -----------------
         O            0.459719025324     1.509549377173    -0.000647826154    15.994914619570
         O           -2.089063974676     0.719904377173     0.000773173846    15.994914619570
         O           -1.330211674676    -1.467229522827    -0.000832426154    15.994914619570
         C            1.358221025324    -0.738270622827     0.000855173846    12.000000000000
         C            2.747635025324    -0.118894622827    -0.000087826154    12.000000000000
         C            0.267553025324     0.300170377173    -0.000005826154    12.000000000000
         C           -1.162956974676    -0.257525622827    -0.000068826154    12.000000000000
         H            1.200794025324    -1.390438622827    -0.867240826154     1.007825032230
         H            1.201184025324    -1.388361622827     0.870615173846     1.007825032230
         H            2.893623025324     0.508164377173    -0.882010826154     1.007825032230
         H            2.893914025324     0.510210377173     0.880321173846     1.007825032230
         H            3.510793025324    -0.900864622827     0.000676173846     1.007825032230
         H           -2.956299974676     0.262594377173     0.000613173846     1.007825032230

  Basis Set: AUG-CC-PVTZ
    Blend: AUG-CC-PVTZ
  Basis Set: (AUG-CC-PVTZ AUX)
    Blend: AUG-CC-PVTZ-JKFIT
	 Reference Energy          =    -379.7044866489833908 [Eh]
	 Singles Energy            =      -0.0000000000000000 [Eh]
	 Same-Spin Energy          =      -0.3659445975827492 [Eh]
	 Opposite-Spin Energy      =      -1.1355498552774428 [Eh]
	 Correlation Energy        =      -1.5014944528601919 [Eh]
	 Total Energy              =    -381.2059811018435767 [Eh]

	 ================> DF-SCS-MP2 Energies <==================
	-----------------------------------------------------------
	 SCS Same-Spin Scale       =       0.3333333333333333 [-]
	 SCS Opposite-Spin Scale   =       1.2000000000000000 [-]
	 SCS Same-Spin Energy      =      -0.1219815325275831 [Eh]
	 SCS Opposite-Spin Energy  =      -1.3626598263329313 [Eh]
	 SCS Correlation Energy    =      -1.4846413588605143 [Eh]
	 SCS Total Energy          =    -381.1891280078439195 [Eh]
	-----------------------------------------------------------

  Dipole Moment: [D]
     X:    -0.3455      Y:    -1.1859      Z:     0.0025     Total:     1.2352

*** Psi4 exiting successfully. Buy a developer a beer!
