                               Psi4 1.3.2 release

  ==> Input File <==

--------------------------------------------------------------------------
#psi4
#
memory 32 gb

molecule  {
0 1
  O        0.3919700     1.5293850    -0.0006790
  O       -2.1568130     0.7397400     0.0007420
  O       -1.5646913    -1.4123438    -0.0008048
  C        1.2904720    -0.7184350     0.0008240
  C        2.6798860    -0.0990590    -0.0001190
  C        0.1998040     0.3200060    -0.0000370
  C       -1.2307060    -0.2376900    -0.0001000
  H        1.1330450    -1.3706030    -0.8672720
  H        1.1334350    -1.3685260     0.8705840
  H        2.8258740     0.5280000    -0.8820420
  H        2.8261650     0.5300460     0.8802900
  H        3.4430440    -0.8810290     0.0006450
  H       -3.0240490     0.2824300     0.0005820
units angstrom
no_reorient  #important for SAPT in psi4, default
symmetry c1  #important for SAPT in psi4, default
}

set PROPERTIES_ORIGIN ["COM"]
properties('MP2/aug-cc-pvtz', properties = ['dipole'])
--------------------------------------------------------------------------

    Molecular point group: c1
  Charge       = 0
  Multiplicity = 1
  Basis Set: AUG-CC-PVTZ
    Blend: AUG-CC-PVTZ
  Basis Set: (AUG-CC-PVTZ AUX)
    Blend: AUG-CC-PVTZ-JKFIT

    Orbital Energies [Eh]
    ---------------------

    Doubly Occupied:

       1A    -20.629542     2A    -20.591098     3A    -20.581961
       4A    -11.415277     5A    -11.370069     6A    -11.257103
       7A    -11.230307     8A     -1.485742     9A     -1.413240
      10A     -1.376423    11A     -1.078318    12A     -0.968020
      13A     -0.880429    14A     -0.769238    15A     -0.727280
      16A     -0.712743    17A     -0.664041    18A     -0.656269
      19A     -0.630978    20A     -0.618995    21A     -0.549207
      22A     -0.540389    23A     -0.531407    24A     -0.518731
      25A     -0.504310    26A     -0.497407    27A     -0.440048

  @DF-RHF Final Energy:  -379.70487727433238

   => Energetics <=

    Nuclear Repulsion Energy =            296.2742615198684462
    One-Electron Energy =               -1106.6811365236742404
    Two-Electron Energy =                 430.7019977294734190
    Total Energy =                       -379.7048772743323752
  Basis Set: (AUG-CC-PVTZ AUX)
    Blend: AUG-CC-PVTZ-RI
    Molecular point group: c1

    Geometry (in Angstrom), charge = 0, multiplicity = 1:

       Center              X                  Y                   Z               Mass
    ------------   -----------------  -----------------  -----------------  -----------------
         O            0.485856410734     1.504054777067    -0.000657043888    15.994914619570
         O           -2.062926589266     0.714409777067     0.000763956112    15.994914619570
         O           -1.470804889266    -1.437674022933    -0.000782843888    15.994914619570
         C            1.384358410734    -0.743765222933     0.000845956112    12.000000000000
         C            2.773772410734    -0.124389222933    -0.000097043888    12.000000000000
         C            0.293690410734     0.294675777067    -0.000015043888    12.000000000000
         C           -1.136819589266    -0.263020222933    -0.000078043888    12.000000000000
         H            1.226931410734    -1.395933222933    -0.867250043888     1.007825032230
         H            1.227321410734    -1.393856222933     0.870605956112     1.007825032230
         H            2.919760410734     0.502669777067    -0.882020043888     1.007825032230
         H            2.920051410734     0.504715777067     0.880311956112     1.007825032230
         H            3.536930410734    -0.906359222933     0.000666956112     1.007825032230
         H           -2.930162589266     0.257099777067     0.000603956112     1.007825032230

  Basis Set: AUG-CC-PVTZ
    Blend: AUG-CC-PVTZ
  Basis Set: (AUG-CC-PVTZ AUX)
    Blend: AUG-CC-PVTZ-JKFIT
	 Reference Energy          =    -379.7048772743323752 [Eh]
	 Singles Energy            =      -0.0000000000000000 [Eh]
	 Same-Spin Energy          =      -0.3657087314469737 [Eh]
	 Opposite-Spin Energy      =      -1.1350752497483074 [Eh]
	 Correlation Energy        =      -1.5007839811952812 [Eh]
	 Total Energy              =    -381.2056612555276729 [Eh]

	 ================> DF-SCS-MP2 Energies <==================
	-----------------------------------------------------------
	 SCS Same-Spin Scale       =       0.3333333333333333 [-]
	 SCS Opposite-Spin Scale   =       1.2000000000000000 [-]
	 SCS Same-Spin Energy      =      -0.1219029104823246 [Eh]
	 SCS Opposite-Spin Energy  =      -1.3620902996979689 [Eh]
	 SCS Correlation Energy    =      -1.4839932101802935 [Eh]
	 SCS Total Energy          =    -381.1888704845126767 [Eh]
	-----------------------------------------------------------

  Dipole Moment: [D]
     X:     0.2183      Y:    -1.1921      Z:     0.0024     Total:     1.2119

*** Psi4 exiting successfully. Buy a developer a beer!
