                               Psi4 1.3.2 release

  ==> Input File <==

--------------------------------------------------------------------------
#psi4
#
memory 32 gb

molecule  {
0 1
  O        0.3919700     1.5293850    -0.0006790
  O       -2.1568130     0.7397400     0.0007420
  O       -1.4819380    -1.4327800    -0.0008360
  C        1.2153772    -0.7919866     0.0008453
  C        2.6798860    -0.0990590    -0.0001190
  C        0.1998040     0.3200060    -0.0000370
  C       -1.2307060    -0.2376900    -0.0001000
  H        1.1330450    -1.3706030    -0.8672720
  H        1.1334350    -1.3685260     0.8705840
  H        2.8258740     0.5280000    -0.8820420
  H        2.8261650     0.5300460     0.8802900
  H        3.4430440    -0.8810290     0.0006450
  H       -3.0240490     0.2824300     0.0005820
units angstrom
no_reorient  #important for SAPT in psi4, default
symmetry c1  #important for SAPT in psi4, default
}

set PROPERTIES_ORIGIN ["COM"]
properties('MP2/aug-cc-pvtz', properties = ['dipole'])
--------------------------------------------------------------------------

    Molecular point group: c1
  Charge       = 0
  Multiplicity = 1
  Basis Set: AUG-CC-PVTZ
    Blend: AUG-CC-PVTZ
  Basis Set: (AUG-CC-PVTZ AUX)
    Blend: AUG-CC-PVTZ-JKFIT

    Orbital Energies [Eh]
    ---------------------

    Doubly Occupied:

       1A    -20.634841     2A    -20.591528     3A    -20.582982
       4A    -11.412685     5A    -11.367520     6A    -11.250500
       7A    -11.231796     8A     -1.484723     9A     -1.411410
      10A     -1.382792    11A     -1.069241    12A     -0.960085
      13A     -0.881245    14A     -0.774022    15A     -0.728880
      16A     -0.711629    17A     -0.669343    18A     -0.655869
      19A     -0.635438    20A     -0.618545    21A     -0.540422
      22A     -0.539028    23A     -0.526196    24A     -0.518652
      25A     -0.501613    26A     -0.500434    27A     -0.437460

  @DF-RHF Final Energy:  -379.69591925436742

   => Energetics <=

    Nuclear Repulsion Energy =            296.3436780251925597
    One-Electron Energy =               -1106.8414383689894294
    Two-Electron Energy =                 430.8018410894295016
    Total Energy =                       -379.6959192543674249
  Basis Set: (AUG-CC-PVTZ AUX)
    Blend: AUG-CC-PVTZ-RI
    Molecular point group: c1

    Geometry (in Angstrom), charge = 0, multiplicity = 1:

       Center              X                  Y                   Z               Mass
    ------------   -----------------  -----------------  -----------------  -----------------
         O            0.481715595746     1.515908882651    -0.000654657950    15.994914619570
         O           -2.067067404254     0.726263882651     0.000766342050    15.994914619570
         O           -1.392192404254    -1.446256117349    -0.000811657950    15.994914619570
         C            1.305122795746    -0.805462717349     0.000869642050    12.000000000000
         C            2.769631595746    -0.112535117349    -0.000094657950    12.000000000000
         C            0.289549595746     0.306529882651    -0.000012657950    12.000000000000
         C           -1.140960404254    -0.251166117349    -0.000075657950    12.000000000000
         H            1.222790595746    -1.384079117349    -0.867247657950     1.007825032230
         H            1.223180595746    -1.382002117349     0.870608342050     1.007825032230
         H            2.915619595746     0.514523882651    -0.882017657950     1.007825032230
         H            2.915910595746     0.516569882651     0.880314342050     1.007825032230
         H            3.532789595746    -0.894505117349     0.000669342050     1.007825032230
         H           -2.934303404254     0.268953882651     0.000606342050     1.007825032230

  Basis Set: AUG-CC-PVTZ
    Blend: AUG-CC-PVTZ
  Basis Set: (AUG-CC-PVTZ AUX)
    Blend: AUG-CC-PVTZ-JKFIT
	 Reference Energy          =    -379.6959192543674249 [Eh]
	 Singles Energy            =      -0.0000000000000000 [Eh]
	 Same-Spin Energy          =      -0.3655164960741314 [Eh]
	 Opposite-Spin Energy      =      -1.1356241433069436 [Eh]
	 Correlation Energy        =      -1.5011406393810751 [Eh]
	 Total Energy              =    -381.1970598937484738 [Eh]

	 ================> DF-SCS-MP2 Energies <==================
	-----------------------------------------------------------
	 SCS Same-Spin Scale       =       0.3333333333333333 [-]
	 SCS Opposite-Spin Scale   =       1.2000000000000000 [-]
	 SCS Same-Spin Energy      =      -0.1218388320247105 [Eh]
	 SCS Opposite-Spin Energy  =      -1.3627489719683323 [Eh]
	 SCS Correlation Energy    =      -1.4845878039930427 [Eh]
	 SCS Total Energy          =    -381.1805070583604902 [Eh]
	-----------------------------------------------------------

  Dipole Moment: [D]
     X:    -0.0945      Y:    -1.1459      Z:     0.0025     Total:     1.1498

*** Psi4 exiting successfully. Buy a developer a beer!
