                               Psi4 1.3.2 release

  ==> Input File <==

--------------------------------------------------------------------------
#psi4
#
memory 32 gb

molecule  {
0 1
  O        0.3919700     1.5293850    -0.0006790
  O       -2.1568130     0.7397400     0.0007420
  O       -1.5027569    -1.4282134    -0.0008285
  C        1.2904720    -0.7184350     0.0008240
  C        2.6798860    -0.0990590    -0.0001190
  C        0.1998040     0.3200060    -0.0000370
  C       -1.2307060    -0.2376900    -0.0001000
  H        1.1330450    -1.3706030    -0.8672720
  H        1.1334350    -1.3685260     0.8705840
  H        2.8258740     0.5280000    -0.8820420
  H        2.8261650     0.5300460     0.8802900
  H        3.4430440    -0.8810290     0.0006450
  H       -3.0240490     0.2824300     0.0005820
units angstrom
no_reorient  #important for SAPT in psi4, default
symmetry c1  #important for SAPT in psi4, default
}

set PROPERTIES_ORIGIN ["COM"]
properties('MP2/aug-cc-pvtz', properties = ['dipole'])
--------------------------------------------------------------------------

    Molecular point group: c1
  Charge       = 0
  Multiplicity = 1
  Basis Set: AUG-CC-PVTZ
    Blend: AUG-CC-PVTZ
  Basis Set: (AUG-CC-PVTZ AUX)
    Blend: AUG-CC-PVTZ-JKFIT

    Orbital Energies [Eh]
    ---------------------

    Doubly Occupied:

       1A    -20.634793     2A    -20.588365     3A    -20.583409
       4A    -11.415863     5A    -11.366617     6A    -11.254967
       7A    -11.228801     8A     -1.485808     9A     -1.410771
      10A     -1.381925    11A     -1.076025    12A     -0.966078
      13A     -0.880214    14A     -0.769489    15A     -0.728908
      16A     -0.712700    17A     -0.664267    18A     -0.654785
      19A     -0.630516    20A     -0.619171    21A     -0.547726
      22A     -0.539122    23A     -0.529447    24A     -0.520208
      25A     -0.504024    26A     -0.498561    27A     -0.438005

  @DF-RHF Final Energy:  -379.70602350068100

   => Energetics <=

    Nuclear Repulsion Energy =            296.5367029375931338
    One-Electron Energy =               -1107.2243234908448812
    Two-Electron Energy =                 430.9815970525706916
    Total Energy =                       -379.7060235006809989
  Basis Set: (AUG-CC-PVTZ AUX)
    Blend: AUG-CC-PVTZ-RI
    Molecular point group: c1

    Geometry (in Angstrom), charge = 0, multiplicity = 1:

       Center              X                  Y                   Z               Mass
    ------------   -----------------  -----------------  -----------------  -----------------
         O            0.476147315445     1.506542561862    -0.000653328577    15.994914619570
         O           -2.072635684555     0.716897561862     0.000767671423    15.994914619570
         O           -1.418579584555    -1.451055838138    -0.000802828577    15.994914619570
         C            1.374649315445    -0.741277438138     0.000849671423    12.000000000000
         C            2.764063315445    -0.121901438138    -0.000093328577    12.000000000000
         C            0.283981315445     0.297163561862    -0.000011328577    12.000000000000
         C           -1.146528684555    -0.260532438138    -0.000074328577    12.000000000000
         H            1.217222315445    -1.393445438138    -0.867246328577     1.007825032230
         H            1.217612315445    -1.391368438138     0.870609671423     1.007825032230
         H            2.910051315445     0.505157561862    -0.882016328577     1.007825032230
         H            2.910342315445     0.507203561862     0.880315671423     1.007825032230
         H            3.527221315445    -0.903871438138     0.000670671423     1.007825032230
         H           -2.939871684555     0.259587561862     0.000607671423     1.007825032230

  Basis Set: AUG-CC-PVTZ
    Blend: AUG-CC-PVTZ
  Basis Set: (AUG-CC-PVTZ AUX)
    Blend: AUG-CC-PVTZ-JKFIT
	 Reference Energy          =    -379.7060235006809989 [Eh]
	 Singles Energy            =      -0.0000000000000000 [Eh]
	 Same-Spin Energy          =      -0.3657469827658494 [Eh]
	 Opposite-Spin Energy      =      -1.1351555940754157 [Eh]
	 Correlation Energy        =      -1.5009025768412649 [Eh]
	 Total Energy              =    -381.2069260775222688 [Eh]

	 ================> DF-SCS-MP2 Energies <==================
	-----------------------------------------------------------
	 SCS Same-Spin Scale       =       0.3333333333333333 [-]
	 SCS Opposite-Spin Scale   =       1.2000000000000000 [-]
	 SCS Same-Spin Energy      =      -0.1219156609219498 [Eh]
	 SCS Opposite-Spin Energy  =      -1.3621867128904988 [Eh]
	 SCS Correlation Energy    =      -1.4841023738124486 [Eh]
	 SCS Total Energy          =    -381.1901258744934466 [Eh]
	-----------------------------------------------------------

  Dipole Moment: [D]
     X:     0.0080      Y:    -1.1836      Z:     0.0025     Total:     1.1836

*** Psi4 exiting successfully. Buy a developer a beer!
