                               Psi4 1.3.2 release

  ==> Input File <==

--------------------------------------------------------------------------
#psi4
#
memory 32 gb

molecule  {
0 1
  O        0.3919700     1.5293850    -0.0006790
  O       -2.1568130     0.7397400     0.0007420
  O       -1.4819380    -1.4327800    -0.0008360
  C        1.2904720    -0.7184350     0.0008240
  C        2.6798860    -0.0990590    -0.0001190
  C        0.2206017     0.3405555     0.0436469
  C       -1.2307060    -0.2376900    -0.0001000
  H        1.1330450    -1.3706030    -0.8672720
  H        1.1334350    -1.3685260     0.8705840
  H        2.8258740     0.5280000    -0.8820420
  H        2.8261650     0.5300460     0.8802900
  H        3.4430440    -0.8810290     0.0006450
  H       -3.0240490     0.2824300     0.0005820
units angstrom
no_reorient  #important for SAPT in psi4, default
symmetry c1  #important for SAPT in psi4, default
}

set PROPERTIES_ORIGIN ["COM"]
properties('MP2/aug-cc-pvtz', properties = ['dipole'])
--------------------------------------------------------------------------

    Molecular point group: c1
  Charge       = 0
  Multiplicity = 1
  Basis Set: AUG-CC-PVTZ
    Blend: AUG-CC-PVTZ
  Basis Set: (AUG-CC-PVTZ AUX)
    Blend: AUG-CC-PVTZ-JKFIT

    Orbital Energies [Eh]
    ---------------------

    Doubly Occupied:

       1A    -20.634886     2A    -20.587947     3A    -20.581350
       4A    -11.413534     5A    -11.364446     6A    -11.253655
       7A    -11.228223     8A     -1.483975     9A     -1.424623
      10A     -1.381274    11A     -1.075251    12A     -0.958143
      13A     -0.877800    14A     -0.767247    15A     -0.728439
      16A     -0.713199    17A     -0.663445    18A     -0.659854
      19A     -0.630055    20A     -0.618929    21A     -0.548348
      22A     -0.544494    23A     -0.529647    24A     -0.520430
      25A     -0.506642    26A     -0.498076    27A     -0.431431

  @DF-RHF Final Energy:  -379.70714666659819

   => Energetics <=

    Nuclear Repulsion Energy =            296.6596225980957229
    One-Electron Energy =               -1107.4828574769344414
    Two-Electron Energy =                 431.1160882122405837
    Total Energy =                       -379.7071466665981916
  Basis Set: (AUG-CC-PVTZ AUX)
    Blend: AUG-CC-PVTZ-RI
    Molecular point group: c1

    Geometry (in Angstrom), charge = 0, multiplicity = 1:

       Center              X                  Y                   Z               Mass
    ------------   -----------------  -----------------  -----------------  -----------------
         O            0.470437629515     1.504841603895    -0.005789838786    15.994914619570
         O           -2.078345370485     0.715196603895    -0.004368838786    15.994914619570
         O           -1.403470370485    -1.457323396105    -0.005946838786    15.994914619570
         C            1.368939629515    -0.742978396105    -0.004286838786    12.000000000000
         C            2.758353629515    -0.123602396105    -0.005229838786    12.000000000000
         C            0.299069329515     0.316012103895     0.038536061214    12.000000000000
         C           -1.152238370485    -0.262233396105    -0.005210838786    12.000000000000
         H            1.211512629515    -1.395146396105    -0.872382838786     1.007825032230
         H            1.211902629515    -1.393069396105     0.865473161214     1.007825032230
         H            2.904341629515     0.503456603895    -0.887152838786     1.007825032230
         H            2.904632629515     0.505502603895     0.875179161214     1.007825032230
         H            3.521511629515    -0.905572396105    -0.004465838786     1.007825032230
         H           -2.945581370485     0.257886603895    -0.004528838786     1.007825032230

  Basis Set: AUG-CC-PVTZ
    Blend: AUG-CC-PVTZ
  Basis Set: (AUG-CC-PVTZ AUX)
    Blend: AUG-CC-PVTZ-JKFIT
	 Reference Energy          =    -379.7071466665981916 [Eh]
	 Singles Energy            =      -0.0000000000000000 [Eh]
	 Same-Spin Energy          =      -0.3651533593627678 [Eh]
	 Opposite-Spin Energy      =      -1.1336896740929838 [Eh]
	 Correlation Energy        =      -1.4988430334557516 [Eh]
	 Total Energy              =    -381.2059897000539195 [Eh]

	 ================> DF-SCS-MP2 Energies <==================
	-----------------------------------------------------------
	 SCS Same-Spin Scale       =       0.3333333333333333 [-]
	 SCS Opposite-Spin Scale   =       1.2000000000000000 [-]
	 SCS Same-Spin Energy      =      -0.1217177864542559 [Eh]
	 SCS Opposite-Spin Energy  =      -1.3604276089115805 [Eh]
	 SCS Correlation Energy    =      -1.4821453953658366 [Eh]
	 SCS Total Energy          =    -381.1892920619640108 [Eh]
	-----------------------------------------------------------

  Dipole Moment: [D]
     X:     0.0153      Y:    -1.1100      Z:     0.0420     Total:     1.1109

*** Psi4 exiting successfully. Buy a developer a beer!
