                               Psi4 1.3.2 release

  ==> Input File <==

--------------------------------------------------------------------------
#psi4
#
memory 32 gb

molecule  {
0 1
  O        0.3919700     1.5293850    -0.0006790
  O       -2.1568130     0.7397400     0.0007420
  O       -1.4819380    -1.4327800    -0.0008360
  C        1.2904720    -0.7184350     0.0008240
  C        2.6574237    -0.0509465    -0.0001648
  C        0.1998040     0.3200060    -0.0000370
  C       -1.2307060    -0.2376900    -0.0001000
  H        1.1330450    -1.3706030    -0.8672720
  H        1.1334350    -1.3685260     0.8705840
  H        2.8258740     0.5280000    -0.8820420
  H        2.8261650     0.5300460     0.8802900
  H        3.4430440    -0.8810290     0.0006450
  H       -3.0240490     0.2824300     0.0005820
units angstrom
no_reorient  #important for SAPT in psi4, default
symmetry c1  #important for SAPT in psi4, default
}

set PROPERTIES_ORIGIN ["COM"]
properties('MP2/aug-cc-pvtz', properties = ['dipole'])
--------------------------------------------------------------------------

    Molecular point group: c1
  Charge       = 0
  Multiplicity = 1
  Basis Set: AUG-CC-PVTZ
    Blend: AUG-CC-PVTZ
  Basis Set: (AUG-CC-PVTZ AUX)
    Blend: AUG-CC-PVTZ-JKFIT

    Orbital Energies [Eh]
    ---------------------

    Doubly Occupied:

       1A    -20.636227     2A    -20.587296     3A    -20.583760
       4A    -11.415551     5A    -11.364651     6A    -11.254744
       7A    -11.228736     8A     -1.485677     9A     -1.409992
      10A     -1.383539    11A     -1.075823    12A     -0.965108
      13A     -0.879941    14A     -0.769839    15A     -0.729342
      16A     -0.712280    17A     -0.665352    18A     -0.653158
      19A     -0.633752    20A     -0.619257    21A     -0.545271
      22A     -0.538496    23A     -0.527748    24A     -0.516788
      25A     -0.506163    26A     -0.501416    27A     -0.436195

  @DF-RHF Final Energy:  -379.70304723810926

   => Energetics <=

    Nuclear Repulsion Energy =            296.9307231739286408
    One-Electron Energy =               -1108.0153370198215725
    Two-Electron Energy =                 431.3815666077836681
    Total Energy =                       -379.7030472381092636
  Basis Set: (AUG-CC-PVTZ AUX)
    Blend: AUG-CC-PVTZ-RI
    Molecular point group: c1

    Geometry (in Angstrom), charge = 0, multiplicity = 1:

       Center              X                  Y                   Z               Mass
    ------------   -----------------  -----------------  -----------------  -----------------
         O            0.475525460358     1.501599905293    -0.000646766284    15.994914619570
         O           -2.073257539642     0.711954905293     0.000774233716    15.994914619570
         O           -1.398382539642    -1.460565094707    -0.000803766284    15.994914619570
         C            1.374027460358    -0.746220094707     0.000856233716    12.000000000000
         C            2.740979160358    -0.078731594707    -0.000132566284    12.000000000000
         C            0.283359460358     0.292220905293    -0.000004766284    12.000000000000
         C           -1.147150539642    -0.265475094707    -0.000067766284    12.000000000000
         H            1.216600460358    -1.398388094707    -0.867239766284     1.007825032230
         H            1.216990460358    -1.396311094707     0.870616233716     1.007825032230
         H            2.909429460358     0.500214905293    -0.882009766284     1.007825032230
         H            2.909720460358     0.502260905293     0.880322233716     1.007825032230
         H            3.526599460358    -0.908814094707     0.000677233716     1.007825032230
         H           -2.940493539642     0.254644905293     0.000614233716     1.007825032230

  Basis Set: AUG-CC-PVTZ
    Blend: AUG-CC-PVTZ
  Basis Set: (AUG-CC-PVTZ AUX)
    Blend: AUG-CC-PVTZ-JKFIT
	 Reference Energy          =    -379.7030472381092636 [Eh]
	 Singles Energy            =      -0.0000000000000000 [Eh]
	 Same-Spin Energy          =      -0.3658425708116608 [Eh]
	 Opposite-Spin Energy      =      -1.1353409932606291 [Eh]
	 Correlation Energy        =      -1.5011835640722899 [Eh]
	 Total Energy              =    -381.2042308021815415 [Eh]

	 ================> DF-SCS-MP2 Energies <==================
	-----------------------------------------------------------
	 SCS Same-Spin Scale       =       0.3333333333333333 [-]
	 SCS Opposite-Spin Scale   =       1.2000000000000000 [-]
	 SCS Same-Spin Energy      =      -0.1219475236038869 [Eh]
	 SCS Opposite-Spin Energy  =      -1.3624091919127548 [Eh]
	 SCS Correlation Energy    =      -1.4843567155166417 [Eh]
	 SCS Total Energy          =    -381.1874039536259033 [Eh]
	-----------------------------------------------------------

  Dipole Moment: [D]
     X:    -0.0717      Y:    -1.1612      Z:     0.0024     Total:     1.1634

*** Psi4 exiting successfully. Buy a developer a beer!
