                               Psi4 1.3.2 release

  ==> Input File <==

--------------------------------------------------------------------------
#psi4
#
memory 32 gb

molecule  {
0 1
  O        0.3919700     1.5293850    -0.0006790
  O       -2.1568130     0.7397400     0.0007420
  O       -1.4819380    -1.4327800    -0.0008360
  C        1.2904720    -0.7184350     0.0008240
  C        2.6798860    -0.0990590    -0.0001190
  C        0.1998040     0.3200060    -0.0000370
  C       -1.3238759    -0.2740131    -0.0001041
  H        1.1330450    -1.3706030    -0.8672720
  H        1.1334350    -1.3685260     0.8705840
  H        2.8258740     0.5280000    -0.8820420
  H        2.8261650     0.5300460     0.8802900
  H        3.4430440    -0.8810290     0.0006450
  H       -3.0240490     0.2824300     0.0005820
units angstrom
no_reorient  #important for SAPT in psi4, default
symmetry c1  #important for SAPT in psi4, default
}

set PROPERTIES_ORIGIN ["COM"]
properties('MP2/aug-cc-pvtz', properties = ['dipole'])
--------------------------------------------------------------------------

    Molecular point group: c1
  Charge       = 0
  Multiplicity = 1
  Basis Set: AUG-CC-PVTZ
    Blend: AUG-CC-PVTZ
  Basis Set: (AUG-CC-PVTZ AUX)
    Blend: AUG-CC-PVTZ-JKFIT

    Orbital Energies [Eh]
    ---------------------

    Doubly Occupied:

       1A    -20.645910     2A    -20.584708     3A    -20.576095
       4A    -11.410263     5A    -11.357373     6A    -11.249615
       7A    -11.224772     8A     -1.510688     9A     -1.419500
      10A     -1.398813    11A     -1.067542    12A     -0.941291
      13A     -0.875919    14A     -0.765058    15A     -0.743028
      16A     -0.712159    17A     -0.675236    18A     -0.647456
      19A     -0.632672    20A     -0.626247    21A     -0.540754
      22A     -0.534026    23A     -0.533506    24A     -0.521918
      25A     -0.519623    26A     -0.495126    27A     -0.414521

  @DF-RHF Final Energy:  -379.70065489768695

   => Energetics <=

    Nuclear Repulsion Energy =            296.5308617179890689
    One-Electron Energy =               -1107.2153991171796861
    Two-Electron Energy =                 430.9838825015036718
    Total Energy =                       -379.7006548976869453
  Basis Set: (AUG-CC-PVTZ AUX)
    Blend: AUG-CC-PVTZ-RI
    Molecular point group: c1

    Geometry (in Angstrom), charge = 0, multiplicity = 1:

       Center              X                  Y                   Z               Mass
    ------------   -----------------  -----------------  -----------------  -----------------
         O            0.483841417551     1.511530419624    -0.000651670643    15.994914619570
         O           -2.064941582449     0.721885419624     0.000769329357    15.994914619570
         O           -1.390066582449    -1.450634580376    -0.000808670643    15.994914619570
         C            1.382343417551    -0.736289580376     0.000851329357    12.000000000000
         C            2.771757417551    -0.116913580376    -0.000091670643    12.000000000000
         C            0.291675417551     0.302151419624    -0.000009670643    12.000000000000
         C           -1.232004482449    -0.291867680376    -0.000076770643    12.000000000000
         H            1.224916417551    -1.388457580376    -0.867244670643     1.007825032230
         H            1.225306417551    -1.386380580376     0.870611329357     1.007825032230
         H            2.917745417551     0.510145419624    -0.882014670643     1.007825032230
         H            2.918036417551     0.512191419624     0.880317329357     1.007825032230
         H            3.534915417551    -0.898883580376     0.000672329357     1.007825032230
         H           -2.932177582449     0.264575419624     0.000609329357     1.007825032230

  Basis Set: AUG-CC-PVTZ
    Blend: AUG-CC-PVTZ
  Basis Set: (AUG-CC-PVTZ AUX)
    Blend: AUG-CC-PVTZ-JKFIT
	 Reference Energy          =    -379.7006548976869453 [Eh]
	 Singles Energy            =      -0.0000000000000000 [Eh]
	 Same-Spin Energy          =      -0.3646919943180835 [Eh]
	 Opposite-Spin Energy      =      -1.1321215542309133 [Eh]
	 Correlation Energy        =      -1.4968135485489968 [Eh]
	 Total Energy              =    -381.1974684462359164 [Eh]

	 ================> DF-SCS-MP2 Energies <==================
	-----------------------------------------------------------
	 SCS Same-Spin Scale       =       0.3333333333333333 [-]
	 SCS Opposite-Spin Scale   =       1.2000000000000000 [-]
	 SCS Same-Spin Energy      =      -0.1215639981060278 [Eh]
	 SCS Opposite-Spin Energy  =      -1.3585458650770958 [Eh]
	 SCS Correlation Energy    =      -1.4801098631831238 [Eh]
	 SCS Total Energy          =    -381.1807647608700904 [Eh]
	-----------------------------------------------------------

  Dipole Moment: [D]
     X:    -0.5115      Y:    -1.2852      Z:     0.0025     Total:     1.3832

*** Psi4 exiting successfully. Buy a developer a beer!
