                               Psi4 1.3.2 release

  ==> Input File <==

--------------------------------------------------------------------------
#psi4
#
memory 32 gb

molecule  {
0 1
  O        0.3919700     1.5293850    -0.0006790
  O       -2.1568130     0.7397400     0.0007420
  O       -1.4819380    -1.4327800    -0.0008360
  C        1.3602532    -0.6398243     0.0007985
  C        2.6798860    -0.0990590    -0.0001190
  C        0.1998040     0.3200060    -0.0000370
  C       -1.2307060    -0.2376900    -0.0001000
  H        1.1330450    -1.3706030    -0.8672720
  H        1.1334350    -1.3685260     0.8705840
  H        2.8258740     0.5280000    -0.8820420
  H        2.8261650     0.5300460     0.8802900
  H        3.4430440    -0.8810290     0.0006450
  H       -3.0240490     0.2824300     0.0005820
units angstrom
no_reorient  #important for SAPT in psi4, default
symmetry c1  #important for SAPT in psi4, default
}

set PROPERTIES_ORIGIN ["COM"]
properties('MP2/aug-cc-pvtz', properties = ['dipole'])
--------------------------------------------------------------------------

    Molecular point group: c1
  Charge       = 0
  Multiplicity = 1
  Basis Set: AUG-CC-PVTZ
    Blend: AUG-CC-PVTZ
  Basis Set: (AUG-CC-PVTZ AUX)
    Blend: AUG-CC-PVTZ-JKFIT

    Orbital Energies [Eh]
    ---------------------

    Doubly Occupied:

       1A    -20.638259     2A    -20.584851     3A    -20.583133
       4A    -11.419688     5A    -11.364461     6A    -11.260715
       7A    -11.224537     8A     -1.487221     9A     -1.408740
      10A     -1.384777    11A     -1.087124    12A     -0.970291
      13A     -0.879429    14A     -0.765618    15A     -0.729994
      16A     -0.712989    17A     -0.663041    18A     -0.653954
      19A     -0.628514    20A     -0.621300    21A     -0.572794
      22A     -0.538761    23A     -0.532650    24A     -0.516233
      25A     -0.503723    26A     -0.475752    27A     -0.435194

  @DF-RHF Final Energy:  -379.69266623228748

   => Energetics <=

    Nuclear Repulsion Energy =            297.0561795965905958
    One-Electron Energy =               -1108.2102054188012517
    Two-Electron Energy =                 431.4613595899231768
    Total Energy =                       -379.6926662322874790
  Basis Set: (AUG-CC-PVTZ AUX)
    Blend: AUG-CC-PVTZ-RI
    Molecular point group: c1

    Geometry (in Angstrom), charge = 0, multiplicity = 1:

       Center              X                  Y                   Z               Mass
    ------------   -----------------  -----------------  -----------------  -----------------
         O            0.464676654894     1.498012996309    -0.000649153778    15.994914619570
         O           -2.084106345106     0.708367996309     0.000771846222    15.994914619570
         O           -1.409231345106    -1.464152003691    -0.000806153778    15.994914619570
         C            1.432959854894    -0.671196303691     0.000828346222    12.000000000000
         C            2.752592654894    -0.130431003691    -0.000089153778    12.000000000000
         C            0.272510654894     0.288633996309    -0.000007153778    12.000000000000
         C           -1.157999345106    -0.269062003691    -0.000070153778    12.000000000000
         H            1.205751654894    -1.401975003691    -0.867242153778     1.007825032230
         H            1.206141654894    -1.399898003691     0.870613846222     1.007825032230
         H            2.898580654894     0.496627996309    -0.882012153778     1.007825032230
         H            2.898871654894     0.498673996309     0.880319846222     1.007825032230
         H            3.515750654894    -0.912401003691     0.000674846222     1.007825032230
         H           -2.951342345106     0.251057996309     0.000611846222     1.007825032230

  Basis Set: AUG-CC-PVTZ
    Blend: AUG-CC-PVTZ
  Basis Set: (AUG-CC-PVTZ AUX)
    Blend: AUG-CC-PVTZ-JKFIT
	 Reference Energy          =    -379.6926662322874790 [Eh]
	 Singles Energy            =      -0.0000000000000000 [Eh]
	 Same-Spin Energy          =      -0.3668469368558611 [Eh]
	 Opposite-Spin Energy      =      -1.1364585036013202 [Eh]
	 Correlation Energy        =      -1.5033054404571813 [Eh]
	 Total Energy              =    -381.1959716727446335 [Eh]

	 ================> DF-SCS-MP2 Energies <==================
	-----------------------------------------------------------
	 SCS Same-Spin Scale       =       0.3333333333333333 [-]
	 SCS Opposite-Spin Scale   =       1.2000000000000000 [-]
	 SCS Same-Spin Energy      =      -0.1222823122852870 [Eh]
	 SCS Opposite-Spin Energy  =      -1.3637502043215841 [Eh]
	 SCS Correlation Energy    =      -1.4860325166068711 [Eh]
	 SCS Total Energy          =    -381.1786987488943623 [Eh]
	-----------------------------------------------------------

  Dipole Moment: [D]
     X:    -0.0096      Y:    -1.2082      Z:     0.0025     Total:     1.2082

*** Psi4 exiting successfully. Buy a developer a beer!
