                               Psi4 1.4a3.dev225

  ==> Input File <==

--------------------------------------------------------------------------
#psi4
#
memory 32 gb

molecule  {
0 1
  O       -0.3919860     1.5294040    -0.0000050
  O        2.1568610     0.7396830     0.0000040
  O        1.4818540    -1.4327810     0.0000010
  C       -1.2904460    -0.7184520    -0.0000070
  C       -2.6798770    -0.0990580     0.0000080
  C       -0.1853269     0.3338347    -0.0000029
  C        1.2307160    -0.2376360     0.0000010
  H       -1.1331960    -1.3695760     0.8689140
  H       -1.1332070    -1.3695530    -0.8689480
  H       -2.8259870     0.5289990     0.8811930
  H       -2.8259930     0.5290290    -0.8811540
  H       -3.4430160    -0.8810440    -0.0000020
  H        3.0240790     0.2823190     0.0000050
units angstrom
no_reorient  #important for SAPT in psi4, default
symmetry c1  #important for SAPT in psi4, default
}

set PROPERTIES_ORIGIN ["COM"]
properties('MP2/aug-cc-pvtz', properties = ['dipole'])
--------------------------------------------------------------------------

    Molecular point group: c1
  Charge       = 0
  Multiplicity = 1
  Basis Set: AUG-CC-PVTZ
    Blend: AUG-CC-PVTZ
  Basis Set: (AUG-CC-PVTZ AUX)
    Blend: AUG-CC-PVTZ-JKFIT

    Orbital Energies [Eh]
    ---------------------

    Doubly Occupied:

       1A    -20.636680     2A    -20.588430     3A    -20.584840
       4A    -11.416150     5A    -11.364252     6A    -11.253467
       7A    -11.227305     8A     -1.486888     9A     -1.417384
      10A     -1.384250    11A     -1.070811    12A     -0.967250
      13A     -0.878573    14A     -0.769763    15A     -0.730222
      16A     -0.713336    17A     -0.664576    18A     -0.655070
      19A     -0.629050    20A     -0.620818    21A     -0.547725
      22A     -0.541103    23A     -0.528143    24A     -0.519705
      25A     -0.505843    26A     -0.498500    27A     -0.435775

  @DF-RHF Final Energy:  -379.70676253158143

   => Energetics <=

    Nuclear Repulsion Energy =            296.7206434557025432
    One-Electron Energy =               -1107.5829960446531004
    Two-Electron Energy =                 431.1555900573691247
    Total Energy =                       -379.7067625315814325
  Basis Set: (AUG-CC-PVTZ AUX)
    Blend: AUG-CC-PVTZ-RI
    Molecular point group: c1

    Geometry (in Angstrom), charge = 0, multiplicity = 1:

       Center              X                  Y                   Z               Mass
    ------------   -----------------  -----------------  -----------------  -----------------
         O           -0.474601373865     1.505654107612    -0.000004973171    15.994914619570
         O            2.074245626135     0.715933107612     0.000004026829    15.994914619570
         O            1.399238626135    -1.456530892388     0.000001026829    15.994914619570
         C           -1.373061373865    -0.742201892388    -0.000006973171    12.000000000000
         C           -2.762492373865    -0.122807892388     0.000008026829    12.000000000000
         C           -0.267942273865     0.310084807612    -0.000002873171    12.000000000000
         C            1.148100626135    -0.261385892388     0.000001026829    12.000000000000
         H           -1.215811373865    -1.393325892388     0.868914026829     1.007825032230
         H           -1.215822373865    -1.393302892388    -0.868947973171     1.007825032230
         H           -2.908602373865     0.505249107612     0.881193026829     1.007825032230
         H           -2.908608373865     0.505279107612    -0.881153973171     1.007825032230
         H           -3.525631373865    -0.904793892388    -0.000001973171     1.007825032230
         H            2.941463626135     0.258569107612     0.000005026829     1.007825032230

  Basis Set: AUG-CC-PVTZ
    Blend: AUG-CC-PVTZ
  Basis Set: (AUG-CC-PVTZ AUX)
    Blend: AUG-CC-PVTZ-JKFIT
	 Reference Energy          =    -379.7067625315814325 [Eh]
	 Singles Energy            =      -0.0000000000000000 [Eh]
	 Same-Spin Energy          =      -0.3654323202429571 [Eh]
	 Opposite-Spin Energy      =      -1.1345874410968351 [Eh]
	 Correlation Energy        =      -1.5000197613397921 [Eh]
	 Total Energy              =    -381.2067822929212184 [Eh]

	 ================> DF-SCS-MP2 Energies <==================
	-----------------------------------------------------------
	 SCS Same-Spin Scale       =       0.3333333333333333 [-]
	 SCS Opposite-Spin Scale   =       1.2000000000000000 [-]
	 SCS Same-Spin Energy      =      -0.1218107734143190 [Eh]
	 SCS Opposite-Spin Energy  =      -1.3615049293162020 [Eh]
	 SCS Correlation Energy    =      -1.4833157027305210 [Eh]
	 SCS Total Energy          =    -381.1900782343119545 [Eh]
	-----------------------------------------------------------

  Dipole Moment: [D]
     X:     0.1380      Y:    -1.1224      Z:    -0.0000     Total:     1.1308

*** Psi4 exiting successfully. Buy a developer a beer!
