                               Psi4 1.3.2 release

  ==> Input File <==

--------------------------------------------------------------------------
#psi4
#
memory 32 gb

molecule  {
0 1
  O        0.3708342     1.5325546    -0.0006865
  O       -2.1568130     0.7397400     0.0007420
  O       -1.4819380    -1.4327800    -0.0008360
  C        1.2904720    -0.7184350     0.0008240
  C        2.6798860    -0.0990590    -0.0001190
  C        0.1998040     0.3200060    -0.0000370
  C       -1.2307060    -0.2376900    -0.0001000
  H        1.1330450    -1.3706030    -0.8672720
  H        1.1334350    -1.3685260     0.8705840
  H        2.8258740     0.5280000    -0.8820420
  H        2.8261650     0.5300460     0.8802900
  H        3.4430440    -0.8810290     0.0006450
  H       -3.0240490     0.2824300     0.0005820
units angstrom
no_reorient  #important for SAPT in psi4, default
symmetry c1  #important for SAPT in psi4, default
}

set PROPERTIES_ORIGIN ["COM"]
properties('MP2/aug-cc-pvtz', properties = ['dipole'])
--------------------------------------------------------------------------

    Molecular point group: c1
  Charge       = 0
  Multiplicity = 1
  Basis Set: AUG-CC-PVTZ
    Blend: AUG-CC-PVTZ
  Basis Set: (AUG-CC-PVTZ AUX)
    Blend: AUG-CC-PVTZ-JKFIT

    Orbital Energies [Eh]
    ---------------------

    Doubly Occupied:

       1A    -20.635701     2A    -20.587453     3A    -20.582932
       4A    -11.414881     5A    -11.365463     6A    -11.255166
       7A    -11.228920     8A     -1.485233     9A     -1.409856
      10A     -1.382870    11A     -1.076040    12A     -0.964850
      13A     -0.880270    14A     -0.769432    15A     -0.728986
      16A     -0.712158    17A     -0.664155    18A     -0.654320
      19A     -0.630355    20A     -0.618405    21A     -0.548141
      22A     -0.539022    23A     -0.529414    24A     -0.520445
      25A     -0.504001    26A     -0.498537    27A     -0.436788

  @DF-RHF Final Energy:  -379.70612633929147

   => Energetics <=

    Nuclear Repulsion Energy =            296.6696065384290932
    One-Electron Energy =               -1107.5038745709518935
    Two-Electron Energy =                 431.1281416932313277
    Total Energy =                       -379.7061263392914725
  Basis Set: (AUG-CC-PVTZ AUX)
    Blend: AUG-CC-PVTZ-RI
    Molecular point group: c1

    Geometry (in Angstrom), charge = 0, multiplicity = 1:

       Center              X                  Y                   Z               Mass
    ------------   -----------------  -----------------  -----------------  -----------------
         O            0.455061194013     1.509931161418    -0.000658477114    15.994914619570
         O           -2.072586005987     0.717116561418     0.000770022886    15.994914619570
         O           -1.397711005987    -1.455403438582    -0.000807977114    15.994914619570
         C            1.374698994013    -0.741058438582     0.000852022886    12.000000000000
         C            2.764112994013    -0.121682438582    -0.000090977114    12.000000000000
         C            0.284030994013     0.297382561418    -0.000008977114    12.000000000000
         C           -1.146479005987    -0.260313438582    -0.000071977114    12.000000000000
         H            1.217271994013    -1.393226438582    -0.867243977114     1.007825032230
         H            1.217661994013    -1.391149438582     0.870612022886     1.007825032230
         H            2.910100994013     0.505376561418    -0.882013977114     1.007825032230
         H            2.910391994013     0.507422561418     0.880318022886     1.007825032230
         H            3.527270994013    -0.903652438582     0.000673022886     1.007825032230
         H           -2.939822005987     0.259806561418     0.000610022886     1.007825032230

  Basis Set: AUG-CC-PVTZ
    Blend: AUG-CC-PVTZ
  Basis Set: (AUG-CC-PVTZ AUX)
    Blend: AUG-CC-PVTZ-JKFIT
	 Reference Energy          =    -379.7061263392914725 [Eh]
	 Singles Energy            =      -0.0000000000000000 [Eh]
	 Same-Spin Energy          =      -0.3657289991383955 [Eh]
	 Opposite-Spin Energy      =      -1.1351250351881688 [Eh]
	 Correlation Energy        =      -1.5008540343265642 [Eh]
	 Total Energy              =    -381.2069803736180233 [Eh]

	 ================> DF-SCS-MP2 Energies <==================
	-----------------------------------------------------------
	 SCS Same-Spin Scale       =       0.3333333333333333 [-]
	 SCS Opposite-Spin Scale   =       1.2000000000000000 [-]
	 SCS Same-Spin Energy      =      -0.1219096663794652 [Eh]
	 SCS Opposite-Spin Energy  =      -1.3621500422258024 [Eh]
	 SCS Correlation Energy    =      -1.4840597086052676 [Eh]
	 SCS Total Energy          =    -381.1901860478967592 [Eh]
	-----------------------------------------------------------

  Dipole Moment: [D]
     X:    -0.0047      Y:    -1.1891      Z:     0.0025     Total:     1.1891

*** Psi4 exiting successfully. Buy a developer a beer!
