                               Psi4 1.3.2 release

  ==> Input File <==

--------------------------------------------------------------------------
#psi4
#
memory 32 gb

molecule  {
0 1
  O        0.3919700     1.5293850    -0.0006790
  O       -2.1568130     0.7397400     0.0007420
  O       -1.4819380    -1.4327800    -0.0008360
  C        1.2904720    -0.7184350     0.0008240
  C        2.6798860    -0.0990590    -0.0001190
  C        0.1273806     0.3889614    -0.0000942
  C       -1.2307060    -0.2376900    -0.0001000
  H        1.1330450    -1.3706030    -0.8672720
  H        1.1334350    -1.3685260     0.8705840
  H        2.8258740     0.5280000    -0.8820420
  H        2.8261650     0.5300460     0.8802900
  H        3.4430440    -0.8810290     0.0006450
  H       -3.0240490     0.2824300     0.0005820
units angstrom
no_reorient  #important for SAPT in psi4, default
symmetry c1  #important for SAPT in psi4, default
}

set PROPERTIES_ORIGIN ["COM"]
properties('MP2/aug-cc-pvtz', properties = ['dipole'])
--------------------------------------------------------------------------

    Molecular point group: c1
  Charge       = 0
  Multiplicity = 1
  Basis Set: AUG-CC-PVTZ
    Blend: AUG-CC-PVTZ
  Basis Set: (AUG-CC-PVTZ AUX)
    Blend: AUG-CC-PVTZ-JKFIT

    Orbital Energies [Eh]
    ---------------------

    Doubly Occupied:

       1A    -20.637657     2A    -20.592352     3A    -20.589125
       4A    -11.417301     5A    -11.360293     6A    -11.248983
       7A    -11.223359     8A     -1.492001     9A     -1.446309
      10A     -1.386829    11A     -1.055373    12A     -0.976373
      13A     -0.870822    14A     -0.770234    15A     -0.733648
      16A     -0.718792    17A     -0.667130    18A     -0.658127
      19A     -0.627268    20A     -0.623683    21A     -0.554454
      22A     -0.550085    23A     -0.525195    24A     -0.515909
      25A     -0.509593    26A     -0.496696    27A     -0.425082

  @DF-RHF Final Energy:  -379.69938679071657

   => Energetics <=

    Nuclear Repulsion Energy =            297.0887152762384744
    One-Electron Energy =               -1108.2308605745433852
    Two-Electron Energy =                 431.4427585075883940
    Total Energy =                       -379.6993867907165736
  Basis Set: (AUG-CC-PVTZ AUX)
    Blend: AUG-CC-PVTZ-RI
    Molecular point group: c1

    Geometry (in Angstrom), charge = 0, multiplicity = 1:

       Center              X                  Y                   Z               Mass
    ------------   -----------------  -----------------  -----------------  -----------------
         O            0.481401411018     1.499148561107    -0.000645425524    15.994914619570
         O           -2.067381588982     0.709503561107     0.000775574476    15.994914619570
         O           -1.392506588982    -1.463016438893    -0.000802425524    15.994914619570
         C            1.379903411018    -0.748671438893     0.000857574476    12.000000000000
         C            2.769317411018    -0.129295438893    -0.000085425524    12.000000000000
         C            0.216812011018     0.358724961107    -0.000060625524    12.000000000000
         C           -1.141274588982    -0.267926438893    -0.000066425524    12.000000000000
         H            1.222476411018    -1.400839438893    -0.867238425524     1.007825032230
         H            1.222866411018    -1.398762438893     0.870617574476     1.007825032230
         H            2.915305411018     0.497763561107    -0.882008425524     1.007825032230
         H            2.915596411018     0.499809561107     0.880323574476     1.007825032230
         H            3.532475411018    -0.911265438893     0.000678574476     1.007825032230
         H           -2.934617588982     0.252193561107     0.000615574476     1.007825032230

  Basis Set: AUG-CC-PVTZ
    Blend: AUG-CC-PVTZ
  Basis Set: (AUG-CC-PVTZ AUX)
    Blend: AUG-CC-PVTZ-JKFIT
	 Reference Energy          =    -379.6993867907165736 [Eh]
	 Singles Energy            =      -0.0000000000000000 [Eh]
	 Same-Spin Energy          =      -0.3645545047918975 [Eh]
	 Opposite-Spin Energy      =      -1.1329969980712922 [Eh]
	 Correlation Energy        =      -1.4975515028631896 [Eh]
	 Total Energy              =    -381.1969382935797626 [Eh]

	 ================> DF-SCS-MP2 Energies <==================
	-----------------------------------------------------------
	 SCS Same-Spin Scale       =       0.3333333333333333 [-]
	 SCS Opposite-Spin Scale   =       1.2000000000000000 [-]
	 SCS Same-Spin Energy      =      -0.1215181682639658 [Eh]
	 SCS Opposite-Spin Energy  =      -1.3595963976855505 [Eh]
	 SCS Correlation Energy    =      -1.4811145659495164 [Eh]
	 SCS Total Energy          =    -381.1805013566660705 [Eh]
	-----------------------------------------------------------

  Dipole Moment: [D]
     X:    -0.4607      Y:    -0.8694      Z:     0.0021     Total:     0.9839

*** Psi4 exiting successfully. Buy a developer a beer!
