                               Psi4 1.3.2 release

  ==> Input File <==

--------------------------------------------------------------------------
#psi4
#
memory 32 gb

molecule  {
0 1
  O        0.3919700     1.5293850    -0.0006790
  O       -2.1568130     0.7397400     0.0007420
  O       -1.4819380    -1.4327800    -0.0008360
  C        1.2904720    -0.7184350     0.0008240
  C        2.6798860    -0.0990590    -0.0001190
  C        0.2154968     0.4187670    -0.0000894
  C       -1.2307060    -0.2376900    -0.0001000
  H        1.1330450    -1.3706030    -0.8672720
  H        1.1334350    -1.3685260     0.8705840
  H        2.8258740     0.5280000    -0.8820420
  H        2.8261650     0.5300460     0.8802900
  H        3.4430440    -0.8810290     0.0006450
  H       -3.0240490     0.2824300     0.0005820
units angstrom
no_reorient  #important for SAPT in psi4, default
symmetry c1  #important for SAPT in psi4, default
}

set PROPERTIES_ORIGIN ["COM"]
properties('MP2/aug-cc-pvtz', properties = ['dipole'])
--------------------------------------------------------------------------

    Molecular point group: c1
  Charge       = 0
  Multiplicity = 1
  Basis Set: AUG-CC-PVTZ
    Blend: AUG-CC-PVTZ
  Basis Set: (AUG-CC-PVTZ AUX)
    Blend: AUG-CC-PVTZ-JKFIT

    Orbital Energies [Eh]
    ---------------------

    Doubly Occupied:

       1A    -20.632116     2A    -20.591769     3A    -20.579156
       4A    -11.407912     5A    -11.358163     6A    -11.249438
       7A    -11.225254     8A     -1.494600     9A     -1.469017
      10A     -1.378124    11A     -1.062457    12A     -0.948965
      13A     -0.870044    14A     -0.765021    15A     -0.730714
      16A     -0.717129    17A     -0.674522    18A     -0.664517
      19A     -0.626878    20A     -0.621844    21A     -0.571924
      22A     -0.554375    23A     -0.528891    24A     -0.514563
      25A     -0.509302    26A     -0.495607    27A     -0.414067

  @DF-RHF Final Energy:  -379.69906293450134

   => Energetics <=

    Nuclear Repulsion Energy =            297.1434931971880360
    One-Electron Energy =               -1108.3723743430209652
    Two-Electron Energy =                 431.5298182113315875
    Total Energy =                       -379.6990629345013417
  Basis Set: (AUG-CC-PVTZ AUX)
    Blend: AUG-CC-PVTZ-RI
    Molecular point group: c1

    Geometry (in Angstrom), charge = 0, multiplicity = 1:

       Center              X                  Y                   Z               Mass
    ------------   -----------------  -----------------  -----------------  -----------------
         O            0.471038019429     1.495643109165    -0.000645990055    15.994914619570
         O           -2.077744980571     0.705998109165     0.000775009945    15.994914619570
         O           -1.402869980571    -1.466521890835    -0.000802990055    15.994914619570
         C            1.369540019429    -0.752176890835     0.000857009945    12.000000000000
         C            2.758954019429    -0.132800890835    -0.000085990055    12.000000000000
         C            0.294564819429     0.385025109165    -0.000056390055    12.000000000000
         C           -1.151637980571    -0.271431890835    -0.000066990055    12.000000000000
         H            1.212113019429    -1.404344890835    -0.867238990055     1.007825032230
         H            1.212503019429    -1.402267890835     0.870617009945     1.007825032230
         H            2.904942019429     0.494258109165    -0.882008990055     1.007825032230
         H            2.905233019429     0.496304109165     0.880323009945     1.007825032230
         H            3.522112019429    -0.914770890835     0.000678009945     1.007825032230
         H           -2.944980980571     0.248688109165     0.000615009945     1.007825032230

  Basis Set: AUG-CC-PVTZ
    Blend: AUG-CC-PVTZ
  Basis Set: (AUG-CC-PVTZ AUX)
    Blend: AUG-CC-PVTZ-JKFIT
	 Reference Energy          =    -379.6990629345013417 [Eh]
	 Singles Energy            =      -0.0000000000000000 [Eh]
	 Same-Spin Energy          =      -0.3631925654575414 [Eh]
	 Opposite-Spin Energy      =      -1.1293241168230135 [Eh]
	 Correlation Energy        =      -1.4925166822805549 [Eh]
	 Total Energy              =    -381.1915796167818939 [Eh]

	 ================> DF-SCS-MP2 Energies <==================
	-----------------------------------------------------------
	 SCS Same-Spin Scale       =       0.3333333333333333 [-]
	 SCS Opposite-Spin Scale   =       1.2000000000000000 [-]
	 SCS Same-Spin Energy      =      -0.1210641884858471 [Eh]
	 SCS Opposite-Spin Energy  =      -1.3551889401876160 [Eh]
	 SCS Correlation Energy    =      -1.4762531286734633 [Eh]
	 SCS Total Energy          =    -381.1753160631748187 [Eh]
	-----------------------------------------------------------

  Dipole Moment: [D]
     X:    -0.0426      Y:    -0.7431      Z:     0.0021     Total:     0.7444

*** Psi4 exiting successfully. Buy a developer a beer!
