                               Psi4 1.3.2 release

  ==> Input File <==

--------------------------------------------------------------------------
#psi4
#
memory 32 gb

molecule  {
0 1
  O        0.3919700     1.5293850    -0.0006790
  O       -2.1903607     0.7068239     0.0007274
  O       -1.4819380    -1.4327800    -0.0008360
  C        1.2904720    -0.7184350     0.0008240
  C        2.6798860    -0.0990590    -0.0001190
  C        0.1998040     0.3200060    -0.0000370
  C       -1.2307060    -0.2376900    -0.0001000
  H        1.1330450    -1.3706030    -0.8672720
  H        1.1334350    -1.3685260     0.8705840
  H        2.8258740     0.5280000    -0.8820420
  H        2.8261650     0.5300460     0.8802900
  H        3.4430440    -0.8810290     0.0006450
  H       -3.0240490     0.2824300     0.0005820
units angstrom
no_reorient  #important for SAPT in psi4, default
symmetry c1  #important for SAPT in psi4, default
}

set PROPERTIES_ORIGIN ["COM"]
properties('MP2/aug-cc-pvtz', properties = ['dipole'])
--------------------------------------------------------------------------

    Molecular point group: c1
  Charge       = 0
  Multiplicity = 1
  Basis Set: AUG-CC-PVTZ
    Blend: AUG-CC-PVTZ
  Basis Set: (AUG-CC-PVTZ AUX)
    Blend: AUG-CC-PVTZ-JKFIT

    Orbital Energies [Eh]
    ---------------------

    Doubly Occupied:

       1A    -20.630154     2A    -20.589066     3A    -20.582165
       4A    -11.416208     5A    -11.367923     6A    -11.255479
       7A    -11.229139     8A     -1.490212     9A     -1.411777
      10A     -1.384438    11A     -1.076374    12A     -0.968813
      13A     -0.885867    14A     -0.778246    15A     -0.728295
      16A     -0.714951    17A     -0.664559    18A     -0.656579
      19A     -0.631023    20A     -0.618568    21A     -0.548635
      22A     -0.540137    23A     -0.529744    24A     -0.518855
      25A     -0.503706    26A     -0.498600    27A     -0.439231

  @DF-RHF Final Energy:  -379.70733755192566

   => Energetics <=

    Nuclear Repulsion Energy =            296.5855796088752641
    One-Electron Energy =               -1107.2683441972194487
    Two-Electron Energy =                 430.9754270364185231
    Total Energy =                       -379.7073375519256615
  Basis Set: (AUG-CC-PVTZ AUX)
    Blend: AUG-CC-PVTZ-RI
    Molecular point group: c1

    Geometry (in Angstrom), charge = 0, multiplicity = 1:

       Center              X                  Y                   Z               Mass
    ------------   -----------------  -----------------  -----------------  -----------------
         O            0.478142735311     1.512418506506    -0.000649864089    15.994914619570
         O           -2.104187964689     0.689857406506     0.000756535911    15.994914619570
         O           -1.395765264689    -1.449746493494    -0.000806864089    15.994914619570
         C            1.376644735311    -0.735401493494     0.000853135911    12.000000000000
         C            2.766058735311    -0.116025493494    -0.000089864089    12.000000000000
         C            0.285976735311     0.303039506506    -0.000007864089    12.000000000000
         C           -1.144533264689    -0.254656493494    -0.000070864089    12.000000000000
         H            1.219217735311    -1.387569493494    -0.867242864089     1.007825032230
         H            1.219607735311    -1.385492493494     0.870613135911     1.007825032230
         H            2.912046735311     0.511033506506    -0.882012864089     1.007825032230
         H            2.912337735311     0.513079506506     0.880319135911     1.007825032230
         H            3.529216735311    -0.897995493494     0.000674135911     1.007825032230
         H           -2.937876264689     0.265463506506     0.000611135911     1.007825032230

  Basis Set: AUG-CC-PVTZ
    Blend: AUG-CC-PVTZ
  Basis Set: (AUG-CC-PVTZ AUX)
    Blend: AUG-CC-PVTZ-JKFIT
	 Reference Energy          =    -379.7073375519256615 [Eh]
	 Singles Energy            =      -0.0000000000000000 [Eh]
	 Same-Spin Energy          =      -0.3649081711659527 [Eh]
	 Opposite-Spin Energy      =      -1.1334280934619096 [Eh]
	 Correlation Energy        =      -1.4983362646278624 [Eh]
	 Total Energy              =    -381.2056738165535421 [Eh]

	 ================> DF-SCS-MP2 Energies <==================
	-----------------------------------------------------------
	 SCS Same-Spin Scale       =       0.3333333333333333 [-]
	 SCS Opposite-Spin Scale   =       1.2000000000000000 [-]
	 SCS Same-Spin Energy      =      -0.1216360570553176 [Eh]
	 SCS Opposite-Spin Energy  =      -1.3601137121542914 [Eh]
	 SCS Correlation Energy    =      -1.4817497692096091 [Eh]
	 SCS Total Energy          =    -381.1890873211352755 [Eh]
	-----------------------------------------------------------

  Dipole Moment: [D]
     X:     0.0448      Y:    -1.1681      Z:     0.0025     Total:     1.1689

*** Psi4 exiting successfully. Buy a developer a beer!
