                               Psi4 1.3.2 release

  ==> Input File <==

--------------------------------------------------------------------------
#psi4
#
memory 32 gb

molecule  {
0 1
  O        0.3496462     1.5353548    -0.0006937
  O       -2.1568130     0.7397400     0.0007420
  O       -1.4819380    -1.4327800    -0.0008360
  C        1.2904720    -0.7184350     0.0008240
  C        2.6798860    -0.0990590    -0.0001190
  C        0.1998040     0.3200060    -0.0000370
  C       -1.2307060    -0.2376900    -0.0001000
  H        1.1330450    -1.3706030    -0.8672720
  H        1.1334350    -1.3685260     0.8705840
  H        2.8258740     0.5280000    -0.8820420
  H        2.8261650     0.5300460     0.8802900
  H        3.4430440    -0.8810290     0.0006450
  H       -3.0240490     0.2824300     0.0005820
units angstrom
no_reorient  #important for SAPT in psi4, default
symmetry c1  #important for SAPT in psi4, default
}

set PROPERTIES_ORIGIN ["COM"]
properties('MP2/aug-cc-pvtz', properties = ['dipole'])
--------------------------------------------------------------------------

    Molecular point group: c1
  Charge       = 0
  Multiplicity = 1
  Basis Set: AUG-CC-PVTZ
    Blend: AUG-CC-PVTZ
  Basis Set: (AUG-CC-PVTZ AUX)
    Blend: AUG-CC-PVTZ-JKFIT

    Orbital Energies [Eh]
    ---------------------

    Doubly Occupied:

       1A    -20.634894     2A    -20.587449     3A    -20.581998
       4A    -11.413689     5A    -11.365471     6A    -11.256085
       7A    -11.229544     8A     -1.484581     9A     -1.409790
      10A     -1.382041    11A     -1.076818    12A     -0.964276
      13A     -0.880374    14A     -0.769297    15A     -0.728501
      16A     -0.711694    17A     -0.663936    18A     -0.654380
      19A     -0.630373    20A     -0.617519    21A     -0.549024
      22A     -0.539313    23A     -0.530048    24A     -0.520323
      25A     -0.503830    26A     -0.498445    27A     -0.436251

  @DF-RHF Final Energy:  -379.70602633266236

   => Energetics <=

    Nuclear Repulsion Energy =            296.7099821098587995
    One-Electron Energy =               -1107.5921258804467016
    Two-Electron Energy =                 431.1761174379254840
    Total Energy =                       -379.7060263326623613
  Basis Set: (AUG-CC-PVTZ AUX)
    Blend: AUG-CC-PVTZ-RI
    Molecular point group: c1

    Geometry (in Angstrom), charge = 0, multiplicity = 1:

       Center              X                  Y                   Z               Mass
    ------------   -----------------  -----------------  -----------------  -----------------
         O            0.437194713411     1.512292390368    -0.000664548412    15.994914619570
         O           -2.069264486589     0.716677590368     0.000771151588    15.994914619570
         O           -1.394389486589    -1.455842409632    -0.000806848412    15.994914619570
         C            1.378020513411    -0.741497409632     0.000853151588    12.000000000000
         C            2.767434513411    -0.122121409632    -0.000089848412    12.000000000000
         C            0.287352513411     0.296943590368    -0.000007848412    12.000000000000
         C           -1.143157486589    -0.260752409632    -0.000070848412    12.000000000000
         H            1.220593513411    -1.393665409632    -0.867242848412     1.007825032230
         H            1.220983513411    -1.391588409632     0.870613151588     1.007825032230
         H            2.913422513411     0.504937590368    -0.882012848412     1.007825032230
         H            2.913713513411     0.506983590368     0.880319151588     1.007825032230
         H            3.530592513411    -0.904091409632     0.000674151588     1.007825032230
         H           -2.936500486589     0.259367590368     0.000611151588     1.007825032230

  Basis Set: AUG-CC-PVTZ
    Blend: AUG-CC-PVTZ
  Basis Set: (AUG-CC-PVTZ AUX)
    Blend: AUG-CC-PVTZ-JKFIT
	 Reference Energy          =    -379.7060263326623613 [Eh]
	 Singles Energy            =      -0.0000000000000000 [Eh]
	 Same-Spin Energy          =      -0.3656921236281936 [Eh]
	 Opposite-Spin Energy      =      -1.1350553023234204 [Eh]
	 Correlation Energy        =      -1.5007474259516140 [Eh]
	 Total Energy              =    -381.2067737586139629 [Eh]

	 ================> DF-SCS-MP2 Energies <==================
	-----------------------------------------------------------
	 SCS Same-Spin Scale       =       0.3333333333333333 [-]
	 SCS Opposite-Spin Scale   =       1.2000000000000000 [-]
	 SCS Same-Spin Energy      =      -0.1218973745427312 [Eh]
	 SCS Opposite-Spin Energy  =      -1.3620663627881044 [Eh]
	 SCS Correlation Energy    =      -1.4839637373308356 [Eh]
	 SCS Total Energy          =    -381.1899900699932004 [Eh]
	-----------------------------------------------------------

  Dipole Moment: [D]
     X:     0.0531      Y:    -1.1948      Z:     0.0025     Total:     1.1960

*** Psi4 exiting successfully. Buy a developer a beer!
