                               Psi4 1.3.2 release

  ==> Input File <==

--------------------------------------------------------------------------
#psi4
#
memory 32 gb

molecule  {
0 1
  O        0.3919700     1.5293850    -0.0006790
  O       -2.1568130     0.7397400     0.0007420
  O       -1.4819380    -1.4327800    -0.0008360
  C        1.2904720    -0.7184350     0.0008240
  C        2.6798860    -0.0990590    -0.0001190
  C        0.2427029     0.3598148     0.0872786
  C       -1.2307060    -0.2376900    -0.0001000
  H        1.1330450    -1.3706030    -0.8672720
  H        1.1334350    -1.3685260     0.8705840
  H        2.8258740     0.5280000    -0.8820420
  H        2.8261650     0.5300460     0.8802900
  H        3.4430440    -0.8810290     0.0006450
  H       -3.0240490     0.2824300     0.0005820
units angstrom
no_reorient  #important for SAPT in psi4, default
symmetry c1  #important for SAPT in psi4, default
}

set PROPERTIES_ORIGIN ["COM"]
properties('MP2/aug-cc-pvtz', properties = ['dipole'])
--------------------------------------------------------------------------

    Molecular point group: c1
  Charge       = 0
  Multiplicity = 1
  Basis Set: AUG-CC-PVTZ
    Blend: AUG-CC-PVTZ
  Basis Set: (AUG-CC-PVTZ AUX)
    Blend: AUG-CC-PVTZ-JKFIT

    Orbital Energies [Eh]
    ---------------------

    Doubly Occupied:

       1A    -20.633043     2A    -20.589057     3A    -20.578596
       4A    -11.410584     5A    -11.364060     6A    -11.253493
       7A    -11.228321     8A     -1.482185     9A     -1.437939
      10A     -1.378603    11A     -1.075564    12A     -0.950915
      13A     -0.875220    14A     -0.765425    15A     -0.727541
      16A     -0.712848    17A     -0.665911    18A     -0.662137
      19A     -0.629608    20A     -0.618090    21A     -0.550820
      22A     -0.549784    23A     -0.531009    24A     -0.519707
      25A     -0.508114    26A     -0.496770    27A     -0.424863

  @DF-RHF Final Energy:  -379.70408055281075

   => Energetics <=

    Nuclear Repulsion Energy =            296.6296848238392840
    One-Electron Energy =               -1107.4271193937397584
    Two-Electron Energy =                 431.0933540170897231
    Total Energy =                       -379.7040805528107512
  Basis Set: (AUG-CC-PVTZ AUX)
    Blend: AUG-CC-PVTZ-RI
    Molecular point group: c1

    Geometry (in Angstrom), charge = 0, multiplicity = 1:

       Center              X                  Y                   Z               Mass
    ------------   -----------------  -----------------  -----------------  -----------------
         O            0.467838296019     1.502576507719    -0.010921385458    15.994914619570
         O           -2.080944703981     0.712931507719    -0.009500385458    15.994914619570
         O           -1.406069703981    -1.459588492281    -0.011078385458    15.994914619570
         C            1.366340296019    -0.745243492281    -0.009418385458    12.000000000000
         C            2.755754296019    -0.125867492281    -0.010361385458    12.000000000000
         C            0.318571196019     0.333006307719     0.077036214542    12.000000000000
         C           -1.154837703981    -0.264498492281    -0.010342385458    12.000000000000
         H            1.208913296019    -1.397411492281    -0.877514385458     1.007825032230
         H            1.209303296019    -1.395334492281     0.860341614542     1.007825032230
         H            2.901742296019     0.501191507719    -0.892284385458     1.007825032230
         H            2.902033296019     0.503237507719     0.870047614542     1.007825032230
         H            3.518912296019    -0.907837492281    -0.009597385458     1.007825032230
         H           -2.948180703981     0.255621507719    -0.009660385458     1.007825032230

  Basis Set: AUG-CC-PVTZ
    Blend: AUG-CC-PVTZ
  Basis Set: (AUG-CC-PVTZ AUX)
    Blend: AUG-CC-PVTZ-JKFIT
	 Reference Energy          =    -379.7040805528107512 [Eh]
	 Singles Energy            =      -0.0000000000000000 [Eh]
	 Same-Spin Energy          =      -0.3647610073011774 [Eh]
	 Opposite-Spin Energy      =      -1.1327352048001793 [Eh]
	 Correlation Energy        =      -1.4974962121013569 [Eh]
	 Total Energy              =    -381.2015767649120903 [Eh]

	 ================> DF-SCS-MP2 Energies <==================
	-----------------------------------------------------------
	 SCS Same-Spin Scale       =       0.3333333333333333 [-]
	 SCS Opposite-Spin Scale   =       1.2000000000000000 [-]
	 SCS Same-Spin Energy      =      -0.1215870024337258 [Eh]
	 SCS Opposite-Spin Energy  =      -1.3592822457602152 [Eh]
	 SCS Correlation Energy    =      -1.4808692481939409 [Eh]
	 SCS Total Energy          =    -381.1849498010046773 [Eh]
	-----------------------------------------------------------

  Dipole Moment: [D]
     X:     0.1113      Y:    -1.0309      Z:     0.0835     Total:     1.0402

*** Psi4 exiting successfully. Buy a developer a beer!
