                               Psi4 1.4a3.dev225

  ==> Input File <==

--------------------------------------------------------------------------
#psi4
#
memory 32 gb

molecule  {
0 1
  O       -0.3919860     1.5294040    -0.0000050
  O        2.1568610     0.7396830     0.0000040
  O        1.4818540    -1.4327810     0.0000010
  C       -1.2904460    -0.7184520    -0.0000070
  C       -2.6798770    -0.0990580     0.0000080
  C       -0.1998110     0.3200430    -0.0000030
  C        1.2773012    -0.2557969     0.0000011
  H       -1.1331960    -1.3695760     0.8689140
  H       -1.1332070    -1.3695530    -0.8689480
  H       -2.8259870     0.5289990     0.8811930
  H       -2.8259930     0.5290290    -0.8811540
  H       -3.4430160    -0.8810440    -0.0000020
  H        3.0240790     0.2823190     0.0000050
units angstrom
no_reorient  #important for SAPT in psi4, default
symmetry c1  #important for SAPT in psi4, default
}

set PROPERTIES_ORIGIN ["COM"]
properties('MP2/aug-cc-pvtz', properties = ['dipole'])
--------------------------------------------------------------------------

    Molecular point group: c1
  Charge       = 0
  Multiplicity = 1
  Basis Set: AUG-CC-PVTZ
    Blend: AUG-CC-PVTZ
  Basis Set: (AUG-CC-PVTZ AUX)
    Blend: AUG-CC-PVTZ-JKFIT

    Orbital Energies [Eh]
    ---------------------

    Doubly Occupied:

       1A    -20.641006     2A    -20.583706     3A    -20.581830
       4A    -11.412591     5A    -11.362103     6A    -11.252066
       7A    -11.226613     8A     -1.498129     9A     -1.405934
      10A     -1.399945    11A     -1.071297    12A     -0.952487
      13A     -0.877983    14A     -0.767175    15A     -0.736251
      16A     -0.711819    17A     -0.668566    18A     -0.651047
      19A     -0.632465    20A     -0.623266    21A     -0.544148
      22A     -0.536281    23A     -0.528212    24A     -0.524322
      25A     -0.511475    26A     -0.497539    27A     -0.426689

  @DF-RHF Final Energy:  -379.70670630279955

   => Energetics <=

    Nuclear Repulsion Energy =            296.5783436407548379
    One-Electron Energy =               -1107.3202059417039891
    Two-Electron Energy =                 431.0351559981496052
    Total Energy =                       -379.7067063027995459
  Basis Set: (AUG-CC-PVTZ AUX)
    Blend: AUG-CC-PVTZ-RI
    Molecular point group: c1

    Geometry (in Angstrom), charge = 0, multiplicity = 1:

       Center              X                  Y                   Z               Mass
    ------------   -----------------  -----------------  -----------------  -----------------
         O           -0.478376800741     1.509412069327    -0.000004973171    15.994914619570
         O            2.070470199259     0.719691069327     0.000004026829    15.994914619570
         O            1.395463199259    -1.452772930673     0.000001026829    15.994914619570
         C           -1.376836800741    -0.738443930673    -0.000006973171    12.000000000000
         C           -2.766267800741    -0.119049930673     0.000008026829    12.000000000000
         C           -0.286201800741     0.300051069327    -0.000002973171    12.000000000000
         C            1.190910399259    -0.275788830673     0.000001126829    12.000000000000
         H           -1.219586800741    -1.389567930673     0.868914026829     1.007825032230
         H           -1.219597800741    -1.389544930673    -0.868947973171     1.007825032230
         H           -2.912377800741     0.509007069327     0.881193026829     1.007825032230
         H           -2.912383800741     0.509037069327    -0.881153973171     1.007825032230
         H           -3.529406800741    -0.901035930673    -0.000001973171     1.007825032230
         H            2.937688199259     0.262327069327     0.000005026829     1.007825032230

  Basis Set: AUG-CC-PVTZ
    Blend: AUG-CC-PVTZ
  Basis Set: (AUG-CC-PVTZ AUX)
    Blend: AUG-CC-PVTZ-JKFIT
	 Reference Energy          =    -379.7067063027995459 [Eh]
	 Singles Energy            =      -0.0000000000000000 [Eh]
	 Same-Spin Energy          =      -0.3650740708918871 [Eh]
	 Opposite-Spin Energy      =      -1.1333266480492883 [Eh]
	 Correlation Energy        =      -1.4984007189411754 [Eh]
	 Total Energy              =    -381.2051070217407300 [Eh]

	 ================> DF-SCS-MP2 Energies <==================
	-----------------------------------------------------------
	 SCS Same-Spin Scale       =       0.3333333333333333 [-]
	 SCS Opposite-Spin Scale   =       1.2000000000000000 [-]
	 SCS Same-Spin Energy      =      -0.1216913569639624 [Eh]
	 SCS Opposite-Spin Energy  =      -1.3599919776591458 [Eh]
	 SCS Correlation Energy    =      -1.4816833346231082 [Eh]
	 SCS Total Energy          =    -381.1883896374226310 [Eh]
	-----------------------------------------------------------

  Dipole Moment: [D]
     X:     0.2763      Y:    -1.2233      Z:    -0.0000     Total:     1.2541

*** Psi4 exiting successfully. Buy a developer a beer!
