                               Psi4 1.3.2 release

  ==> Input File <==

--------------------------------------------------------------------------
#psi4
#
memory 32 gb

molecule  {
0 1
  O        0.3919700     1.5293850    -0.0006790
  O       -2.1568130     0.7397400     0.0007420
  O       -1.4610425    -1.4369826    -0.0008432
  C        1.2904720    -0.7184350     0.0008240
  C        2.6798860    -0.0990590    -0.0001190
  C        0.1998040     0.3200060    -0.0000370
  C       -1.2307060    -0.2376900    -0.0001000
  H        1.1330450    -1.3706030    -0.8672720
  H        1.1334350    -1.3685260     0.8705840
  H        2.8258740     0.5280000    -0.8820420
  H        2.8261650     0.5300460     0.8802900
  H        3.4430440    -0.8810290     0.0006450
  H       -3.0240490     0.2824300     0.0005820
units angstrom
no_reorient  #important for SAPT in psi4, default
symmetry c1  #important for SAPT in psi4, default
}

set PROPERTIES_ORIGIN ["COM"]
properties('MP2/aug-cc-pvtz', properties = ['dipole'])
--------------------------------------------------------------------------

    Molecular point group: c1
  Charge       = 0
  Multiplicity = 1
  Basis Set: AUG-CC-PVTZ
    Blend: AUG-CC-PVTZ
  Basis Set: (AUG-CC-PVTZ AUX)
    Blend: AUG-CC-PVTZ-JKFIT

    Orbital Energies [Eh]
    ---------------------

    Doubly Occupied:

       1A    -20.638178     2A    -20.586504     3A    -20.584284
       4A    -11.416276     5A    -11.364284     6A    -11.253514
       7A    -11.227766     8A     -1.486000     9A     -1.409090
      10A     -1.385421    11A     -1.074464    12A     -0.964764
      13A     -0.880099    14A     -0.769646    15A     -0.730078
      16A     -0.712438    17A     -0.664545    18A     -0.653787
      19A     -0.630106    20A     -0.619388    21A     -0.546737
      22A     -0.538330    23A     -0.528108    24A     -0.520817
      25A     -0.504637    26A     -0.498297    27A     -0.436488

  @DF-RHF Final Energy:  -379.70592374986597

   => Energetics <=

    Nuclear Repulsion Energy =            296.7425342200484693
    One-Electron Energy =               -1107.6488214061184863
    Two-Electron Energy =                 431.2003634362040430
    Total Energy =                       -379.7059237498659741
  Basis Set: (AUG-CC-PVTZ AUX)
    Blend: AUG-CC-PVTZ-RI
    Molecular point group: c1

    Geometry (in Angstrom), charge = 0, multiplicity = 1:

       Center              X                  Y                   Z               Mass
    ------------   -----------------  -----------------  -----------------  -----------------
         O            0.469607991830     1.507917258289    -0.000651024144    15.994914619570
         O           -2.079175008170     0.718272258289     0.000769975856    15.994914619570
         O           -1.383404508170    -1.458450341711    -0.000815224144    15.994914619570
         C            1.368109991830    -0.739902741711     0.000851975856    12.000000000000
         C            2.757523991830    -0.120526741711    -0.000091024144    12.000000000000
         C            0.277441991830     0.298538258289    -0.000009024144    12.000000000000
         C           -1.153068008170    -0.259157741711    -0.000072024144    12.000000000000
         H            1.210682991830    -1.392070741711    -0.867244024144     1.007825032230
         H            1.211072991830    -1.389993741711     0.870611975856     1.007825032230
         H            2.903511991830     0.506532258289    -0.882014024144     1.007825032230
         H            2.903802991830     0.508578258289     0.880317975856     1.007825032230
         H            3.520681991830    -0.902496741711     0.000672975856     1.007825032230
         H           -2.946411008170     0.260962258289     0.000609975856     1.007825032230

  Basis Set: AUG-CC-PVTZ
    Blend: AUG-CC-PVTZ
  Basis Set: (AUG-CC-PVTZ AUX)
    Blend: AUG-CC-PVTZ-JKFIT
	 Reference Energy          =    -379.7059237498659741 [Eh]
	 Singles Energy            =      -0.0000000000000000 [Eh]
	 Same-Spin Energy          =      -0.3658056574311304 [Eh]
	 Opposite-Spin Energy      =      -1.1352742005033432 [Eh]
	 Correlation Energy        =      -1.5010798579344735 [Eh]
	 Total Energy              =    -381.2070036078004591 [Eh]

	 ================> DF-SCS-MP2 Energies <==================
	-----------------------------------------------------------
	 SCS Same-Spin Scale       =       0.3333333333333333 [-]
	 SCS Opposite-Spin Scale   =       1.2000000000000000 [-]
	 SCS Same-Spin Energy      =      -0.1219352191437101 [Eh]
	 SCS Opposite-Spin Energy  =      -1.3623290406040118 [Eh]
	 SCS Correlation Energy    =      -1.4842642597477220 [Eh]
	 SCS Total Energy          =    -381.1901880096136779 [Eh]
	-----------------------------------------------------------

  Dipole Moment: [D]
     X:    -0.1331      Y:    -1.1820      Z:     0.0025     Total:     1.1895

*** Psi4 exiting successfully. Buy a developer a beer!
