                               Psi4 1.3.2 release

  ==> Input File <==

--------------------------------------------------------------------------
#psi4
#
memory 32 gb

molecule  {
0 1
  O        0.3919700     1.5293850    -0.0006790
  O       -2.1568130     0.7397400     0.0007420
  O       -1.4819380    -1.4327800    -0.0008360
  C        1.2904720    -0.7184350     0.0008240
  C        2.7006555    -0.1479261    -0.0000721
  C        0.1998040     0.3200060    -0.0000370
  C       -1.2307060    -0.2376900    -0.0001000
  H        1.1330450    -1.3706030    -0.8672720
  H        1.1334350    -1.3685260     0.8705840
  H        2.8258740     0.5280000    -0.8820420
  H        2.8261650     0.5300460     0.8802900
  H        3.4430440    -0.8810290     0.0006450
  H       -3.0240490     0.2824300     0.0005820
units angstrom
no_reorient  #important for SAPT in psi4, default
symmetry c1  #important for SAPT in psi4, default
}

set PROPERTIES_ORIGIN ["COM"]
properties('MP2/aug-cc-pvtz', properties = ['dipole'])
--------------------------------------------------------------------------

    Molecular point group: c1
  Charge       = 0
  Multiplicity = 1
  Basis Set: AUG-CC-PVTZ
    Blend: AUG-CC-PVTZ
  Basis Set: (AUG-CC-PVTZ AUX)
    Blend: AUG-CC-PVTZ-JKFIT

    Orbital Energies [Eh]
    ---------------------

    Doubly Occupied:

       1A    -20.636870     2A    -20.587789     3A    -20.584064
       4A    -11.416717     5A    -11.366486     6A    -11.254207
       7A    -11.228776     8A     -1.486215     9A     -1.410113
      10A     -1.383948    11A     -1.075053    12A     -0.966137
      13A     -0.881146    14A     -0.769620    15A     -0.729734
      16A     -0.713141    17A     -0.663918    18A     -0.655532
      19A     -0.627489    20A     -0.619509    21A     -0.564504
      22A     -0.533440    23A     -0.523308    24A     -0.521699
      25A     -0.503790    26A     -0.492265    27A     -0.438286

  @DF-RHF Final Energy:  -379.70283361099234

   => Energetics <=

    Nuclear Repulsion Energy =            296.3608238210996433
    One-Electron Energy =               -1106.8598036537682674
    Two-Electron Energy =                 430.7961462216762811
    Total Energy =                       -379.7028336109923430
  Basis Set: (AUG-CC-PVTZ AUX)
    Blend: AUG-CC-PVTZ-RI
    Molecular point group: c1

    Geometry (in Angstrom), charge = 0, multiplicity = 1:

       Center              X                  Y                   Z               Mass
    ------------   -----------------  -----------------  -----------------  -----------------
         O            0.470440946132     1.513005725914    -0.000657668779    15.994914619570
         O           -2.078342053868     0.723360725914     0.000763331221    15.994914619570
         O           -1.403467053868    -1.449159274086    -0.000814668779    15.994914619570
         C            1.368942946132    -0.734814274086     0.000845331221    12.000000000000
         C            2.779126446132    -0.164305374086    -0.000050768779    12.000000000000
         C            0.278274946132     0.303626725914    -0.000015668779    12.000000000000
         C           -1.152235053868    -0.254069274086    -0.000078668779    12.000000000000
         H            1.211515946132    -1.386982274086    -0.867250668779     1.007825032230
         H            1.211905946132    -1.384905274086     0.870605331221     1.007825032230
         H            2.904344946132     0.511620725914    -0.882020668779     1.007825032230
         H            2.904635946132     0.513666725914     0.880311331221     1.007825032230
         H            3.521514946132    -0.897408274086     0.000666331221     1.007825032230
         H           -2.945578053868     0.266050725914     0.000603331221     1.007825032230

  Basis Set: AUG-CC-PVTZ
    Blend: AUG-CC-PVTZ
  Basis Set: (AUG-CC-PVTZ AUX)
    Blend: AUG-CC-PVTZ-JKFIT
	 Reference Energy          =    -379.7028336109923430 [Eh]
	 Singles Energy            =      -0.0000000000000000 [Eh]
	 Same-Spin Energy          =      -0.3658019724786041 [Eh]
	 Opposite-Spin Energy      =      -1.1353688959068540 [Eh]
	 Correlation Energy        =      -1.5011708683854581 [Eh]
	 Total Energy              =    -381.2040044793778293 [Eh]

	 ================> DF-SCS-MP2 Energies <==================
	-----------------------------------------------------------
	 SCS Same-Spin Scale       =       0.3333333333333333 [-]
	 SCS Opposite-Spin Scale   =       1.2000000000000000 [-]
	 SCS Same-Spin Energy      =      -0.1219339908262013 [Eh]
	 SCS Opposite-Spin Energy  =      -1.3624426750882248 [Eh]
	 SCS Correlation Energy    =      -1.4843766659144262 [Eh]
	 SCS Total Energy          =    -381.1872102769067965 [Eh]
	-----------------------------------------------------------

  Dipole Moment: [D]
     X:    -0.0679      Y:    -1.1997      Z:     0.0025     Total:     1.2017

*** Psi4 exiting successfully. Buy a developer a beer!
