                               Psi4 1.3.2 release

  ==> Input File <==

--------------------------------------------------------------------------
#psi4
#
memory 32 gb

molecule  {
0 1
  O        0.3919700     1.5293850    -0.0006790
  O       -2.1568130     0.7397400     0.0007420
  O       -1.4819380    -1.4327800    -0.0008360
  C        1.2904720    -0.7184350     0.0008240
  C        2.6332959    -0.0036472    -0.0002094
  C        0.1998040     0.3200060    -0.0000370
  C       -1.2307060    -0.2376900    -0.0001000
  H        1.1330450    -1.3706030    -0.8672720
  H        1.1334350    -1.3685260     0.8705840
  H        2.8258740     0.5280000    -0.8820420
  H        2.8261650     0.5300460     0.8802900
  H        3.4430440    -0.8810290     0.0006450
  H       -3.0240490     0.2824300     0.0005820
units angstrom
no_reorient  #important for SAPT in psi4, default
symmetry c1  #important for SAPT in psi4, default
}

set PROPERTIES_ORIGIN ["COM"]
properties('MP2/aug-cc-pvtz', properties = ['dipole'])
--------------------------------------------------------------------------

    Molecular point group: c1
  Charge       = 0
  Multiplicity = 1
  Basis Set: AUG-CC-PVTZ
    Blend: AUG-CC-PVTZ
  Basis Set: (AUG-CC-PVTZ AUX)
    Blend: AUG-CC-PVTZ-JKFIT

    Orbital Energies [Eh]
    ---------------------

    Doubly Occupied:

       1A    -20.636064     2A    -20.587374     3A    -20.583778
       4A    -11.415172     5A    -11.364090     6A    -11.255677
       7A    -11.230156     8A     -1.485578     9A     -1.410306
      10A     -1.383499    11A     -1.076770    12A     -0.965141
      13A     -0.880322    14A     -0.770302    15A     -0.729312
      16A     -0.712258    17A     -0.666956    18A     -0.652249
      19A     -0.637568    20A     -0.619413    21A     -0.552252
      22A     -0.542449    23A     -0.523577    24A     -0.508802
      25A     -0.503423    26A     -0.502207    27A     -0.434979

  @DF-RHF Final Energy:  -379.69478085702235

   => Energetics <=

    Nuclear Repulsion Energy =            297.2408568535774407
    One-Electron Energy =               -1108.6119264235194350
    Two-Electron Energy =                 431.6762887129195860
    Total Energy =                       -379.6947808570223515
  Basis Set: (AUG-CC-PVTZ AUX)
    Blend: AUG-CC-PVTZ-RI
    Molecular point group: c1

    Geometry (in Angstrom), charge = 0, multiplicity = 1:

       Center              X                  Y                   Z               Mass
    ------------   -----------------  -----------------  -----------------  -----------------
         O            0.478363143322     1.496037010299    -0.000641520855    15.994914619570
         O           -2.070419856678     0.706392010299     0.000779479145    15.994914619570
         O           -1.395544856678    -1.466127989701    -0.000798520855    15.994914619570
         C            1.376865143322    -0.751782989701     0.000861479145    12.000000000000
         C            2.719689043322    -0.036995189701    -0.000171920855    12.000000000000
         C            0.286197143322     0.286658010299     0.000000479145    12.000000000000
         C           -1.144312856678    -0.271037989701    -0.000062520855    12.000000000000
         H            1.219438143322    -1.403950989701    -0.867234520855     1.007825032230
         H            1.219828143322    -1.401873989701     0.870621479145     1.007825032230
         H            2.912267143322     0.494652010299    -0.882004520855     1.007825032230
         H            2.912558143322     0.496698010299     0.880327479145     1.007825032230
         H            3.529437143322    -0.914376989701     0.000682479145     1.007825032230
         H           -2.937655856678     0.249082010299     0.000619479145     1.007825032230

  Basis Set: AUG-CC-PVTZ
    Blend: AUG-CC-PVTZ
  Basis Set: (AUG-CC-PVTZ AUX)
    Blend: AUG-CC-PVTZ-JKFIT
	 Reference Energy          =    -379.6947808570223515 [Eh]
	 Singles Energy            =      -0.0000000000000000 [Eh]
	 Same-Spin Energy          =      -0.3660080639872553 [Eh]
	 Opposite-Spin Energy      =      -1.1357515899901165 [Eh]
	 Correlation Energy        =      -1.5017596539773717 [Eh]
	 Total Energy              =    -381.1965405109997391 [Eh]

	 ================> DF-SCS-MP2 Energies <==================
	-----------------------------------------------------------
	 SCS Same-Spin Scale       =       0.3333333333333333 [-]
	 SCS Opposite-Spin Scale   =       1.2000000000000000 [-]
	 SCS Same-Spin Energy      =      -0.1220026879957518 [Eh]
	 SCS Opposite-Spin Energy  =      -1.3629019079881397 [Eh]
	 SCS Correlation Energy    =      -1.4849045959838914 [Eh]
	 SCS Total Energy          =    -381.1796854530062433 [Eh]
	-----------------------------------------------------------

  Dipole Moment: [D]
     X:    -0.0947      Y:    -1.1361      Z:     0.0024     Total:     1.1400

*** Psi4 exiting successfully. Buy a developer a beer!
