                               Psi4 1.3.2 release

  ==> Input File <==

--------------------------------------------------------------------------
#psi4
#
memory 32 gb

molecule  {
0 1
  O        0.3919700     1.5293850    -0.0006790
  O       -2.1568130     0.7397400     0.0007420
  O       -1.4819380    -1.4327800    -0.0008360
  C        1.3930439    -0.5987405     0.0007842
  C        2.6798860    -0.0990590    -0.0001190
  C        0.1998040     0.3200060    -0.0000370
  C       -1.2307060    -0.2376900    -0.0001000
  H        1.1330450    -1.3706030    -0.8672720
  H        1.1334350    -1.3685260     0.8705840
  H        2.8258740     0.5280000    -0.8820420
  H        2.8261650     0.5300460     0.8802900
  H        3.4430440    -0.8810290     0.0006450
  H       -3.0240490     0.2824300     0.0005820
units angstrom
no_reorient  #important for SAPT in psi4, default
symmetry c1  #important for SAPT in psi4, default
}

set PROPERTIES_ORIGIN ["COM"]
properties('MP2/aug-cc-pvtz', properties = ['dipole'])
--------------------------------------------------------------------------

    Molecular point group: c1
  Charge       = 0
  Multiplicity = 1
  Basis Set: AUG-CC-PVTZ
    Blend: AUG-CC-PVTZ
  Basis Set: (AUG-CC-PVTZ AUX)
    Blend: AUG-CC-PVTZ-JKFIT

    Orbital Energies [Eh]
    ---------------------

    Doubly Occupied:

       1A    -20.639142     2A    -20.585333     3A    -20.580900
       4A    -11.421532     5A    -11.364404     6A    -11.264818
       7A    -11.222801     8A     -1.487901     9A     -1.408275
      10A     -1.385332    11A     -1.095710    12A     -0.972232
      13A     -0.879258    14A     -0.764079    15A     -0.730186
      16A     -0.712889    17A     -0.663140    18A     -0.654407
      19A     -0.629515    20A     -0.623434    21A     -0.586113
      22A     -0.538913    23A     -0.532606    24A     -0.512625
      25A     -0.504035    26A     -0.462209    27A     -0.433300

  @DF-RHF Final Energy:  -379.67584292266804

   => Energetics <=

    Nuclear Repulsion Energy =            297.3159344204231047
    One-Electron Energy =               -1108.6733783483546176
    Two-Electron Energy =                 431.6816010052634738
    Total Energy =                       -379.6758429226680391
  Basis Set: (AUG-CC-PVTZ AUX)
    Blend: AUG-CC-PVTZ-RI
    Molecular point group: c1

    Geometry (in Angstrom), charge = 0, multiplicity = 1:

       Center              X                  Y                   Z               Mass
    ------------   -----------------  -----------------  -----------------  -----------------
         O            0.460820123807     1.493181109467    -0.000647471947    15.994914619570
         O           -2.087962876193     0.703536109467     0.000773528053    15.994914619570
         O           -1.413087876193    -1.468983890533    -0.000804471947    15.994914619570
         C            1.461894023807    -0.634944390533     0.000815728053    12.000000000000
         C            2.748736123807    -0.135262890533    -0.000087471947    12.000000000000
         C            0.268654123807     0.283802109467    -0.000005471947    12.000000000000
         C           -1.161855876193    -0.273893890533    -0.000068471947    12.000000000000
         H            1.201895123807    -1.406806890533    -0.867240471947     1.007825032230
         H            1.202285123807    -1.404729890533     0.870615528053     1.007825032230
         H            2.894724123807     0.491796109467    -0.882010471947     1.007825032230
         H            2.895015123807     0.493842109467     0.880321528053     1.007825032230
         H            3.511894123807    -0.917232890533     0.000676528053     1.007825032230
         H           -2.955198876193     0.246226109467     0.000613528053     1.007825032230

  Basis Set: AUG-CC-PVTZ
    Blend: AUG-CC-PVTZ
  Basis Set: (AUG-CC-PVTZ AUX)
    Blend: AUG-CC-PVTZ-JKFIT
	 Reference Energy          =    -379.6758429226680391 [Eh]
	 Singles Energy            =      -0.0000000000000000 [Eh]
	 Same-Spin Energy          =      -0.3676961850869948 [Eh]
	 Opposite-Spin Energy      =      -1.1376833821283461 [Eh]
	 Correlation Energy        =      -1.5053795672153409 [Eh]
	 Total Energy              =    -381.1812224898833961 [Eh]

	 ================> DF-SCS-MP2 Energies <==================
	-----------------------------------------------------------
	 SCS Same-Spin Scale       =       0.3333333333333333 [-]
	 SCS Opposite-Spin Scale   =       1.2000000000000000 [-]
	 SCS Same-Spin Energy      =      -0.1225653950289983 [Eh]
	 SCS Opposite-Spin Energy  =      -1.3652200585540153 [Eh]
	 SCS Correlation Energy    =      -1.4877854535830135 [Eh]
	 SCS Total Energy          =    -381.1636283762510402 [Eh]
	-----------------------------------------------------------

  Dipole Moment: [D]
     X:     0.0307      Y:    -1.2128      Z:     0.0025     Total:     1.2132

*** Psi4 exiting successfully. Buy a developer a beer!
