                               Psi4 1.3.2 release

  ==> Input File <==

--------------------------------------------------------------------------
#psi4
#
memory 32 gb

molecule  {
0 1
  O        0.4758639     1.5130342    -0.0006472
  O       -2.1568130     0.7397400     0.0007420
  O       -1.4819380    -1.4327800    -0.0008360
  C        1.2904720    -0.7184350     0.0008240
  C        2.6798860    -0.0990590    -0.0001190
  C        0.1998040     0.3200060    -0.0000370
  C       -1.2307060    -0.2376900    -0.0001000
  H        1.1330450    -1.3706030    -0.8672720
  H        1.1334350    -1.3685260     0.8705840
  H        2.8258740     0.5280000    -0.8820420
  H        2.8261650     0.5300460     0.8802900
  H        3.4430440    -0.8810290     0.0006450
  H       -3.0240490     0.2824300     0.0005820
units angstrom
no_reorient  #important for SAPT in psi4, default
symmetry c1  #important for SAPT in psi4, default
}

set PROPERTIES_ORIGIN ["COM"]
properties('MP2/aug-cc-pvtz', properties = ['dipole'])
--------------------------------------------------------------------------

    Molecular point group: c1
  Charge       = 0
  Multiplicity = 1
  Basis Set: AUG-CC-PVTZ
    Blend: AUG-CC-PVTZ
  Basis Set: (AUG-CC-PVTZ AUX)
    Blend: AUG-CC-PVTZ-JKFIT

    Orbital Energies [Eh]
    ---------------------

    Doubly Occupied:

       1A    -20.639565     2A    -20.587446     3A    -20.587195
       4A    -11.420747     5A    -11.365406     6A    -11.250522
       7A    -11.225672     8A     -1.488535     9A     -1.410374
      10A     -1.386864    11A     -1.071940    12A     -0.967708
      13A     -0.879583    14A     -0.770111    15A     -0.731620
      16A     -0.714010    17A     -0.665523    18A     -0.654418
      19A     -0.630056    20A     -0.622519    21A     -0.543339
      22A     -0.537391    23A     -0.526295    24A     -0.520798
      25A     -0.505919    26A     -0.497681    27A     -0.438474

  @DF-RHF Final Energy:  -379.70412325873906

   => Energetics <=

    Nuclear Repulsion Energy =            296.5766515842874469
    One-Electron Energy =               -1107.2821296457809694
    Two-Electron Energy =                 431.0013548027544630
    Total Energy =                       -379.7041232587390596
  Basis Set: (AUG-CC-PVTZ AUX)
    Blend: AUG-CC-PVTZ-RI
    Molecular point group: c1

    Geometry (in Angstrom), charge = 0, multiplicity = 1:

       Center              X                  Y                   Z               Mass
    ------------   -----------------  -----------------  -----------------  -----------------
         O            0.543625999456     1.493470860873    -0.000625337947    15.994914619570
         O           -2.089050900544     0.720176660873     0.000763862053    15.994914619570
         O           -1.414175900544    -1.452343339127    -0.000814137947    15.994914619570
         C            1.358234099456    -0.737998339127     0.000845862053    12.000000000000
         C            2.747648099456    -0.118622339127    -0.000097137947    12.000000000000
         C            0.267566099456     0.300442660873    -0.000015137947    12.000000000000
         C           -1.162943900544    -0.257253339127    -0.000078137947    12.000000000000
         H            1.200807099456    -1.390166339127    -0.867250137947     1.007825032230
         H            1.201197099456    -1.388089339127     0.870605862053     1.007825032230
         H            2.893636099456     0.508436660873    -0.882020137947     1.007825032230
         H            2.893927099456     0.510482660873     0.880311862053     1.007825032230
         H            3.510806099456    -0.900592339127     0.000666862053     1.007825032230
         H           -2.956286900544     0.262866660873     0.000603862053     1.007825032230

  Basis Set: AUG-CC-PVTZ
    Blend: AUG-CC-PVTZ
  Basis Set: (AUG-CC-PVTZ AUX)
    Blend: AUG-CC-PVTZ-JKFIT
	 Reference Energy          =    -379.7041232587390596 [Eh]
	 Singles Energy            =      -0.0000000000000000 [Eh]
	 Same-Spin Energy          =      -0.3660193591789184 [Eh]
	 Opposite-Spin Energy      =      -1.1356800081999867 [Eh]
	 Correlation Energy        =      -1.5016993673789050 [Eh]
	 Total Energy              =    -381.2058226261179925 [Eh]

	 ================> DF-SCS-MP2 Energies <==================
	-----------------------------------------------------------
	 SCS Same-Spin Scale       =       0.3333333333333333 [-]
	 SCS Opposite-Spin Scale   =       1.2000000000000000 [-]
	 SCS Same-Spin Energy      =      -0.1220064530596394 [Eh]
	 SCS Opposite-Spin Energy  =      -1.3628160098399840 [Eh]
	 SCS Correlation Energy    =      -1.4848224628996234 [Eh]
	 SCS Total Energy          =    -381.1889457216386745 [Eh]
	-----------------------------------------------------------

  Dipole Moment: [D]
     X:    -0.2927      Y:    -1.1461      Z:     0.0024     Total:     1.1828

*** Psi4 exiting successfully. Buy a developer a beer!
