                               Psi4 1.3.2 release

  ==> Input File <==

--------------------------------------------------------------------------
#psi4
#
memory 32 gb

molecule  {
0 1
  O        0.5173318     1.5026731    -0.0006328
  O       -2.1568130     0.7397400     0.0007420
  O       -1.4819380    -1.4327800    -0.0008360
  C        1.2904720    -0.7184350     0.0008240
  C        2.6798860    -0.0990590    -0.0001190
  C        0.1998040     0.3200060    -0.0000370
  C       -1.2307060    -0.2376900    -0.0001000
  H        1.1330450    -1.3706030    -0.8672720
  H        1.1334350    -1.3685260     0.8705840
  H        2.8258740     0.5280000    -0.8820420
  H        2.8261650     0.5300460     0.8802900
  H        3.4430440    -0.8810290     0.0006450
  H       -3.0240490     0.2824300     0.0005820
units angstrom
no_reorient  #important for SAPT in psi4, default
symmetry c1  #important for SAPT in psi4, default
}

set PROPERTIES_ORIGIN ["COM"]
properties('MP2/aug-cc-pvtz', properties = ['dipole'])
--------------------------------------------------------------------------

    Molecular point group: c1
  Charge       = 0
  Multiplicity = 1
  Basis Set: AUG-CC-PVTZ
    Blend: AUG-CC-PVTZ
  Basis Set: (AUG-CC-PVTZ AUX)
    Blend: AUG-CC-PVTZ-JKFIT

    Orbital Energies [Eh]
    ---------------------

    Doubly Occupied:

       1A    -20.641031     2A    -20.589178     3A    -20.586962
       4A    -11.423045     5A    -11.365376     6A    -11.248651
       7A    -11.224319     8A     -1.489854     9A     -1.410686
      10A     -1.388389    11A     -1.070202    12A     -0.968846
      13A     -0.879247    14A     -0.770369    15A     -0.732741
      16A     -0.714553    17A     -0.666180    18A     -0.654658
      19A     -0.629863    20A     -0.624024    21A     -0.541255
      22A     -0.536658    23A     -0.525171    24A     -0.520736
      25A     -0.506904    26A     -0.497007    27A     -0.438644

  @DF-RHF Final Energy:  -379.70214277892495

   => Energetics <=

    Nuclear Repulsion Energy =            296.5900205621502437
    One-Electron Energy =               -1107.2952296401936110
    Two-Electron Energy =                 431.0030662991184158
    Total Energy =                       -379.7021427789249515
  Basis Set: (AUG-CC-PVTZ AUX)
    Blend: AUG-CC-PVTZ-RI
    Molecular point group: c1

    Geometry (in Angstrom), charge = 0, multiplicity = 1:

       Center              X                  Y                   Z               Mass
    ------------   -----------------  -----------------  -----------------  -----------------
         O            0.578593218211     1.484734010195    -0.000613195351    15.994914619570
         O           -2.095551581789     0.721800910195     0.000761604649    15.994914619570
         O           -1.420676581789    -1.450719089805    -0.000816395351    15.994914619570
         C            1.351733418211    -0.736374089805     0.000843604649    12.000000000000
         C            2.741147418211    -0.116998089805    -0.000099395351    12.000000000000
         C            0.261065418211     0.302066910195    -0.000017395351    12.000000000000
         C           -1.169444581789    -0.255629089805    -0.000080395351    12.000000000000
         H            1.194306418211    -1.388542089805    -0.867252395351     1.007825032230
         H            1.194696418211    -1.386465089805     0.870603604649     1.007825032230
         H            2.887135418211     0.510060910195    -0.882022395351     1.007825032230
         H            2.887426418211     0.512106910195     0.880309604649     1.007825032230
         H            3.504305418211    -0.898968089805     0.000664604649     1.007825032230
         H           -2.962787581789     0.264490910195     0.000601604649     1.007825032230

  Basis Set: AUG-CC-PVTZ
    Blend: AUG-CC-PVTZ
  Basis Set: (AUG-CC-PVTZ AUX)
    Blend: AUG-CC-PVTZ-JKFIT
	 Reference Energy          =    -379.7021427789249515 [Eh]
	 Singles Energy            =      -0.0000000000000000 [Eh]
	 Same-Spin Energy          =      -0.3661850389279662 [Eh]
	 Opposite-Spin Energy      =      -1.1359993368771111 [Eh]
	 Correlation Energy        =      -1.5021843758050772 [Eh]
	 Total Energy              =    -381.2043271547300378 [Eh]

	 ================> DF-SCS-MP2 Energies <==================
	-----------------------------------------------------------
	 SCS Same-Spin Scale       =       0.3333333333333333 [-]
	 SCS Opposite-Spin Scale   =       1.2000000000000000 [-]
	 SCS Same-Spin Energy      =      -0.1220616796426554 [Eh]
	 SCS Opposite-Spin Energy  =      -1.3631992042525332 [Eh]
	 SCS Correlation Energy    =      -1.4852608838951886 [Eh]
	 SCS Total Energy          =    -381.1874036628201452 [Eh]
	-----------------------------------------------------------

  Dipole Moment: [D]
     X:    -0.4069      Y:    -1.1222      Z:     0.0023     Total:     1.1937

*** Psi4 exiting successfully. Buy a developer a beer!
