                               Psi4 1.3.2 release

  ==> Input File <==

--------------------------------------------------------------------------
#psi4
#
memory 32 gb

molecule  {
0 1
  O        0.3919700     1.5293850    -0.0006790
  O       -2.1568130     0.7397400     0.0007420
  O       -1.4819380    -1.4327800    -0.0008360
  C        1.2904720    -0.7184350     0.0008240
  C        2.6798860    -0.0990590    -0.0001190
  C        0.3446508     0.1820952     0.0000773
  C       -1.2307060    -0.2376900    -0.0001000
  H        1.1330450    -1.3706030    -0.8672720
  H        1.1334350    -1.3685260     0.8705840
  H        2.8258740     0.5280000    -0.8820420
  H        2.8261650     0.5300460     0.8802900
  H        3.4430440    -0.8810290     0.0006450
  H       -3.0240490     0.2824300     0.0005820
units angstrom
no_reorient  #important for SAPT in psi4, default
symmetry c1  #important for SAPT in psi4, default
}

set PROPERTIES_ORIGIN ["COM"]
properties('MP2/aug-cc-pvtz', properties = ['dipole'])
--------------------------------------------------------------------------

    Molecular point group: c1
  Charge       = 0
  Multiplicity = 1
  Basis Set: AUG-CC-PVTZ
    Blend: AUG-CC-PVTZ
  Basis Set: (AUG-CC-PVTZ AUX)
    Blend: AUG-CC-PVTZ-JKFIT

    Orbital Energies [Eh]
    ---------------------

    Doubly Occupied:

       1A    -20.635205     2A    -20.574850     3A    -20.572693
       4A    -11.417307     5A    -11.376507     6A    -11.257000
       7A    -11.239329     8A     -1.478468     9A     -1.378740
      10A     -1.335025    11A     -1.133613    12A     -0.962175
      13A     -0.882162    14A     -0.765781    15A     -0.727189
      16A     -0.716450    17A     -0.676778    18A     -0.640515
      19A     -0.637300    20A     -0.609338    21A     -0.551354
      22A     -0.539256    23A     -0.530812    24A     -0.511510
      25A     -0.498403    26A     -0.464117    27A     -0.431066

  @DF-RHF Final Energy:  -379.63542382796197

   => Energetics <=

    Nuclear Repulsion Energy =            296.1141819574015130
    One-Electron Energy =               -1106.4133235041113039
    Two-Electron Energy =                 430.6637177187477619
    Total Energy =                       -379.6354238279619722
  Basis Set: (AUG-CC-PVTZ AUX)
    Blend: AUG-CC-PVTZ-RI
    Molecular point group: c1

    Geometry (in Angstrom), charge = 0, multiplicity = 1:

       Center              X                  Y                   Z               Mass
    ------------   -----------------  -----------------  -----------------  -----------------
         O            0.455848151081     1.523478201255    -0.000665595727    15.994914619570
         O           -2.092934848919     0.733833201255     0.000755404273    15.994914619570
         O           -1.418059848919    -1.438686798745    -0.000822595727    15.994914619570
         C            1.354350151081    -0.724341798745     0.000837404273    12.000000000000
         C            2.743764151081    -0.104965798745    -0.000105595727    12.000000000000
         C            0.408528951081     0.176188401255     0.000090704273    12.000000000000
         C           -1.166827848919    -0.243596798745    -0.000086595727    12.000000000000
         H            1.196923151081    -1.376509798745    -0.867258595727     1.007825032230
         H            1.197313151081    -1.374432798745     0.870597404273     1.007825032230
         H            2.889752151081     0.522093201255    -0.882028595727     1.007825032230
         H            2.890043151081     0.524139201255     0.880303404273     1.007825032230
         H            3.506922151081    -0.886935798745     0.000658404273     1.007825032230
         H           -2.960170848919     0.276523201255     0.000595404273     1.007825032230

  Basis Set: AUG-CC-PVTZ
    Blend: AUG-CC-PVTZ
  Basis Set: (AUG-CC-PVTZ AUX)
    Blend: AUG-CC-PVTZ-JKFIT
	 Reference Energy          =    -379.6354238279619722 [Eh]
	 Singles Energy            =      -0.0000000000000000 [Eh]
	 Same-Spin Energy          =      -0.3718258672181557 [Eh]
	 Opposite-Spin Energy      =      -1.1459125691083565 [Eh]
	 Correlation Energy        =      -1.5177384363265123 [Eh]
	 Total Energy              =    -381.1531622642884827 [Eh]

	 ================> DF-SCS-MP2 Energies <==================
	-----------------------------------------------------------
	 SCS Same-Spin Scale       =       0.3333333333333333 [-]
	 SCS Opposite-Spin Scale   =       1.2000000000000000 [-]
	 SCS Same-Spin Energy      =      -0.1239419557393852 [Eh]
	 SCS Opposite-Spin Energy  =      -1.3750950829300277 [Eh]
	 SCS Correlation Energy    =      -1.4990370386694130 [Eh]
	 SCS Total Energy          =    -381.1344608666314002 [Eh]
	-----------------------------------------------------------

  Dipole Moment: [D]
     X:     0.6486      Y:    -1.7502      Z:     0.0032     Total:     1.8665

*** Psi4 exiting successfully. Buy a developer a beer!
