                               Psi4 1.3.2 release

  ==> Input File <==

--------------------------------------------------------------------------
#psi4
#
memory 32 gb

molecule  {
0 1
  O        0.3071399     1.5398438    -0.0007077
  O       -2.1568130     0.7397400     0.0007420
  O       -1.4819380    -1.4327800    -0.0008360
  C        1.2904720    -0.7184350     0.0008240
  C        2.6798860    -0.0990590    -0.0001190
  C        0.1998040     0.3200060    -0.0000370
  C       -1.2307060    -0.2376900    -0.0001000
  H        1.1330450    -1.3706030    -0.8672720
  H        1.1334350    -1.3685260     0.8705840
  H        2.8258740     0.5280000    -0.8820420
  H        2.8261650     0.5300460     0.8802900
  H        3.4430440    -0.8810290     0.0006450
  H       -3.0240490     0.2824300     0.0005820
units angstrom
no_reorient  #important for SAPT in psi4, default
symmetry c1  #important for SAPT in psi4, default
}

set PROPERTIES_ORIGIN ["COM"]
properties('MP2/aug-cc-pvtz', properties = ['dipole'])
--------------------------------------------------------------------------

    Molecular point group: c1
  Charge       = 0
  Multiplicity = 1
  Basis Set: AUG-CC-PVTZ
    Blend: AUG-CC-PVTZ
  Basis Set: (AUG-CC-PVTZ AUX)
    Blend: AUG-CC-PVTZ-JKFIT

    Orbital Energies [Eh]
    ---------------------

    Doubly Occupied:

       1A    -20.633244     2A    -20.587385     3A    -20.580100
       4A    -11.411290     5A    -11.365485     6A    -11.257911
       7A    -11.230765     8A     -1.483294     9A     -1.409686
      10A     -1.380354    11A     -1.078333    12A     -0.963127
      13A     -0.880543    14A     -0.769033    15A     -0.727585
      16A     -0.710666    17A     -0.663559    18A     -0.654574
      19A     -0.630361    20A     -0.615680    21A     -0.550704
      22A     -0.539859    23A     -0.531305    24A     -0.520040
      25A     -0.503775    26A     -0.497924    27A     -0.434989

  @DF-RHF Final Energy:  -379.70532264911600

   => Energetics <=

    Nuclear Repulsion Energy =            296.8127078819310327
    One-Electron Energy =               -1107.8129143049909544
    Two-Electron Energy =                 431.2948837739439227
    Total Energy =                       -379.7053226491159990
  Basis Set: (AUG-CC-PVTZ AUX)
    Blend: AUG-CC-PVTZ-RI
    Molecular point group: c1

    Geometry (in Angstrom), charge = 0, multiplicity = 1:

       Center              X                  Y                   Z               Mass
    ------------   -----------------  -----------------  -----------------  -----------------
         O            0.401351878578     1.516077675974    -0.000676353714    15.994914619570
         O           -2.062601021422     0.715973875974     0.000773346286    15.994914619570
         O           -1.387726021422    -1.456546124026    -0.000804653714    15.994914619570
         C            1.384683978578    -0.742201124026     0.000855346286    12.000000000000
         C            2.774097978578    -0.122825124026    -0.000087653714    12.000000000000
         C            0.294015978578     0.296239875974    -0.000005653714    12.000000000000
         C           -1.136494021422    -0.261456124026    -0.000068653714    12.000000000000
         H            1.227256978578    -1.394369124026    -0.867240653714     1.007825032230
         H            1.227646978578    -1.392292124026     0.870615346286     1.007825032230
         H            2.920085978578     0.504233875974    -0.882010653714     1.007825032230
         H            2.920376978578     0.506279875974     0.880321346286     1.007825032230
         H            3.537255978578    -0.904795124026     0.000676346286     1.007825032230
         H           -2.929837021422     0.258663875974     0.000613346286     1.007825032230

  Basis Set: AUG-CC-PVTZ
    Blend: AUG-CC-PVTZ
  Basis Set: (AUG-CC-PVTZ AUX)
    Blend: AUG-CC-PVTZ-JKFIT
	 Reference Energy          =    -379.7053226491159990 [Eh]
	 Singles Energy            =      -0.0000000000000000 [Eh]
	 Same-Spin Energy          =      -0.3656399446655875 [Eh]
	 Opposite-Spin Energy      =      -1.1349560305789255 [Eh]
	 Correlation Energy        =      -1.5005959752445128 [Eh]
	 Total Energy              =    -381.2059186243604927 [Eh]

	 ================> DF-SCS-MP2 Energies <==================
	-----------------------------------------------------------
	 SCS Same-Spin Scale       =       0.3333333333333333 [-]
	 SCS Opposite-Spin Scale   =       1.2000000000000000 [-]
	 SCS Same-Spin Energy      =      -0.1218799815551958 [Eh]
	 SCS Opposite-Spin Energy  =      -1.3619472366947105 [Eh]
	 SCS Correlation Energy    =      -1.4838272182499064 [Eh]
	 SCS Total Energy          =    -381.1891498673659271 [Eh]
	-----------------------------------------------------------

  Dipole Moment: [D]
     X:     0.1688      Y:    -1.2034      Z:     0.0026     Total:     1.2152

*** Psi4 exiting successfully. Buy a developer a beer!
