                               Psi4 1.3.2 release

  ==> Input File <==

--------------------------------------------------------------------------
#psi4
#
memory 32 gb

molecule  {
0 1
  O        0.3919700     1.5293850    -0.0006790
  O       -2.1568130     0.7397400     0.0007420
  O       -1.4819380    -1.4327800    -0.0008360
  C        1.3260487    -0.6797386     0.0008118
  C        2.6798860    -0.0990590    -0.0001190
  C        0.1998040     0.3200060    -0.0000370
  C       -1.2307060    -0.2376900    -0.0001000
  H        1.1330450    -1.3706030    -0.8672720
  H        1.1334350    -1.3685260     0.8705840
  H        2.8258740     0.5280000    -0.8820420
  H        2.8261650     0.5300460     0.8802900
  H        3.4430440    -0.8810290     0.0006450
  H       -3.0240490     0.2824300     0.0005820
units angstrom
no_reorient  #important for SAPT in psi4, default
symmetry c1  #important for SAPT in psi4, default
}

set PROPERTIES_ORIGIN ["COM"]
properties('MP2/aug-cc-pvtz', properties = ['dipole'])
--------------------------------------------------------------------------

    Molecular point group: c1
  Charge       = 0
  Multiplicity = 1
  Basis Set: AUG-CC-PVTZ
    Blend: AUG-CC-PVTZ
  Basis Set: (AUG-CC-PVTZ AUX)
    Blend: AUG-CC-PVTZ-JKFIT

    Orbital Energies [Eh]
    ---------------------

    Doubly Occupied:

       1A    -20.637372     2A    -20.585313     3A    -20.584350
       4A    -11.417859     5A    -11.364816     6A    -11.257171
       7A    -11.226402     8A     -1.486544     9A     -1.409297
      10A     -1.384221    11A     -1.080346    12A     -0.967984
      13A     -0.879734    14A     -0.767480    15A     -0.729760
      16A     -0.712883    17A     -0.663402    18A     -0.653929
      19A     -0.628825    20A     -0.620036    21A     -0.558918
      22A     -0.538697    23A     -0.531903    24A     -0.519078
      25A     -0.503526    26A     -0.488227    27A     -0.436481

  @DF-RHF Final Energy:  -379.70259055277847

   => Energetics <=

    Nuclear Repulsion Energy =            296.8298265265311215
    One-Electron Energy =               -1107.7957316547565370
    Two-Electron Energy =                 431.2633145754468842
    Total Energy =                       -379.7025905527784744
  Basis Set: (AUG-CC-PVTZ AUX)
    Blend: AUG-CC-PVTZ-RI
    Molecular point group: c1

    Geometry (in Angstrom), charge = 0, multiplicity = 1:

       Center              X                  Y                   Z               Mass
    ------------   -----------------  -----------------  -----------------  -----------------
         O            0.468699463726     1.502707337655    -0.000650717997    15.994914619570
         O           -2.080083536274     0.713062337655     0.000770282003    15.994914619570
         O           -1.405208536274    -1.459457662345    -0.000807717997    15.994914619570
         C            1.402778163726    -0.706416262345     0.000840082003    12.000000000000
         C            2.756615463726    -0.125736662345    -0.000090717997    12.000000000000
         C            0.276533463726     0.293328337655    -0.000008717997    12.000000000000
         C           -1.153976536274    -0.264367662345    -0.000071717997    12.000000000000
         H            1.209774463726    -1.397280662345    -0.867243717997     1.007825032230
         H            1.210164463726    -1.395203662345     0.870612282003     1.007825032230
         H            2.902603463726     0.501322337655    -0.882013717997     1.007825032230
         H            2.902894463726     0.503368337655     0.880318282003     1.007825032230
         H            3.519773463726    -0.907706662345     0.000673282003     1.007825032230
         H           -2.947319536274     0.255752337655     0.000610282003     1.007825032230

  Basis Set: AUG-CC-PVTZ
    Blend: AUG-CC-PVTZ
  Basis Set: (AUG-CC-PVTZ AUX)
    Blend: AUG-CC-PVTZ-JKFIT
	 Reference Energy          =    -379.7025905527784744 [Eh]
	 Singles Energy            =      -0.0000000000000000 [Eh]
	 Same-Spin Energy          =      -0.3662064586799778 [Eh]
	 Opposite-Spin Energy      =      -1.1356286203432711 [Eh]
	 Correlation Energy        =      -1.5018350790232489 [Eh]
	 Total Energy              =    -381.2044256318017119 [Eh]

	 ================> DF-SCS-MP2 Energies <==================
	-----------------------------------------------------------
	 SCS Same-Spin Scale       =       0.3333333333333333 [-]
	 SCS Opposite-Spin Scale   =       1.2000000000000000 [-]
	 SCS Same-Spin Energy      =      -0.1220688195599926 [Eh]
	 SCS Opposite-Spin Energy  =      -1.3627543444119252 [Eh]
	 SCS Correlation Energy    =      -1.4848231639719178 [Eh]
	 SCS Total Energy          =    -381.1874137167503704 [Eh]
	-----------------------------------------------------------

  Dipole Moment: [D]
     X:    -0.0397      Y:    -1.1974      Z:     0.0025     Total:     1.1980

*** Psi4 exiting successfully. Buy a developer a beer!
