                               Psi4 1.3.2 release

  ==> Input File <==

--------------------------------------------------------------------------
#psi4
#
memory 32 gb

molecule  {
0 1
  O        0.4340597     1.5219418    -0.0006635
  O       -2.1568130     0.7397400     0.0007420
  O       -1.4819380    -1.4327800    -0.0008360
  C        1.2904720    -0.7184350     0.0008240
  C        2.6798860    -0.0990590    -0.0001190
  C        0.1998040     0.3200060    -0.0000370
  C       -1.2307060    -0.2376900    -0.0001000
  H        1.1330450    -1.3706030    -0.8672720
  H        1.1334350    -1.3685260     0.8705840
  H        2.8258740     0.5280000    -0.8820420
  H        2.8261650     0.5300460     0.8802900
  H        3.4430440    -0.8810290     0.0006450
  H       -3.0240490     0.2824300     0.0005820
units angstrom
no_reorient  #important for SAPT in psi4, default
symmetry c1  #important for SAPT in psi4, default
}

set PROPERTIES_ORIGIN ["COM"]
properties('MP2/aug-cc-pvtz', properties = ['dipole'])
--------------------------------------------------------------------------

    Molecular point group: c1
  Charge       = 0
  Multiplicity = 1
  Basis Set: AUG-CC-PVTZ
    Blend: AUG-CC-PVTZ
  Basis Set: (AUG-CC-PVTZ AUX)
    Blend: AUG-CC-PVTZ-JKFIT

    Orbital Energies [Eh]
    ---------------------

    Doubly Occupied:

       1A    -20.638054     2A    -20.587353     3A    -20.585672
       4A    -11.418421     5A    -11.365432     6A    -11.252388
       7A    -11.226995     8A     -1.487211     9A     -1.410126
      10A     -1.385297    11A     -1.073622    12A     -0.966567
      13A     -0.879888    14A     -0.769842    15A     -0.730531
      16A     -0.713358    17A     -0.664925    18A     -0.654296
      19A     -0.630212    20A     -0.620936    21A     -0.545334
      22A     -0.538078    23A     -0.527518    24A     -0.520719
      25A     -0.505006    26A     -0.498219    27A     -0.438007

  @DF-RHF Final Energy:  -379.70542593653312

   => Energetics <=

    Nuclear Repulsion Energy =            296.5921232988957286
    One-Electron Energy =               -1107.3270850655208051
    Two-Electron Energy =                 431.0295358300919020
    Total Energy =                       -379.7054259365331177
  Basis Set: (AUG-CC-PVTZ AUX)
    Blend: AUG-CC-PVTZ-RI
    Molecular point group: c1

    Geometry (in Angstrom), charge = 0, multiplicity = 1:

       Center              X                  Y                   Z               Mass
    ------------   -----------------  -----------------  -----------------  -----------------
         O            0.508375200495     1.500982068284    -0.000639082690    15.994914619570
         O           -2.082497499505     0.718780268284     0.000766417310    15.994914619570
         O           -1.407622499505    -1.453739731716    -0.000811582690    15.994914619570
         C            1.364787500495    -0.739394731716     0.000848417310    12.000000000000
         C            2.754201500495    -0.120018731716    -0.000094582690    12.000000000000
         C            0.274119500495     0.299046268284    -0.000012582690    12.000000000000
         C           -1.156390499505    -0.258649731716    -0.000075582690    12.000000000000
         H            1.207360500495    -1.391562731716    -0.867247582690     1.007825032230
         H            1.207750500495    -1.389485731716     0.870608417310     1.007825032230
         H            2.900189500495     0.507040268284    -0.882017582690     1.007825032230
         H            2.900480500495     0.509086268284     0.880314417310     1.007825032230
         H            3.517359500495    -0.901988731716     0.000669417310     1.007825032230
         H           -2.949733499505     0.261470268284     0.000606417310     1.007825032230

  Basis Set: AUG-CC-PVTZ
    Blend: AUG-CC-PVTZ
  Basis Set: (AUG-CC-PVTZ AUX)
    Blend: AUG-CC-PVTZ-JKFIT
	 Reference Energy          =    -379.7054259365331177 [Eh]
	 Singles Energy            =      -0.0000000000000000 [Eh]
	 Same-Spin Energy          =      -0.3658820849792683 [Eh]
	 Opposite-Spin Energy      =      -1.1354163959389245 [Eh]
	 Correlation Energy        =      -1.5012984809181928 [Eh]
	 Total Energy              =    -381.2067244174513121 [Eh]

	 ================> DF-SCS-MP2 Energies <==================
	-----------------------------------------------------------
	 SCS Same-Spin Scale       =       0.3333333333333333 [-]
	 SCS Opposite-Spin Scale   =       1.2000000000000000 [-]
	 SCS Same-Spin Energy      =      -0.1219606949930894 [Eh]
	 SCS Opposite-Spin Energy  =      -1.3624996751267093 [Eh]
	 SCS Correlation Energy    =      -1.4844603701197987 [Eh]
	 SCS Total Energy          =    -381.1898863066529088 [Eh]
	-----------------------------------------------------------

  Dipole Moment: [D]
     X:    -0.1778      Y:    -1.1661      Z:     0.0024     Total:     1.1796

*** Psi4 exiting successfully. Buy a developer a beer!
