                               Psi4 1.3.2 release

  ==> Input File <==

--------------------------------------------------------------------------
#psi4
#
memory 32 gb

molecule  {
0 1
  O        0.3919700     1.5293850    -0.0006790
  O       -2.1568130     0.7397400     0.0007420
  O       -1.4819380    -1.4327800    -0.0008360
  C        1.2904720    -0.7184350     0.0008240
  C        2.6798860    -0.0990590    -0.0001190
  C        0.1998040     0.3200060    -0.0000370
  C       -1.1375361    -0.2013669    -0.0000959
  H        1.1330450    -1.3706030    -0.8672720
  H        1.1334350    -1.3685260     0.8705840
  H        2.8258740     0.5280000    -0.8820420
  H        2.8261650     0.5300460     0.8802900
  H        3.4430440    -0.8810290     0.0006450
  H       -3.0240490     0.2824300     0.0005820
units angstrom
no_reorient  #important for SAPT in psi4, default
symmetry c1  #important for SAPT in psi4, default
}

set PROPERTIES_ORIGIN ["COM"]
properties('MP2/aug-cc-pvtz', properties = ['dipole'])
--------------------------------------------------------------------------

    Molecular point group: c1
  Charge       = 0
  Multiplicity = 1
  Basis Set: AUG-CC-PVTZ
    Blend: AUG-CC-PVTZ
  Basis Set: (AUG-CC-PVTZ AUX)
    Blend: AUG-CC-PVTZ-JKFIT

    Orbital Energies [Eh]
    ---------------------

    Doubly Occupied:

       1A    -20.628078     2A    -20.598929     3A    -20.586623
       4A    -11.424675     5A    -11.368386     6A    -11.258055
       7A    -11.231334     8A     -1.463865     9A     -1.417517
      10A     -1.351277    11A     -1.084918    12A     -0.995748
      13A     -0.884636    14A     -0.772780    15A     -0.719399
      16A     -0.714535    17A     -0.663173    18A     -0.659416
      19A     -0.621171    20A     -0.607921    21A     -0.552367
      22A     -0.542549    23A     -0.533640    24A     -0.509701
      25A     -0.505044    26A     -0.485103    27A     -0.453886

  @DF-RHF Final Energy:  -379.68305378921070

   => Energetics <=

    Nuclear Repulsion Energy =            296.8246999256701315
    One-Electron Energy =               -1107.7460515414998099
    Two-Electron Energy =                 431.2382978266190321
    Total Energy =                       -379.6830537892107031
  Basis Set: (AUG-CC-PVTZ AUX)
    Blend: AUG-CC-PVTZ-RI
    Molecular point group: c1

    Geometry (in Angstrom), charge = 0, multiplicity = 1:

       Center              X                  Y                   Z               Mass
    ------------   -----------------  -----------------  -----------------  -----------------
         O            0.461925897861     1.502986462689    -0.000652635049    15.994914619570
         O           -2.086857102139     0.713341462689     0.000768364951    15.994914619570
         O           -1.411982102139    -1.459178537311    -0.000809635049    15.994914619570
         C            1.360427897861    -0.744833537311     0.000850364951    12.000000000000
         C            2.749841897861    -0.125457537311    -0.000092635049    12.000000000000
         C            0.269759897861     0.293607462689    -0.000010635049    12.000000000000
         C           -1.067580202139    -0.227765437311    -0.000069535049    12.000000000000
         H            1.203000897861    -1.397001537311    -0.867245635049     1.007825032230
         H            1.203390897861    -1.394924537311     0.870610364951     1.007825032230
         H            2.895829897861     0.501601462689    -0.882015635049     1.007825032230
         H            2.896120897861     0.503647462689     0.880316364951     1.007825032230
         H            3.512999897861    -0.907427537311     0.000671364951     1.007825032230
         H           -2.954093102139     0.256031462689     0.000608364951     1.007825032230

  Basis Set: AUG-CC-PVTZ
    Blend: AUG-CC-PVTZ
  Basis Set: (AUG-CC-PVTZ AUX)
    Blend: AUG-CC-PVTZ-JKFIT
	 Reference Energy          =    -379.6830537892107031 [Eh]
	 Singles Energy            =      -0.0000000000000000 [Eh]
	 Same-Spin Energy          =      -0.3682060808507118 [Eh]
	 Opposite-Spin Energy      =      -1.1412470920472626 [Eh]
	 Correlation Energy        =      -1.5094531728979743 [Eh]
	 Total Energy              =    -381.1925069621086664 [Eh]

	 ================> DF-SCS-MP2 Energies <==================
	-----------------------------------------------------------
	 SCS Same-Spin Scale       =       0.3333333333333333 [-]
	 SCS Opposite-Spin Scale   =       1.2000000000000000 [-]
	 SCS Same-Spin Energy      =      -0.1227353602835706 [Eh]
	 SCS Opposite-Spin Energy  =      -1.3694965104567152 [Eh]
	 SCS Correlation Energy    =      -1.4922318707402857 [Eh]
	 SCS Total Energy          =    -381.1752856599509869 [Eh]
	-----------------------------------------------------------

  Dipole Moment: [D]
     X:     0.3135      Y:    -1.1633      Z:     0.0024     Total:     1.2048

*** Psi4 exiting successfully. Buy a developer a beer!
