                               Psi4 1.3.2 release

  ==> Input File <==

--------------------------------------------------------------------------
#psi4
#
memory 32 gb

molecule  {
0 1
  O        0.3919700     1.5293850    -0.0006790
  O       -2.1396134     0.7557539     0.0007489
  O       -1.4819380    -1.4327800    -0.0008360
  C        1.2904720    -0.7184350     0.0008240
  C        2.6798860    -0.0990590    -0.0001190
  C        0.1998040     0.3200060    -0.0000370
  C       -1.2307060    -0.2376900    -0.0001000
  H        1.1330450    -1.3706030    -0.8672720
  H        1.1334350    -1.3685260     0.8705840
  H        2.8258740     0.5280000    -0.8820420
  H        2.8261650     0.5300460     0.8802900
  H        3.4430440    -0.8810290     0.0006450
  H       -3.0240490     0.2824300     0.0005820
units angstrom
no_reorient  #important for SAPT in psi4, default
symmetry c1  #important for SAPT in psi4, default
}

set PROPERTIES_ORIGIN ["COM"]
properties('MP2/aug-cc-pvtz', properties = ['dipole'])
--------------------------------------------------------------------------

    Molecular point group: c1
  Charge       = 0
  Multiplicity = 1
  Basis Set: AUG-CC-PVTZ
    Blend: AUG-CC-PVTZ
  Basis Set: (AUG-CC-PVTZ AUX)
    Blend: AUG-CC-PVTZ-JKFIT

    Orbital Energies [Eh]
    ---------------------

    Doubly Occupied:

       1A    -20.639452     2A    -20.586623     3A    -20.584715
       4A    -11.416087     5A    -11.364240     6A    -11.253633
       7A    -11.227866     8A     -1.484012     9A     -1.409070
      10A     -1.383375    11A     -1.074693    12A     -0.963896
      13A     -0.877604    14A     -0.765628    15A     -0.729863
      16A     -0.711379    17A     -0.664342    18A     -0.652973
      19A     -0.629970    20A     -0.619306    21A     -0.546502
      22A     -0.538010    23A     -0.528306    24A     -0.521346
      25A     -0.504736    26A     -0.498293    27A     -0.436259

  @DF-RHF Final Energy:  -379.70363858526889

   => Energetics <=

    Nuclear Repulsion Energy =            296.6780130722383433
    One-Electron Energy =               -1107.5389445109772169
    Two-Electron Energy =                 431.1572928534699258
    Total Energy =                       -379.7036385852688909
  Basis Set: (AUG-CC-PVTZ AUX)
    Blend: AUG-CC-PVTZ-RI
    Molecular point group: c1

    Geometry (in Angstrom), charge = 0, multiplicity = 1:

       Center              X                  Y                   Z               Mass
    ------------   -----------------  -----------------  -----------------  -----------------
         O            0.470187376555     1.504748035291    -0.000653234519    15.994914619570
         O           -2.061396023445     0.731116935291     0.000774665481    15.994914619570
         O           -1.403720623445    -1.457416964709    -0.000810234519    15.994914619570
         C            1.368689376555    -0.743071964709     0.000849765481    12.000000000000
         C            2.758103376555    -0.123695964709    -0.000093234519    12.000000000000
         C            0.278021376555     0.295369035291    -0.000011234519    12.000000000000
         C           -1.152488623445    -0.262326964709    -0.000074234519    12.000000000000
         H            1.211262376555    -1.395239964709    -0.867246234519     1.007825032230
         H            1.211652376555    -1.393162964709     0.870609765481     1.007825032230
         H            2.904091376555     0.503363035291    -0.882016234519     1.007825032230
         H            2.904382376555     0.505409035291     0.880315765481     1.007825032230
         H            3.521261376555    -0.905665964709     0.000670765481     1.007825032230
         H           -2.945831623445     0.257793035291     0.000607765481     1.007825032230

  Basis Set: AUG-CC-PVTZ
    Blend: AUG-CC-PVTZ
  Basis Set: (AUG-CC-PVTZ AUX)
    Blend: AUG-CC-PVTZ-JKFIT
	 Reference Energy          =    -379.7036385852688909 [Eh]
	 Singles Energy            =      -0.0000000000000000 [Eh]
	 Same-Spin Energy          =      -0.3662348033367492 [Eh]
	 Opposite-Spin Energy      =      -1.1361760741074773 [Eh]
	 Correlation Energy        =      -1.5024108774442264 [Eh]
	 Total Energy              =    -381.2060494627131106 [Eh]

	 ================> DF-SCS-MP2 Energies <==================
	-----------------------------------------------------------
	 SCS Same-Spin Scale       =       0.3333333333333333 [-]
	 SCS Opposite-Spin Scale   =       1.2000000000000000 [-]
	 SCS Same-Spin Energy      =      -0.1220782677789164 [Eh]
	 SCS Opposite-Spin Energy  =      -1.3634112889289727 [Eh]
	 SCS Correlation Energy    =      -1.4854895567078890 [Eh]
	 SCS Total Energy          =    -381.1891281419767665 [Eh]
	-----------------------------------------------------------

  Dipole Moment: [D]
     X:    -0.1139      Y:    -1.1890      Z:     0.0025     Total:     1.1944

*** Psi4 exiting successfully. Buy a developer a beer!
