                               Psi4 1.4a3.dev225

  ==> Input File <==

--------------------------------------------------------------------------
#psi4
#
memory 32 gb

molecule  {
0 1
  O       -0.3919860     1.5294040    -0.0000050
  O        2.1568610     0.7396830     0.0000040
  O        1.4818540    -1.4327810     0.0000010
  C       -1.2904460    -0.7184520    -0.0000070
  C       -2.6798770    -0.0990580     0.0000080
  C       -0.2142951     0.3062513    -0.0000031
  C        1.2307160    -0.2376360     0.0000010
  H       -1.1331960    -1.3695760     0.8689140
  H       -1.1332070    -1.3695530    -0.8689480
  H       -2.8259870     0.5289990     0.8811930
  H       -2.8259930     0.5290290    -0.8811540
  H       -3.4430160    -0.8810440    -0.0000020
  H        3.0240790     0.2823190     0.0000050
units angstrom
no_reorient  #important for SAPT in psi4, default
symmetry c1  #important for SAPT in psi4, default
}

set PROPERTIES_ORIGIN ["COM"]
properties('MP2/aug-cc-pvtz', properties = ['dipole'])
--------------------------------------------------------------------------

    Molecular point group: c1
  Charge       = 0
  Multiplicity = 1
  Basis Set: AUG-CC-PVTZ
    Blend: AUG-CC-PVTZ
  Basis Set: (AUG-CC-PVTZ AUX)
    Blend: AUG-CC-PVTZ-JKFIT

    Orbital Energies [Eh]
    ---------------------

    Doubly Occupied:

       1A    -20.636365     2A    -20.586406     3A    -20.582867
       4A    -11.416042     5A    -11.366692     6A    -11.254894
       7A    -11.229273     8A     -1.484990     9A     -1.402463
      10A     -1.383123    11A     -1.079918    12A     -0.963816
      13A     -0.881545    14A     -0.769364    15A     -0.728803
      16A     -0.712117    17A     -0.664428    18A     -0.653441
      19A     -0.631539    20A     -0.617746    21A     -0.546844
      22A     -0.536895    23A     -0.529363    24A     -0.521201
      25A     -0.502478    26A     -0.498161    27A     -0.438292

  @DF-RHF Final Energy:  -379.70429344997768

   => Energetics <=

    Nuclear Repulsion Energy =            296.5576744350681793
    One-Electron Energy =               -1107.2857990372249333
    Two-Electron Energy =                 431.0238311521790706
    Total Energy =                       -379.7042934499776834
  Basis Set: (AUG-CC-PVTZ AUX)
    Blend: AUG-CC-PVTZ-RI
    Molecular point group: c1

    Geometry (in Angstrom), charge = 0, multiplicity = 1:

       Center              X                  Y                   Z               Mass
    ------------   -----------------  -----------------  -----------------  -----------------
         O           -0.471194408968     1.508898205469    -0.000004949649    15.994914619570
         O            2.077652591032     0.719177205469     0.000004050351    15.994914619570
         O            1.402645591032    -1.453286794531     0.000001050351    15.994914619570
         C           -1.369654408968    -0.738957794531    -0.000006949649    12.000000000000
         C           -2.759085408968    -0.119563794531     0.000008050351    12.000000000000
         C           -0.293503508968     0.285745505469    -0.000003049649    12.000000000000
         C            1.151507591032    -0.258141794531     0.000001050351    12.000000000000
         H           -1.212404408968    -1.390081794531     0.868914050351     1.007825032230
         H           -1.212415408968    -1.390058794531    -0.868947949649     1.007825032230
         H           -2.905195408968     0.508493205469     0.881193050351     1.007825032230
         H           -2.905201408968     0.508523205469    -0.881153949649     1.007825032230
         H           -3.522224408968    -0.901549794531    -0.000001949649     1.007825032230
         H            2.944870591032     0.261813205469     0.000005050351     1.007825032230

  Basis Set: AUG-CC-PVTZ
    Blend: AUG-CC-PVTZ
  Basis Set: (AUG-CC-PVTZ AUX)
    Blend: AUG-CC-PVTZ-JKFIT
	 Reference Energy          =    -379.7042934499776834 [Eh]
	 Singles Energy            =      -0.0000000000000000 [Eh]
	 Same-Spin Energy          =      -0.3661617247482188 [Eh]
	 Opposite-Spin Energy      =      -1.1359147208336471 [Eh]
	 Correlation Energy        =      -1.5020764455818658 [Eh]
	 Total Energy              =    -381.2063698955595328 [Eh]

	 ================> DF-SCS-MP2 Energies <==================
	-----------------------------------------------------------
	 SCS Same-Spin Scale       =       0.3333333333333333 [-]
	 SCS Opposite-Spin Scale   =       1.2000000000000000 [-]
	 SCS Same-Spin Energy      =      -0.1220539082494063 [Eh]
	 SCS Opposite-Spin Energy  =      -1.3630976650003765 [Eh]
	 SCS Correlation Energy    =      -1.4851515732497829 [Eh]
	 SCS Total Energy          =    -381.1894450232274494 [Eh]
	-----------------------------------------------------------

  Dipole Moment: [D]
     X:    -0.0106      Y:    -1.2407      Z:    -0.0000     Total:     1.2408

*** Psi4 exiting successfully. Buy a developer a beer!
