                               Psi4 1.3.2 release

  ==> Input File <==

--------------------------------------------------------------------------
#psi4
#
memory 32 gb

molecule  {
0 1
  O        0.3919700     1.5293850    -0.0006790
  O       -2.1568130     0.7397400     0.0007420
  O       -1.4819380    -1.4327800    -0.0008360
  C        1.2904720    -0.7184350     0.0008240
  C        2.6798860    -0.0990590    -0.0001190
  C        0.1998040     0.3200060    -0.0000370
  C       -1.4170459    -0.3103361    -0.0001082
  H        1.1330450    -1.3706030    -0.8672720
  H        1.1334350    -1.3685260     0.8705840
  H        2.8258740     0.5280000    -0.8820420
  H        2.8261650     0.5300460     0.8802900
  H        3.4430440    -0.8810290     0.0006450
  H       -3.0240490     0.2824300     0.0005820
units angstrom
no_reorient  #important for SAPT in psi4, default
symmetry c1  #important for SAPT in psi4, default
}

set PROPERTIES_ORIGIN ["COM"]
properties('MP2/aug-cc-pvtz', properties = ['dipole'])
--------------------------------------------------------------------------

    Molecular point group: c1
  Charge       = 0
  Multiplicity = 1
  Basis Set: AUG-CC-PVTZ
    Blend: AUG-CC-PVTZ
  Basis Set: (AUG-CC-PVTZ AUX)
    Blend: AUG-CC-PVTZ-JKFIT

    Orbital Energies [Eh]
    ---------------------

    Doubly Occupied:

       1A    -20.657770     2A    -20.591003     3A    -20.563630
       4A    -11.410632     5A    -11.343360     6A    -11.243540
       7A    -11.220342     8A     -1.536818     9A     -1.456707
      10A     -1.386600    11A     -1.059825    12A     -0.923506
      13A     -0.872401    14A     -0.768797    15A     -0.752069
      16A     -0.715243    17A     -0.694060    18A     -0.639729
      19A     -0.630589    20A     -0.629150    21A     -0.543877
      22A     -0.542790    23A     -0.533001    24A     -0.523179
      25A     -0.514286    26A     -0.488809    27A     -0.385439

  @DF-RHF Final Energy:  -379.67048675903891

   => Energetics <=

    Nuclear Repulsion Energy =            296.4343594513533731
    One-Electron Energy =               -1106.9553876293155099
    Two-Electron Energy =                 430.8505414189231715
    Total Energy =                       -379.6704867590389085
  Basis Set: (AUG-CC-PVTZ AUX)
    Blend: AUG-CC-PVTZ-RI
    Molecular point group: c1

    Geometry (in Angstrom), charge = 0, multiplicity = 1:

       Center              X                  Y                   Z               Mass
    ------------   -----------------  -----------------  -----------------  -----------------
         O            0.494799189157     1.515802386330    -0.000651188439    15.994914619570
         O           -2.053983810843     0.726157386330     0.000769811561    15.994914619570
         O           -1.379108810843    -1.446362613670    -0.000808188439    15.994914619570
         C            1.393301189157    -0.732017613670     0.000851811561    12.000000000000
         C            2.782715189157    -0.112641613670    -0.000091188439    12.000000000000
         C            0.302633189157     0.306423386330    -0.000009188439    12.000000000000
         C           -1.314216710843    -0.323918713670    -0.000080388439    12.000000000000
         H            1.235874189157    -1.384185613670    -0.867244188439     1.007825032230
         H            1.236264189157    -1.382108613670     0.870611811561     1.007825032230
         H            2.928703189157     0.514417386330    -0.882014188439     1.007825032230
         H            2.928994189157     0.516463386330     0.880317811561     1.007825032230
         H            3.545873189157    -0.894611613670     0.000672811561     1.007825032230
         H           -2.921219810843     0.268847386330     0.000609811561     1.007825032230

  Basis Set: AUG-CC-PVTZ
    Blend: AUG-CC-PVTZ
  Basis Set: (AUG-CC-PVTZ AUX)
    Blend: AUG-CC-PVTZ-JKFIT
	 Reference Energy          =    -379.6704867590389085 [Eh]
	 Singles Energy            =      -0.0000000000000000 [Eh]
	 Same-Spin Energy          =      -0.3647660179867470 [Eh]
	 Opposite-Spin Energy      =      -1.1314688254119198 [Eh]
	 Correlation Energy        =      -1.4962348433986667 [Eh]
	 Total Energy              =    -381.1667216024375762 [Eh]

	 ================> DF-SCS-MP2 Energies <==================
	-----------------------------------------------------------
	 SCS Same-Spin Scale       =       0.3333333333333333 [-]
	 SCS Opposite-Spin Scale   =       1.2000000000000000 [-]
	 SCS Same-Spin Energy      =      -0.1215886726622490 [Eh]
	 SCS Opposite-Spin Energy  =      -1.3577625904943038 [Eh]
	 SCS Correlation Energy    =      -1.4793512631565529 [Eh]
	 SCS Total Energy          =    -381.1498380221954676 [Eh]
	-----------------------------------------------------------

  Dipole Moment: [D]
     X:    -1.0646      Y:    -1.4693      Z:     0.0024     Total:     1.8144

*** Psi4 exiting successfully. Buy a developer a beer!
