                               Psi4 1.3.2 release

  ==> Input File <==

--------------------------------------------------------------------------
#psi4
#
memory 32 gb

molecule  {
0 1
  O        0.3919700     1.5293850    -0.0006790
  O       -2.2227391     0.6727571     0.0007119
  O       -1.4819380    -1.4327800    -0.0008360
  C        1.2904720    -0.7184350     0.0008240
  C        2.6798860    -0.0990590    -0.0001190
  C        0.1998040     0.3200060    -0.0000370
  C       -1.2307060    -0.2376900    -0.0001000
  H        1.1330450    -1.3706030    -0.8672720
  H        1.1334350    -1.3685260     0.8705840
  H        2.8258740     0.5280000    -0.8820420
  H        2.8261650     0.5300460     0.8802900
  H        3.4430440    -0.8810290     0.0006450
  H       -3.0240490     0.2824300     0.0005820
units angstrom
no_reorient  #important for SAPT in psi4, default
symmetry c1  #important for SAPT in psi4, default
}

set PROPERTIES_ORIGIN ["COM"]
properties('MP2/aug-cc-pvtz', properties = ['dipole'])
--------------------------------------------------------------------------

    Molecular point group: c1
  Charge       = 0
  Multiplicity = 1
  Basis Set: AUG-CC-PVTZ
    Blend: AUG-CC-PVTZ
  Basis Set: (AUG-CC-PVTZ AUX)
    Blend: AUG-CC-PVTZ-JKFIT

    Orbital Energies [Eh]
    ---------------------

    Doubly Occupied:

       1A    -20.623241     2A    -20.590692     3A    -20.580512
       4A    -11.416607     5A    -11.370444     6A    -11.256734
       7A    -11.230004     8A     -1.495338     9A     -1.413737
      10A     -1.385382    11A     -1.077522    12A     -0.972743
      13A     -0.892415    14A     -0.787426    15A     -0.726638
      16A     -0.717202    17A     -0.664803    18A     -0.658450
      19A     -0.631720    20A     -0.617185    21A     -0.549982
      22A     -0.541551    23A     -0.530725    24A     -0.517001
      25A     -0.503770    26A     -0.498065    27A     -0.441151

  @DF-RHF Final Energy:  -379.70290323944386

   => Energetics <=

    Nuclear Repulsion Energy =            296.5778995529706776
    One-Electron Energy =               -1107.1795251750158968
    Two-Electron Energy =                 430.8987223826014201
    Total Energy =                       -379.7029032394438559
  Basis Set: (AUG-CC-PVTZ AUX)
    Blend: AUG-CC-PVTZ-RI
    Molecular point group: c1

    Geometry (in Angstrom), charge = 0, multiplicity = 1:

       Center              X                  Y                   Z               Mass
    ------------   -----------------  -----------------  -----------------  -----------------
         O            0.483218508563     1.517758960396    -0.000647434244    15.994914619570
         O           -2.131490591437     0.661131060396     0.000743465756    15.994914619570
         O           -1.390689491437    -1.444406039604    -0.000804434244    15.994914619570
         C            1.381720508563    -0.730061039604     0.000855565756    12.000000000000
         C            2.771134508563    -0.110685039604    -0.000087434244    12.000000000000
         C            0.291052508563     0.308379960396    -0.000005434244    12.000000000000
         C           -1.139457491437    -0.249316039604    -0.000068434244    12.000000000000
         H            1.224293508563    -1.382229039604    -0.867240434244     1.007825032230
         H            1.224683508563    -1.380152039604     0.870615565756     1.007825032230
         H            2.917122508563     0.516373960396    -0.882010434244     1.007825032230
         H            2.917413508563     0.518419960396     0.880321565756     1.007825032230
         H            3.534292508563    -0.892655039604     0.000676565756     1.007825032230
         H           -2.932800491437     0.270803960396     0.000613565756     1.007825032230

  Basis Set: AUG-CC-PVTZ
    Blend: AUG-CC-PVTZ
  Basis Set: (AUG-CC-PVTZ AUX)
    Blend: AUG-CC-PVTZ-JKFIT
	 Reference Energy          =    -379.7029032394438559 [Eh]
	 Singles Energy            =      -0.0000000000000000 [Eh]
	 Same-Spin Energy          =      -0.3641300854397352 [Eh]
	 Opposite-Spin Energy      =      -1.1318609276490670 [Eh]
	 Correlation Energy        =      -1.4959910130888021 [Eh]
	 Total Energy              =    -381.1988942525326820 [Eh]

	 ================> DF-SCS-MP2 Energies <==================
	-----------------------------------------------------------
	 SCS Same-Spin Scale       =       0.3333333333333333 [-]
	 SCS Opposite-Spin Scale   =       1.2000000000000000 [-]
	 SCS Same-Spin Energy      =      -0.1213766951465784 [Eh]
	 SCS Opposite-Spin Energy  =      -1.3582331131788803 [Eh]
	 SCS Correlation Energy    =      -1.4796098083254587 [Eh]
	 SCS Total Energy          =    -381.1825130477693051 [Eh]
	-----------------------------------------------------------

  Dipole Moment: [D]
     X:     0.1577      Y:    -1.1521      Z:     0.0025     Total:     1.1628

*** Psi4 exiting successfully. Buy a developer a beer!
