                               Psi4 1.3.2 release

  ==> Input File <==

--------------------------------------------------------------------------
#psi4
#
memory 32 gb

molecule  {
0 1
  O        0.3919700     1.5293850    -0.0006790
  O       -2.1568130     0.7397400     0.0007420
  O       -1.4819380    -1.4327800    -0.0008360
  C        1.2904720    -0.7184350     0.0008240
  C        2.6798860    -0.0990590    -0.0001190
  C        0.2660806     0.3777604     0.1308050
  C       -1.2307060    -0.2376900    -0.0001000
  H        1.1330450    -1.3706030    -0.8672720
  H        1.1334350    -1.3685260     0.8705840
  H        2.8258740     0.5280000    -0.8820420
  H        2.8261650     0.5300460     0.8802900
  H        3.4430440    -0.8810290     0.0006450
  H       -3.0240490     0.2824300     0.0005820
units angstrom
no_reorient  #important for SAPT in psi4, default
symmetry c1  #important for SAPT in psi4, default
}

set PROPERTIES_ORIGIN ["COM"]
properties('MP2/aug-cc-pvtz', properties = ['dipole'])
--------------------------------------------------------------------------

    Molecular point group: c1
  Charge       = 0
  Multiplicity = 1
  Basis Set: AUG-CC-PVTZ
    Blend: AUG-CC-PVTZ
  Basis Set: (AUG-CC-PVTZ AUX)
    Blend: AUG-CC-PVTZ-JKFIT

    Orbital Energies [Eh]
    ---------------------

    Doubly Occupied:

       1A    -20.630991     2A    -20.590775     3A    -20.575647
       4A    -11.407243     5A    -11.364373     6A    -11.253800
       7A    -11.228593     8A     -1.480947     9A     -1.449116
      10A     -1.375729    11A     -1.076207    12A     -0.943986
      13A     -0.872357    14A     -0.764332    15A     -0.726682
      16A     -0.711475    17A     -0.671088    18A     -0.661656
      19A     -0.628943    20A     -0.616972    21A     -0.556934
      22A     -0.551412    23A     -0.532727    24A     -0.518698
      25A     -0.508678    26A     -0.495083    27A     -0.417622

  @DF-RHF Final Energy:  -379.69721141205451

   => Energetics <=

    Nuclear Repulsion Energy =            296.5422320850238975
    One-Electron Energy =               -1107.2547547360311455
    Two-Electron Energy =                 431.0153112389527337
    Total Energy =                       -379.6972114120545143
  Basis Set: (AUG-CC-PVTZ AUX)
    Blend: AUG-CC-PVTZ-RI
    Molecular point group: c1

    Geometry (in Angstrom), charge = 0, multiplicity = 1:

       Center              X                  Y                   Z               Mass
    ------------   -----------------  -----------------  -----------------  -----------------
         O            0.465088832702     1.500465916476    -0.016040547742    15.994914619570
         O           -2.083694167298     0.710820916476    -0.014619547742    15.994914619570
         O           -1.408819167298    -1.461699083524    -0.016197547742    15.994914619570
         C            1.363590832702    -0.747354083524    -0.014537547742    12.000000000000
         C            2.753004832702    -0.127978083524    -0.015480547742    12.000000000000
         C            0.339199432702     0.348841316476     0.115443452258    12.000000000000
         C           -1.157587167298    -0.266609083524    -0.015461547742    12.000000000000
         H            1.206163832702    -1.399522083524    -0.882633547742     1.007825032230
         H            1.206553832702    -1.397445083524     0.855222452258     1.007825032230
         H            2.898992832702     0.499080916476    -0.897403547742     1.007825032230
         H            2.899283832702     0.501126916476     0.864928452258     1.007825032230
         H            3.516162832702    -0.909948083524    -0.014716547742     1.007825032230
         H           -2.950930167298     0.253510916476    -0.014779547742     1.007825032230

  Basis Set: AUG-CC-PVTZ
    Blend: AUG-CC-PVTZ
  Basis Set: (AUG-CC-PVTZ AUX)
    Blend: AUG-CC-PVTZ-JKFIT
	 Reference Energy          =    -379.6972114120545143 [Eh]
	 Singles Energy            =      -0.0000000000000000 [Eh]
	 Same-Spin Energy          =      -0.3645949652651678 [Eh]
	 Opposite-Spin Energy      =      -1.1323326311101203 [Eh]
	 Correlation Energy        =      -1.4969275963752882 [Eh]
	 Total Energy              =    -381.1941390084298291 [Eh]

	 ================> DF-SCS-MP2 Energies <==================
	-----------------------------------------------------------
	 SCS Same-Spin Scale       =       0.3333333333333333 [-]
	 SCS Opposite-Spin Scale   =       1.2000000000000000 [-]
	 SCS Same-Spin Energy      =      -0.1215316550883893 [Eh]
	 SCS Opposite-Spin Energy  =      -1.3587991573321443 [Eh]
	 SCS Correlation Energy    =      -1.4803308124205334 [Eh]
	 SCS Total Energy          =    -381.1775422244750757 [Eh]
	-----------------------------------------------------------

  Dipole Moment: [D]
     X:     0.2239      Y:    -0.9481      Z:     0.1258     Total:     0.9823

*** Psi4 exiting successfully. Buy a developer a beer!
