                               Psi4 1.3.2 release

  ==> Input File <==

--------------------------------------------------------------------------
#psi4
#
memory 32 gb

molecule  {
0 1
  O        0.3919700     1.5293850    -0.0006790
  O       -2.1568130     0.7397400     0.0007420
  O       -1.4819380    -1.4327800    -0.0008360
  C        1.2904720    -0.7184350     0.0008240
  C        2.6798860    -0.0990590    -0.0001190
  C        0.2311895     0.5175280    -0.0001419
  C       -1.2307060    -0.2376900    -0.0001000
  H        1.1330450    -1.3706030    -0.8672720
  H        1.1334350    -1.3685260     0.8705840
  H        2.8258740     0.5280000    -0.8820420
  H        2.8261650     0.5300460     0.8802900
  H        3.4430440    -0.8810290     0.0006450
  H       -3.0240490     0.2824300     0.0005820
units angstrom
no_reorient  #important for SAPT in psi4, default
symmetry c1  #important for SAPT in psi4, default
}

set PROPERTIES_ORIGIN ["COM"]
properties('MP2/aug-cc-pvtz', properties = ['dipole'])
--------------------------------------------------------------------------

    Molecular point group: c1
  Charge       = 0
  Multiplicity = 1
  Basis Set: AUG-CC-PVTZ
    Blend: AUG-CC-PVTZ
  Basis Set: (AUG-CC-PVTZ AUX)
    Blend: AUG-CC-PVTZ-JKFIT

    Orbital Energies [Eh]
    ---------------------

    Doubly Occupied:

       1A    -20.626323     2A    -20.599581     3A    -20.572466
       4A    -11.395740     5A    -11.351216     6A    -11.243320
       7A    -11.222564     8A     -1.572536     9A     -1.470265
      10A     -1.370927    11A     -1.051030    12A     -0.931121
      13A     -0.861265    14A     -0.771027    15A     -0.740629
      16A     -0.716161    17A     -0.695975    18A     -0.685518
      19A     -0.625972    20A     -0.622643    21A     -0.602115
      22A     -0.561497    23A     -0.528035    24A     -0.506479
      25A     -0.505274    26A     -0.490547    27A     -0.384195

  @DF-RHF Final Energy:  -379.63615921013485

   => Energetics <=

    Nuclear Repulsion Energy =            297.9986217248638241
    One-Electron Energy =               -1109.8607184092470561
    Two-Electron Energy =                 432.2259374742483828
    Total Energy =                       -379.6361592101348492
  Basis Set: (AUG-CC-PVTZ AUX)
    Blend: AUG-CC-PVTZ-RI
    Molecular point group: c1

    Geometry (in Angstrom), charge = 0, multiplicity = 1:

       Center              X                  Y                   Z               Mass
    ------------   -----------------  -----------------  -----------------  -----------------
         O            0.469192392913     1.484027777175    -0.000639815503    15.994914619570
         O           -2.079590607087     0.694382777175     0.000781184497    15.994914619570
         O           -1.404715607087    -1.478137222825    -0.000796815503    15.994914619570
         C            1.367694392913    -0.763792222825     0.000863184497    12.000000000000
         C            2.757108392913    -0.144416222825    -0.000079815503    12.000000000000
         C            0.308411892913     0.472170777175    -0.000102715503    12.000000000000
         C           -1.153483607087    -0.283047222825    -0.000060815503    12.000000000000
         H            1.210267392913    -1.415960222825    -0.867232815503     1.007825032230
         H            1.210657392913    -1.413883222825     0.870623184497     1.007825032230
         H            2.903096392913     0.482642777175    -0.882002815503     1.007825032230
         H            2.903387392913     0.484688777175     0.880329184497     1.007825032230
         H            3.520266392913    -0.926386222825     0.000684184497     1.007825032230
         H           -2.946826607087     0.237072777175     0.000621184497     1.007825032230

  Basis Set: AUG-CC-PVTZ
    Blend: AUG-CC-PVTZ
  Basis Set: (AUG-CC-PVTZ AUX)
    Blend: AUG-CC-PVTZ-JKFIT
	 Reference Energy          =    -379.6361592101348492 [Eh]
	 Singles Energy            =      -0.0000000000000000 [Eh]
	 Same-Spin Energy          =      -0.3614514714846594 [Eh]
	 Opposite-Spin Energy      =      -1.1252017961578260 [Eh]
	 Correlation Energy        =      -1.4866532676424855 [Eh]
	 Total Energy              =    -381.1228124777773587 [Eh]

	 ================> DF-SCS-MP2 Energies <==================
	-----------------------------------------------------------
	 SCS Same-Spin Scale       =       0.3333333333333333 [-]
	 SCS Opposite-Spin Scale   =       1.2000000000000000 [-]
	 SCS Same-Spin Energy      =      -0.1204838238282198 [Eh]
	 SCS Opposite-Spin Energy  =      -1.3502421553893911 [Eh]
	 SCS Correlation Energy    =      -1.4707259792176108 [Eh]
	 SCS Total Energy          =    -381.1068851893524538 [Eh]
	-----------------------------------------------------------

  Dipole Moment: [D]
     X:     0.0545      Y:    -0.1494      Z:     0.0017     Total:     0.1591

*** Psi4 exiting successfully. Buy a developer a beer!
