                               Psi4 1.4a3.dev225

  ==> Input File <==

--------------------------------------------------------------------------
#psi4
#
memory 32 gb

molecule  {
0 1
  O       -0.3919860     1.5294040    -0.0000050
  O        2.1568610     0.7396830     0.0000040
  O        1.4818540    -1.4327810     0.0000010
  C       -1.2904460    -0.7184520    -0.0000070
  C       -2.6798770    -0.0990580     0.0000080
  C       -0.2360213     0.2855638    -0.0000031
  C        1.2307160    -0.2376360     0.0000010
  H       -1.1331960    -1.3695760     0.8689140
  H       -1.1332070    -1.3695530    -0.8689480
  H       -2.8259870     0.5289990     0.8811930
  H       -2.8259930     0.5290290    -0.8811540
  H       -3.4430160    -0.8810440    -0.0000020
  H        3.0240790     0.2823190     0.0000050
units angstrom
no_reorient  #important for SAPT in psi4, default
symmetry c1  #important for SAPT in psi4, default
}

set PROPERTIES_ORIGIN ["COM"]
properties('MP2/aug-cc-pvtz', properties = ['dipole'])
--------------------------------------------------------------------------

    Molecular point group: c1
  Charge       = 0
  Multiplicity = 1
  Basis Set: AUG-CC-PVTZ
    Blend: AUG-CC-PVTZ
  Basis Set: (AUG-CC-PVTZ AUX)
    Blend: AUG-CC-PVTZ-JKFIT

    Orbital Energies [Eh]
    ---------------------

    Doubly Occupied:

       1A    -20.636175     2A    -20.584746     3A    -20.581445
       4A    -11.416109     5A    -11.368589     6A    -11.255671
       7A    -11.230781     8A     -1.483735     9A     -1.391227
      10A     -1.382283    11A     -1.087421    12A     -0.961897
      13A     -0.883203    14A     -0.768972    15A     -0.727874
      16A     -0.711929    17A     -0.664906    18A     -0.651981
      19A     -0.633206    20A     -0.615579    21A     -0.546568
      22A     -0.535198    23A     -0.530169    24A     -0.521679
      25A     -0.500548    26A     -0.495803    27A     -0.439055

  @DF-RHF Final Energy:  -379.69958654039596

   => Energetics <=

    Nuclear Repulsion Energy =            296.4478515052086323
    One-Electron Energy =               -1107.0813850470394755
    Two-Electron Energy =                 430.9339470014348876
    Total Energy =                       -379.6995865403959556
  Basis Set: (AUG-CC-PVTZ AUX)
    Blend: AUG-CC-PVTZ-RI
    Molecular point group: c1

    Geometry (in Angstrom), charge = 0, multiplicity = 1:

       Center              X                  Y                   Z               Mass
    ------------   -----------------  -----------------  -----------------  -----------------
         O           -0.468639179415     1.511331272981    -0.000004949649    15.994914619570
         O            2.080207820585     0.721610272981     0.000004050351    15.994914619570
         O            1.405200820585    -1.450853727019     0.000001050351    15.994914619570
         C           -1.367099179415    -0.736524727019    -0.000006949649    12.000000000000
         C           -2.756530179415    -0.117130727019     0.000008050351    12.000000000000
         C           -0.312674479415     0.267491072981    -0.000003049649    12.000000000000
         C            1.154062820585    -0.255708727019     0.000001050351    12.000000000000
         H           -1.209849179415    -1.387648727019     0.868914050351     1.007825032230
         H           -1.209860179415    -1.387625727019    -0.868947949649     1.007825032230
         H           -2.902640179415     0.510926272981     0.881193050351     1.007825032230
         H           -2.902646179415     0.510956272981    -0.881153949649     1.007825032230
         H           -3.519669179415    -0.899116727019    -0.000001949649     1.007825032230
         H            2.947425820585     0.264246272981     0.000005050351     1.007825032230

  Basis Set: AUG-CC-PVTZ
    Blend: AUG-CC-PVTZ
  Basis Set: (AUG-CC-PVTZ AUX)
    Blend: AUG-CC-PVTZ-JKFIT
	 Reference Energy          =    -379.6995865403959556 [Eh]
	 Singles Energy            =      -0.0000000000000000 [Eh]
	 Same-Spin Energy          =      -0.3668372471738432 [Eh]
	 Opposite-Spin Energy      =      -1.1371378828081398 [Eh]
	 Correlation Energy        =      -1.5039751299819830 [Eh]
	 Total Energy              =    -381.2035616703779510 [Eh]

	 ================> DF-SCS-MP2 Energies <==================
	-----------------------------------------------------------
	 SCS Same-Spin Scale       =       0.3333333333333333 [-]
	 SCS Opposite-Spin Scale   =       1.2000000000000000 [-]
	 SCS Same-Spin Energy      =      -0.1222790823912811 [Eh]
	 SCS Opposite-Spin Energy  =      -1.3645654593697676 [Eh]
	 SCS Correlation Energy    =      -1.4868445417610487 [Eh]
	 SCS Total Energy          =    -381.1864310821570143 [Eh]
	-----------------------------------------------------------

  Dipole Moment: [D]
     X:    -0.1184      Y:    -1.3272      Z:    -0.0000     Total:     1.3325

*** Psi4 exiting successfully. Buy a developer a beer!
