                               Psi4 1.3.2 release

  ==> Input File <==

--------------------------------------------------------------------------
#psi4
#
memory 32 gb

molecule  {
0 1
  O        0.3919700     1.5293850    -0.0006790
  O       -2.1568130     0.7397400     0.0007420
  O       -1.4819380    -1.4327800    -0.0008360
  C        1.1759505    -0.8267522     0.0008543
  C        2.6798860    -0.0990590    -0.0001190
  C        0.1998040     0.3200060    -0.0000370
  C       -1.2307060    -0.2376900    -0.0001000
  H        1.1330450    -1.3706030    -0.8672720
  H        1.1334350    -1.3685260     0.8705840
  H        2.8258740     0.5280000    -0.8820420
  H        2.8261650     0.5300460     0.8802900
  H        3.4430440    -0.8810290     0.0006450
  H       -3.0240490     0.2824300     0.0005820
units angstrom
no_reorient  #important for SAPT in psi4, default
symmetry c1  #important for SAPT in psi4, default
}

set PROPERTIES_ORIGIN ["COM"]
properties('MP2/aug-cc-pvtz', properties = ['dipole'])
--------------------------------------------------------------------------

    Molecular point group: c1
  Charge       = 0
  Multiplicity = 1
  Basis Set: AUG-CC-PVTZ
    Blend: AUG-CC-PVTZ
  Basis Set: (AUG-CC-PVTZ AUX)
    Blend: AUG-CC-PVTZ-JKFIT

    Orbital Energies [Eh]
    ---------------------

    Doubly Occupied:

       1A    -20.634081     2A    -20.593484     3A    -20.582642
       4A    -11.411131     5A    -11.368911     6A    -11.249800
       7A    -11.233325     8A     -1.484240     9A     -1.412224
      10A     -1.382467    11A     -1.067853    12A     -0.957556
      13A     -0.881870    14A     -0.776204    15A     -0.728588
      16A     -0.711071    17A     -0.673755    18A     -0.656922
      19A     -0.637996    20A     -0.618414    21A     -0.540267
      22A     -0.539341    23A     -0.527075    24A     -0.525132
      25A     -0.501470    26A     -0.484543    27A     -0.436735

  @DF-RHF Final Energy:  -379.68370634996251

   => Energetics <=

    Nuclear Repulsion Energy =            296.2399338737460539
    One-Electron Energy =               -1106.6130871019213373
    Two-Electron Energy =                 430.6894468782127774
    Total Energy =                       -379.6837063499625060
  Basis Set: (AUG-CC-PVTZ AUX)
    Blend: AUG-CC-PVTZ-RI
    Molecular point group: c1

    Geometry (in Angstrom), charge = 0, multiplicity = 1:

       Center              X                  Y                   Z               Mass
    ------------   -----------------  -----------------  -----------------  -----------------
         O            0.486352590205     1.519997682743    -0.000655716444    15.994914619570
         O           -2.062430409795     0.730352682743     0.000765283556    15.994914619570
         O           -1.387555409795    -1.442167317257    -0.000812716444    15.994914619570
         C            1.270333090205    -0.836139517257     0.000877583556    12.000000000000
         C            2.774268590205    -0.108446317257    -0.000095716444    12.000000000000
         C            0.294186590205     0.310618682743    -0.000013716444    12.000000000000
         C           -1.136323409795    -0.247077317257    -0.000076716444    12.000000000000
         H            1.227427590205    -1.379990317257    -0.867248716444     1.007825032230
         H            1.227817590205    -1.377913317257     0.870607283556     1.007825032230
         H            2.920256590205     0.518612682743    -0.882018716444     1.007825032230
         H            2.920547590205     0.520658682743     0.880313283556     1.007825032230
         H            3.537426590205    -0.890416317257     0.000668283556     1.007825032230
         H           -2.929666409795     0.273042682743     0.000605283556     1.007825032230

  Basis Set: AUG-CC-PVTZ
    Blend: AUG-CC-PVTZ
  Basis Set: (AUG-CC-PVTZ AUX)
    Blend: AUG-CC-PVTZ-JKFIT
	 Reference Energy          =    -379.6837063499625060 [Eh]
	 Singles Energy            =      -0.0000000000000000 [Eh]
	 Same-Spin Energy          =      -0.3656875517013101 [Eh]
	 Opposite-Spin Energy      =      -1.1364466465784584 [Eh]
	 Correlation Energy        =      -1.5021341982797685 [Eh]
	 Total Energy              =    -381.1858405482422540 [Eh]

	 ================> DF-SCS-MP2 Energies <==================
	-----------------------------------------------------------
	 SCS Same-Spin Scale       =       0.3333333333333333 [-]
	 SCS Opposite-Spin Scale   =       1.2000000000000000 [-]
	 SCS Same-Spin Energy      =      -0.1218958505671034 [Eh]
	 SCS Opposite-Spin Energy  =      -1.3637359758941501 [Eh]
	 SCS Correlation Energy    =      -1.4856318264612534 [Eh]
	 SCS Total Energy          =    -381.1693381764237643 [Eh]
	-----------------------------------------------------------

  Dipole Moment: [D]
     X:    -0.1067      Y:    -1.1266      Z:     0.0025     Total:     1.1316

*** Psi4 exiting successfully. Buy a developer a beer!
