                               Psi4 1.3.2 release

  ==> Input File <==

--------------------------------------------------------------------------
#psi4
#
memory 32 gb

molecule  {
0 1
  O        0.3919700     1.5293850    -0.0006790
  O       -2.1568130     0.7397400     0.0007420
  O       -1.4819380    -1.4327800    -0.0008360
  C        1.2904720    -0.7184350     0.0008240
  C        2.6798860    -0.0990590    -0.0001190
  C        0.2100383     0.3304405     0.0218081
  C       -1.2307060    -0.2376900    -0.0001000
  H        1.1330450    -1.3706030    -0.8672720
  H        1.1334350    -1.3685260     0.8705840
  H        2.8258740     0.5280000    -0.8820420
  H        2.8261650     0.5300460     0.8802900
  H        3.4430440    -0.8810290     0.0006450
  H       -3.0240490     0.2824300     0.0005820
units angstrom
no_reorient  #important for SAPT in psi4, default
symmetry c1  #important for SAPT in psi4, default
}

set PROPERTIES_ORIGIN ["COM"]
properties('MP2/aug-cc-pvtz', properties = ['dipole'])
--------------------------------------------------------------------------

    Molecular point group: c1
  Charge       = 0
  Multiplicity = 1
  Basis Set: AUG-CC-PVTZ
    Blend: AUG-CC-PVTZ
  Basis Set: (AUG-CC-PVTZ AUX)
    Blend: AUG-CC-PVTZ-JKFIT

    Orbital Energies [Eh]
    ---------------------

    Doubly Occupied:

       1A    -20.635722     2A    -20.587618     3A    -20.582637
       4A    -11.414854     5A    -11.364877     6A    -11.253899
       7A    -11.228236     8A     -1.484932     9A     -1.417410
      10A     -1.382518    11A     -1.075212    12A     -0.961791
      13A     -0.879002    14A     -0.768360    15A     -0.728945
      16A     -0.713001    17A     -0.663865    18A     -0.657092
      19A     -0.630211    20A     -0.619178    21A     -0.547736
      22A     -0.541491    23A     -0.529148    24A     -0.520582
      25A     -0.505527    26A     -0.498477    27A     -0.434441

  @DF-RHF Final Energy:  -379.70713832704541

   => Energetics <=

    Nuclear Repulsion Energy =            296.6544224445851796
    One-Electron Energy =               -1107.4695940550500382
    Two-Electron Energy =                 431.1080332834194451
    Total Energy =                       -379.7071383270454135
  Basis Set: (AUG-CC-PVTZ AUX)
    Blend: AUG-CC-PVTZ-RI
    Molecular point group: c1

    Geometry (in Angstrom), charge = 0, multiplicity = 1:

       Center              X                  Y                   Z               Mass
    ------------   -----------------  -----------------  -----------------  -----------------
         O            0.471679996421     1.506031234246    -0.003221366289    15.994914619570
         O           -2.077103003579     0.716386234246    -0.001800366289    15.994914619570
         O           -1.402228003579    -1.456133765754    -0.003378366289    15.994914619570
         C            1.370181996421    -0.741788765754    -0.001718366289    12.000000000000
         C            2.759595996421    -0.122412765754    -0.002661366289    12.000000000000
         C            0.289748296421     0.307086734246     0.019265733711    12.000000000000
         C           -1.150996003579    -0.261043765754    -0.002642366289    12.000000000000
         H            1.212754996421    -1.393956765754    -0.869814366289     1.007825032230
         H            1.213144996421    -1.391879765754     0.868041633711     1.007825032230
         H            2.905583996421     0.504646234246    -0.884584366289     1.007825032230
         H            2.905874996421     0.506692234246     0.877747633711     1.007825032230
         H            3.522753996421    -0.904382765754    -0.001897366289     1.007825032230
         H           -2.944339003579     0.259076234246    -0.001960366289     1.007825032230

  Basis Set: AUG-CC-PVTZ
    Blend: AUG-CC-PVTZ
  Basis Set: (AUG-CC-PVTZ AUX)
    Blend: AUG-CC-PVTZ-JKFIT
	 Reference Energy          =    -379.7071383270454135 [Eh]
	 Singles Energy            =      -0.0000000000000000 [Eh]
	 Same-Spin Energy          =      -0.3654347020207063 [Eh]
	 Opposite-Spin Energy      =      -1.1343778086790588 [Eh]
	 Correlation Energy        =      -1.4998125106997651 [Eh]
	 Total Energy              =    -381.2069508377451825 [Eh]

	 ================> DF-SCS-MP2 Energies <==================
	-----------------------------------------------------------
	 SCS Same-Spin Scale       =       0.3333333333333333 [-]
	 SCS Opposite-Spin Scale   =       1.2000000000000000 [-]
	 SCS Same-Spin Energy      =      -0.1218115673402354 [Eh]
	 SCS Opposite-Spin Energy  =      -1.3612533704148706 [Eh]
	 SCS Correlation Energy    =      -1.4830649377551059 [Eh]
	 SCS Total Energy          =    -381.1902032648005161 [Eh]
	-----------------------------------------------------------

  Dipole Moment: [D]
     X:    -0.0259      Y:    -1.1472      Z:     0.0219     Total:     1.1477

*** Psi4 exiting successfully. Buy a developer a beer!
