                               Psi4 1.4a3.dev225

  ==> Input File <==

--------------------------------------------------------------------------
#psi4
#
memory 32 gb

molecule  {
0 1
  O       -0.3919860     1.5294040    -0.0000050
  O        2.1568610     0.7396830     0.0000040
  O        1.4818540    -1.4327810     0.0000010
  C       -1.2904460    -0.7184520    -0.0000070
  C       -2.6798770    -0.0990580     0.0000080
  C       -0.2076579     0.3694234    -0.0000031
  C        1.2307160    -0.2376360     0.0000010
  H       -1.1331960    -1.3695760     0.8689140
  H       -1.1332070    -1.3695530    -0.8689480
  H       -2.8259870     0.5289990     0.8811930
  H       -2.8259930     0.5290290    -0.8811540
  H       -3.4430160    -0.8810440    -0.0000020
  H        3.0240790     0.2823190     0.0000050
units angstrom
no_reorient  #important for SAPT in psi4, default
symmetry c1  #important for SAPT in psi4, default
}

set PROPERTIES_ORIGIN ["COM"]
properties('MP2/aug-cc-pvtz', properties = ['dipole'])
--------------------------------------------------------------------------

    Molecular point group: c1
  Charge       = 0
  Multiplicity = 1
  Basis Set: AUG-CC-PVTZ
    Blend: AUG-CC-PVTZ
  Basis Set: (AUG-CC-PVTZ AUX)
    Blend: AUG-CC-PVTZ-JKFIT

    Orbital Energies [Eh]
    ---------------------

    Doubly Occupied:

       1A    -20.634486     2A    -20.589328     3A    -20.581712
       4A    -11.412448     5A    -11.361837     6A    -11.251993
       7A    -11.226731     8A     -1.485345     9A     -1.442798
      10A     -1.381081    11A     -1.068702    12A     -0.957422
      13A     -0.874977    14A     -0.766699    15A     -0.729309
      16A     -0.715108    17A     -0.663948    18A     -0.663480
      19A     -0.628423    20A     -0.620885    21A     -0.553002
      22A     -0.550227    23A     -0.528862    24A     -0.518406
      25A     -0.508607    26A     -0.497554    27A     -0.426684

  @DF-RHF Final Energy:  -379.70787016710233

   => Energetics <=

    Nuclear Repulsion Energy =            296.8535833155831938
    One-Electron Energy =               -1107.8427993703787706
    Two-Electron Energy =                 431.2813458876933055
    Total Energy =                       -379.7078701671023282
  Basis Set: (AUG-CC-PVTZ AUX)
    Blend: AUG-CC-PVTZ-RI
    Molecular point group: c1

    Geometry (in Angstrom), charge = 0, multiplicity = 1:

       Center              X                  Y                   Z               Mass
    ------------   -----------------  -----------------  -----------------  -----------------
         O           -0.471975013473     1.501468502306    -0.000004949649    15.994914619570
         O            2.076871986527     0.711747502306     0.000004050351    15.994914619570
         O            1.401864986527    -1.460716497694     0.000001050351    15.994914619570
         C           -1.370435013473    -0.746387497694    -0.000006949649    12.000000000000
         C           -2.759866013473    -0.126993497694     0.000008050351    12.000000000000
         C           -0.287646913473     0.341487902306    -0.000003049649    12.000000000000
         C            1.150726986527    -0.265571497694     0.000001050351    12.000000000000
         H           -1.213185013473    -1.397511497694     0.868914050351     1.007825032230
         H           -1.213196013473    -1.397488497694    -0.868947949649     1.007825032230
         H           -2.905976013473     0.501063502306     0.881193050351     1.007825032230
         H           -2.905982013473     0.501093502306    -0.881153949649     1.007825032230
         H           -3.523005013473    -0.908979497694    -0.000001949649     1.007825032230
         H            2.944089986527     0.254383502306     0.000005050351     1.007825032230

  Basis Set: AUG-CC-PVTZ
    Blend: AUG-CC-PVTZ
  Basis Set: (AUG-CC-PVTZ AUX)
    Blend: AUG-CC-PVTZ-JKFIT
	 Reference Energy          =    -379.7078701671023282 [Eh]
	 Singles Energy            =      -0.0000000000000000 [Eh]
	 Same-Spin Energy          =      -0.3643569254485751 [Eh]
	 Opposite-Spin Energy      =      -1.1320013199260479 [Eh]
	 Correlation Energy        =      -1.4963582453746231 [Eh]
	 Total Energy              =    -381.2042284124769367 [Eh]

	 ================> DF-SCS-MP2 Energies <==================
	-----------------------------------------------------------
	 SCS Same-Spin Scale       =       0.3333333333333333 [-]
	 SCS Opposite-Spin Scale   =       1.2000000000000000 [-]
	 SCS Same-Spin Energy      =      -0.1214523084828584 [Eh]
	 SCS Opposite-Spin Energy  =      -1.3584015839112575 [Eh]
	 SCS Correlation Energy    =      -1.4798538923941158 [Eh]
	 SCS Total Energy          =    -381.1877240594964178 [Eh]
	-----------------------------------------------------------

  Dipole Moment: [D]
     X:     0.0624      Y:    -0.9824      Z:    -0.0000     Total:     0.9844

*** Psi4 exiting successfully. Buy a developer a beer!
