                               Psi4 1.3.2 release

  ==> Input File <==

--------------------------------------------------------------------------
#psi4
#
memory 32 gb

molecule  {
0 1
  O        0.3919700     1.5293850    -0.0006790
  O       -2.1568130     0.7397400     0.0007420
  O       -1.4819380    -1.4327800    -0.0008360
  C        1.2904720    -0.7184350     0.0008240
  C        2.6798860    -0.0990590    -0.0001190
  C        0.1454770     0.2508742    -0.1308695
  C       -1.2307060    -0.2376900    -0.0001000
  H        1.1330450    -1.3706030    -0.8672720
  H        1.1334350    -1.3685260     0.8705840
  H        2.8258740     0.5280000    -0.8820420
  H        2.8261650     0.5300460     0.8802900
  H        3.4430440    -0.8810290     0.0006450
  H       -3.0240490     0.2824300     0.0005820
units angstrom
no_reorient  #important for SAPT in psi4, default
symmetry c1  #important for SAPT in psi4, default
}

set PROPERTIES_ORIGIN ["COM"]
properties('MP2/aug-cc-pvtz', properties = ['dipole'])
--------------------------------------------------------------------------

    Molecular point group: c1
  Charge       = 0
  Multiplicity = 1
  Basis Set: AUG-CC-PVTZ
    Blend: AUG-CC-PVTZ
  Basis Set: (AUG-CC-PVTZ AUX)
    Blend: AUG-CC-PVTZ-JKFIT

    Orbital Energies [Eh]
    ---------------------

    Doubly Occupied:

       1A    -20.639831     2A    -20.589499     3A    -20.589299
       4A    -11.421224     5A    -11.371285     6A    -11.257948
       7A    -11.229255     8A     -1.490861     9A     -1.389768
      10A     -1.362105    11A     -1.076782    12A     -0.985329
      13A     -0.886267    14A     -0.777501    15A     -0.732688
      16A     -0.707557    17A     -0.667914    18A     -0.641941
      19A     -0.628954    20A     -0.614121    21A     -0.547317
      22A     -0.529495    23A     -0.527454    24A     -0.516566
      25A     -0.502944    26A     -0.481667    27A     -0.450088

  @DF-RHF Final Energy:  -379.67680520658985

   => Energetics <=

    Nuclear Repulsion Energy =            296.2904972470174130
    One-Electron Energy =               -1106.7032906468039073
    Two-Electron Energy =                 430.7359881931967038
    Total Energy =                       -379.6768052065898473
  Basis Set: (AUG-CC-PVTZ AUX)
    Blend: AUG-CC-PVTZ-RI
    Molecular point group: c1

    Geometry (in Angstrom), charge = 0, multiplicity = 1:

       Center              X                  Y                   Z               Mass
    ------------   -----------------  -----------------  -----------------  -----------------
         O            0.479273084110     1.515389067700     0.014735124751    15.994914619570
         O           -2.069509915890     0.725744067700     0.016156124751    15.994914619570
         O           -1.394634915890    -1.446775932300     0.014578124751    15.994914619570
         C            1.377775084110    -0.732430932300     0.016238124751    12.000000000000
         C            2.767189084110    -0.113054932300     0.015295124751    12.000000000000
         C            0.232780084110     0.236878267700    -0.115455375249    12.000000000000
         C           -1.143402915890    -0.251685932300     0.015314124751    12.000000000000
         H            1.220348084110    -1.384598932300    -0.851857875249     1.007825032230
         H            1.220738084110    -1.382521932300     0.885998124751     1.007825032230
         H            2.913177084110     0.514004067700    -0.866627875249     1.007825032230
         H            2.913468084110     0.516050067700     0.895704124751     1.007825032230
         H            3.530347084110    -0.895024932300     0.016059124751     1.007825032230
         H           -2.936745915890     0.268434067700     0.015996124751     1.007825032230

  Basis Set: AUG-CC-PVTZ
    Blend: AUG-CC-PVTZ
  Basis Set: (AUG-CC-PVTZ AUX)
    Blend: AUG-CC-PVTZ-JKFIT
	 Reference Energy          =    -379.6768052065898473 [Eh]
	 Singles Energy            =      -0.0000000000000000 [Eh]
	 Same-Spin Energy          =      -0.3690002370553799 [Eh]
	 Opposite-Spin Energy      =      -1.1432218944497921 [Eh]
	 Correlation Energy        =      -1.5122221315051720 [Eh]
	 Total Energy              =    -381.1890273380950021 [Eh]

	 ================> DF-SCS-MP2 Energies <==================
	-----------------------------------------------------------
	 SCS Same-Spin Scale       =       0.3333333333333333 [-]
	 SCS Opposite-Spin Scale   =       1.2000000000000000 [-]
	 SCS Same-Spin Energy      =      -0.1230000790184600 [Eh]
	 SCS Opposite-Spin Energy  =      -1.3718662733397504 [Eh]
	 SCS Correlation Energy    =      -1.4948663523582104 [Eh]
	 SCS Total Energy          =    -381.1716715589480486 [Eh]
	-----------------------------------------------------------

  Dipole Moment: [D]
     X:    -0.1828      Y:    -1.3291      Z:    -0.0956     Total:     1.3450

*** Psi4 exiting successfully. Buy a developer a beer!
