                               Psi4 1.3.2 release

  ==> Input File <==

--------------------------------------------------------------------------
#psi4
#
memory 32 gb

molecule  {
0 1
  O        0.3919700     1.5293850    -0.0006790
  O       -2.1568130     0.7397400     0.0007420
  O       -1.4819380    -1.4327800    -0.0008360
  C        1.2904720    -0.7184350     0.0008240
  C        2.6688648    -0.0749047    -0.0001420
  C        0.1998040     0.3200060    -0.0000370
  C       -1.2307060    -0.2376900    -0.0001000
  H        1.1330450    -1.3706030    -0.8672720
  H        1.1334350    -1.3685260     0.8705840
  H        2.8258740     0.5280000    -0.8820420
  H        2.8261650     0.5300460     0.8802900
  H        3.4430440    -0.8810290     0.0006450
  H       -3.0240490     0.2824300     0.0005820
units angstrom
no_reorient  #important for SAPT in psi4, default
symmetry c1  #important for SAPT in psi4, default
}

set PROPERTIES_ORIGIN ["COM"]
properties('MP2/aug-cc-pvtz', properties = ['dipole'])
--------------------------------------------------------------------------

    Molecular point group: c1
  Charge       = 0
  Multiplicity = 1
  Basis Set: AUG-CC-PVTZ
    Blend: AUG-CC-PVTZ
  Basis Set: (AUG-CC-PVTZ AUX)
    Blend: AUG-CC-PVTZ-JKFIT

    Orbital Energies [Eh]
    ---------------------

    Doubly Occupied:

       1A    -20.636349     2A    -20.587340     3A    -20.583793
       4A    -11.415792     5A    -11.365023     6A    -11.254437
       7A    -11.228392     8A     -1.485769     9A     -1.409932
      10A     -1.383601    11A     -1.075488    12A     -0.965219
      13A     -0.879962    14A     -0.769673    15A     -0.729401
      16A     -0.712401    17A     -0.664803    18A     -0.653700
      19A     -0.631971    20A     -0.619240    21A     -0.541884
      22A     -0.540372    23A     -0.530057    24A     -0.519408
      25A     -0.505000    26A     -0.500393    27A     -0.436738

  @DF-RHF Final Energy:  -379.70527246528763

   => Energetics <=

    Nuclear Repulsion Energy =            296.7814649413038524
    One-Electron Energy =               -1107.7211953709786485
    Two-Electron Energy =                 431.2344579643871612
    Total Energy =                       -379.7052724652876350
  Basis Set: (AUG-CC-PVTZ AUX)
    Blend: AUG-CC-PVTZ-RI
    Molecular point group: c1

    Geometry (in Angstrom), charge = 0, multiplicity = 1:

       Center              X                  Y                   Z               Mass
    ------------   -----------------  -----------------  -----------------  -----------------
         O            0.474179866705     1.504417641514    -0.000649447804    15.994914619570
         O           -2.074603133295     0.714772641514     0.000771552196    15.994914619570
         O           -1.399728133295    -1.457747358486    -0.000806447804    15.994914619570
         C            1.372681866705    -0.743402358486     0.000853552196    12.000000000000
         C            2.751074666705    -0.099872058486    -0.000112447804    12.000000000000
         C            0.282013866705     0.295038641514    -0.000007447804    12.000000000000
         C           -1.148496133295    -0.262657358486    -0.000070447804    12.000000000000
         H            1.215254866705    -1.395570358486    -0.867242447804     1.007825032230
         H            1.215644866705    -1.393493358486     0.870613552196     1.007825032230
         H            2.908083866705     0.503032641514    -0.882012447804     1.007825032230
         H            2.908374866705     0.505078641514     0.880319552196     1.007825032230
         H            3.525253866705    -0.905996358486     0.000674552196     1.007825032230
         H           -2.941839133295     0.257462641514     0.000611552196     1.007825032230

  Basis Set: AUG-CC-PVTZ
    Blend: AUG-CC-PVTZ
  Basis Set: (AUG-CC-PVTZ AUX)
    Blend: AUG-CC-PVTZ-JKFIT
	 Reference Energy          =    -379.7052724652876350 [Eh]
	 Singles Energy            =      -0.0000000000000000 [Eh]
	 Same-Spin Energy          =      -0.3657956474364817 [Eh]
	 Opposite-Spin Energy      =      -1.1352391208563943 [Eh]
	 Correlation Energy        =      -1.5010347682928762 [Eh]
	 Total Energy              =    -381.2063072335805032 [Eh]

	 ================> DF-SCS-MP2 Energies <==================
	-----------------------------------------------------------
	 SCS Same-Spin Scale       =       0.3333333333333333 [-]
	 SCS Opposite-Spin Scale   =       1.2000000000000000 [-]
	 SCS Same-Spin Energy      =      -0.1219318824788272 [Eh]
	 SCS Opposite-Spin Energy  =      -1.3622869450276731 [Eh]
	 SCS Correlation Energy    =      -1.4842188275065005 [Eh]
	 SCS Total Energy          =    -381.1894912927941164 [Eh]
	-----------------------------------------------------------

  Dipole Moment: [D]
     X:    -0.0653      Y:    -1.1723      Z:     0.0025     Total:     1.1741

*** Psi4 exiting successfully. Buy a developer a beer!
