                               Psi4 1.3.2 release

  ==> Input File <==

--------------------------------------------------------------------------
#psi4
#
memory 32 gb

molecule  {
0 1
  O        0.3919700     1.5293850    -0.0006790
  O       -2.1568130     0.7397400     0.0007420
  O       -1.4819380    -1.4327800    -0.0008360
  C        1.2904720    -0.7184350     0.0008240
  C        2.6798860    -0.0990590    -0.0001190
  C        0.1622188     0.2751380    -0.0873484
  C       -1.2307060    -0.2376900    -0.0001000
  H        1.1330450    -1.3706030    -0.8672720
  H        1.1334350    -1.3685260     0.8705840
  H        2.8258740     0.5280000    -0.8820420
  H        2.8261650     0.5300460     0.8802900
  H        3.4430440    -0.8810290     0.0006450
  H       -3.0240490     0.2824300     0.0005820
units angstrom
no_reorient  #important for SAPT in psi4, default
symmetry c1  #important for SAPT in psi4, default
}

set PROPERTIES_ORIGIN ["COM"]
properties('MP2/aug-cc-pvtz', properties = ['dipole'])
--------------------------------------------------------------------------

    Molecular point group: c1
  Charge       = 0
  Multiplicity = 1
  Basis Set: AUG-CC-PVTZ
    Blend: AUG-CC-PVTZ
  Basis Set: (AUG-CC-PVTZ AUX)
    Blend: AUG-CC-PVTZ-JKFIT

    Orbital Energies [Eh]
    ---------------------

    Doubly Occupied:

       1A    -20.638970     2A    -20.588146     3A    -20.587958
       4A    -11.419887     5A    -11.368969     6A    -11.256461
       7A    -11.228823     8A     -1.489407     9A     -1.388297
      10A     -1.377897    11A     -1.076051    12A     -0.979214
      13A     -0.884360    14A     -0.774854    15A     -0.731725
      16A     -0.709513    17A     -0.666768    18A     -0.644623
      19A     -0.629961    20A     -0.617227    21A     -0.546649
      22A     -0.531180    23A     -0.527987    24A     -0.518544
      25A     -0.502685    26A     -0.489750    27A     -0.446591

  @DF-RHF Final Energy:  -379.69082366274245

   => Energetics <=

    Nuclear Repulsion Energy =            296.4482758100110686
    One-Electron Energy =               -1107.0332011751247592
    Two-Electron Energy =                 430.8941017023712448
    Total Energy =                       -379.6908236627424458
  Basis Set: (AUG-CC-PVTZ AUX)
    Blend: AUG-CC-PVTZ-RI
    Molecular point group: c1

    Geometry (in Angstrom), charge = 0, multiplicity = 1:

       Center              X                  Y                   Z               Mass
    ------------   -----------------  -----------------  -----------------  -----------------
         O            0.477304072403     1.512535389706     0.009616585802    15.994914619570
         O           -2.071478927597     0.722890389706     0.011037585802    15.994914619570
         O           -1.396603927597    -1.449629610294     0.009459585802    15.994914619570
         C            1.375806072403    -0.735284610294     0.011119585802    12.000000000000
         C            2.765220072403    -0.115908610294     0.010176585802    12.000000000000
         C            0.247552872403     0.258288389706    -0.077052814198    12.000000000000
         C           -1.145371927597    -0.254539610294     0.010195585802    12.000000000000
         H            1.218379072403    -1.387452610294    -0.856976414198     1.007825032230
         H            1.218769072403    -1.385375610294     0.880879585802     1.007825032230
         H            2.911208072403     0.511150389706    -0.871746414198     1.007825032230
         H            2.911499072403     0.513196389706     0.890585585802     1.007825032230
         H            3.528378072403    -0.897878610294     0.010940585802     1.007825032230
         H           -2.938714927597     0.265580389706     0.010877585802     1.007825032230

  Basis Set: AUG-CC-PVTZ
    Blend: AUG-CC-PVTZ
  Basis Set: (AUG-CC-PVTZ AUX)
    Blend: AUG-CC-PVTZ-JKFIT
	 Reference Energy          =    -379.6908236627424458 [Eh]
	 Singles Energy            =      -0.0000000000000000 [Eh]
	 Same-Spin Energy          =      -0.3676969334569792 [Eh]
	 Opposite-Spin Energy      =      -1.1399729393190545 [Eh]
	 Correlation Energy        =      -1.5076698727760338 [Eh]
	 Total Energy              =    -381.1984935355184803 [Eh]

	 ================> DF-SCS-MP2 Energies <==================
	-----------------------------------------------------------
	 SCS Same-Spin Scale       =       0.3333333333333333 [-]
	 SCS Opposite-Spin Scale   =       1.2000000000000000 [-]
	 SCS Same-Spin Energy      =      -0.1225656444856597 [Eh]
	 SCS Opposite-Spin Energy  =      -1.3679675271828653 [Eh]
	 SCS Correlation Energy    =      -1.4905331716685251 [Eh]
	 SCS Total Energy          =    -381.1813568344109626 [Eh]
	-----------------------------------------------------------

  Dipole Moment: [D]
     X:    -0.1613      Y:    -1.2946      Z:    -0.0671     Total:     1.3064

*** Psi4 exiting successfully. Buy a developer a beer!
