                               Psi4 1.4a3.dev225

  ==> Input File <==

--------------------------------------------------------------------------
#psi4
#
memory 32 gb

molecule  {
0 1
  O       -0.3919860     1.5294040    -0.0000050
  O        2.1568610     0.7396830     0.0000040
  O        1.4818540    -1.4327810     0.0000010
  C       -1.2904460    -0.7184520    -0.0000070
  C       -2.6798770    -0.0990580     0.0000080
  C       -0.2029497     0.3397952    -0.0000030
  C        1.2307160    -0.2376360     0.0000010
  H       -1.1331960    -1.3695760     0.8689140
  H       -1.1332070    -1.3695530    -0.8689480
  H       -2.8259870     0.5289990     0.8811930
  H       -2.8259930     0.5290290    -0.8811540
  H       -3.4430160    -0.8810440    -0.0000020
  H        3.0240790     0.2823190     0.0000050
units angstrom
no_reorient  #important for SAPT in psi4, default
symmetry c1  #important for SAPT in psi4, default
}

set PROPERTIES_ORIGIN ["COM"]
properties('MP2/aug-cc-pvtz', properties = ['dipole'])
--------------------------------------------------------------------------

    Molecular point group: c1
  Charge       = 0
  Multiplicity = 1
  Basis Set: AUG-CC-PVTZ
    Blend: AUG-CC-PVTZ
  Basis Set: (AUG-CC-PVTZ AUX)
    Blend: AUG-CC-PVTZ-JKFIT

    Orbital Energies [Eh]
    ---------------------

    Doubly Occupied:

       1A    -20.635738     2A    -20.588150     3A    -20.583038
       4A    -11.414720     5A    -11.364019     6A    -11.253375
       7A    -11.227655     8A     -1.485440     9A     -1.422927
      10A     -1.382686    11A     -1.072595    12A     -0.962280
      13A     -0.878056    14A     -0.768335    15A     -0.729309
      16A     -0.713559    17A     -0.663886    18A     -0.658011
      19A     -0.629536    20A     -0.620030    21A     -0.548188
      22A     -0.543559    23A     -0.528793    24A     -0.519999
      25A     -0.506509    26A     -0.498405    27A     -0.433292

  @DF-RHF Final Energy:  -379.70789992762906

   => Energetics <=

    Nuclear Repulsion Energy =            296.7155233877704745
    One-Electron Energy =               -1107.5826641601263418
    Two-Electron Energy =                 431.1592408447268667
    Total Energy =                       -379.7078999276290574
  Basis Set: (AUG-CC-PVTZ AUX)
    Blend: AUG-CC-PVTZ-RI
    Molecular point group: c1

    Geometry (in Angstrom), charge = 0, multiplicity = 1:

       Center              X                  Y                   Z               Mass
    ------------   -----------------  -----------------  -----------------  -----------------
         O           -0.472528747296     1.504953090142    -0.000004961410    15.994914619570
         O            2.076318252704     0.715232090142     0.000004038590    15.994914619570
         O            1.401311252704    -1.457231909858     0.000001038590    15.994914619570
         C           -1.370988747296    -0.742902909858    -0.000006961410    12.000000000000
         C           -2.760419747296    -0.123508909858     0.000008038590    12.000000000000
         C           -0.283492447296     0.315344290142    -0.000002961410    12.000000000000
         C            1.150173252704    -0.262086909858     0.000001038590    12.000000000000
         H           -1.213738747296    -1.394026909858     0.868914038590     1.007825032230
         H           -1.213749747296    -1.394003909858    -0.868947961410     1.007825032230
         H           -2.906529747296     0.504548090142     0.881193038590     1.007825032230
         H           -2.906535747296     0.504578090142    -0.881153961410     1.007825032230
         H           -3.523558747296    -0.905494909858    -0.000001961410     1.007825032230
         H            2.943536252704     0.257868090142     0.000005038590     1.007825032230

  Basis Set: AUG-CC-PVTZ
    Blend: AUG-CC-PVTZ
  Basis Set: (AUG-CC-PVTZ AUX)
    Blend: AUG-CC-PVTZ-JKFIT
	 Reference Energy          =    -379.7078999276290574 [Eh]
	 Singles Energy            =      -0.0000000000000000 [Eh]
	 Same-Spin Energy          =      -0.3651741885095694 [Eh]
	 Opposite-Spin Energy      =      -1.1338584966236285 [Eh]
	 Correlation Energy        =      -1.4990326851331979 [Eh]
	 Total Energy              =    -381.2069326127622730 [Eh]

	 ================> DF-SCS-MP2 Energies <==================
	-----------------------------------------------------------
	 SCS Same-Spin Scale       =       0.3333333333333333 [-]
	 SCS Opposite-Spin Scale   =       1.2000000000000000 [-]
	 SCS Same-Spin Energy      =      -0.1217247295031898 [Eh]
	 SCS Opposite-Spin Energy  =      -1.3606301959483542 [Eh]
	 SCS Correlation Energy    =      -1.4823549254515440 [Eh]
	 SCS Total Energy          =    -381.1902548530806030 [Eh]
	-----------------------------------------------------------

  Dipole Moment: [D]
     X:     0.0649      Y:    -1.1070      Z:    -0.0000     Total:     1.1089

*** Psi4 exiting successfully. Buy a developer a beer!
