                               Psi4 1.3.2 release

  ==> Input File <==

--------------------------------------------------------------------------
#psi4
#
memory 32 gb

molecule  {
0 1
  O        0.3919700     1.5293850    -0.0006790
  O       -2.1221370     0.7714652     0.0007555
  O       -1.4819380    -1.4327800    -0.0008360
  C        1.2904720    -0.7184350     0.0008240
  C        2.6798860    -0.0990590    -0.0001190
  C        0.1998040     0.3200060    -0.0000370
  C       -1.2307060    -0.2376900    -0.0001000
  H        1.1330450    -1.3706030    -0.8672720
  H        1.1334350    -1.3685260     0.8705840
  H        2.8258740     0.5280000    -0.8820420
  H        2.8261650     0.5300460     0.8802900
  H        3.4430440    -0.8810290     0.0006450
  H       -3.0240490     0.2824300     0.0005820
units angstrom
no_reorient  #important for SAPT in psi4, default
symmetry c1  #important for SAPT in psi4, default
}

set PROPERTIES_ORIGIN ["COM"]
properties('MP2/aug-cc-pvtz', properties = ['dipole'])
--------------------------------------------------------------------------

    Molecular point group: c1
  Charge       = 0
  Multiplicity = 1
  Basis Set: AUG-CC-PVTZ
    Blend: AUG-CC-PVTZ
  Basis Set: (AUG-CC-PVTZ AUX)
    Blend: AUG-CC-PVTZ-JKFIT

    Orbital Energies [Eh]
    ---------------------

    Doubly Occupied:

       1A    -20.642262     2A    -20.585808     3A    -20.585585
       4A    -11.416163     5A    -11.363040     6A    -11.253028
       7A    -11.227449     8A     -1.482310     9A     -1.408254
      10A     -1.383092    11A     -1.074144    12A     -0.962465
      13A     -0.875248    14A     -0.762059    15A     -0.730060
      16A     -0.710164    17A     -0.664314    18A     -0.651560
      19A     -0.629620    20A     -0.619090    21A     -0.545750
      22A     -0.537300    23A     -0.527844    24A     -0.522102
      25A     -0.505296    26A     -0.497985    27A     -0.435246

  @DF-RHF Final Energy:  -379.70019698158251

   => Energetics <=

    Nuclear Repulsion Energy =            296.7300753507400941
    One-Electron Energy =               -1107.6660685334391019
    Two-Electron Energy =                 431.2357962011165000
    Total Energy =                       -379.7001969815825078
  Basis Set: (AUG-CC-PVTZ AUX)
    Blend: AUG-CC-PVTZ-RI
    Molecular point group: c1

    Geometry (in Angstrom), charge = 0, multiplicity = 1:

       Center              X                  Y                   Z               Mass
    ------------   -----------------  -----------------  -----------------  -----------------
         O            0.467447703079     1.502285066265    -0.000654269162    15.994914619570
         O           -2.046659296921     0.744365266265     0.000780230838    15.994914619570
         O           -1.406460296921    -1.459879933735    -0.000811269162    15.994914619570
         C            1.365949703079    -0.745534933735     0.000848730838    12.000000000000
         C            2.755363703079    -0.126158933735    -0.000094269162    12.000000000000
         C            0.275281703079     0.292906066265    -0.000012269162    12.000000000000
         C           -1.155228296921    -0.264789933735    -0.000075269162    12.000000000000
         H            1.208522703079    -1.397702933735    -0.867247269162     1.007825032230
         H            1.208912703079    -1.395625933735     0.870608730838     1.007825032230
         H            2.901351703079     0.500900066265    -0.882017269162     1.007825032230
         H            2.901642703079     0.502946066265     0.880314730838     1.007825032230
         H            3.518521703079    -0.908128933735     0.000669730838     1.007825032230
         H           -2.948571296921     0.255330066265     0.000606730838     1.007825032230

  Basis Set: AUG-CC-PVTZ
    Blend: AUG-CC-PVTZ
  Basis Set: (AUG-CC-PVTZ AUX)
    Blend: AUG-CC-PVTZ-JKFIT
	 Reference Energy          =    -379.7001969815825078 [Eh]
	 Singles Energy            =      -0.0000000000000000 [Eh]
	 Same-Spin Energy          =      -0.3667149682981364 [Eh]
	 Opposite-Spin Energy      =      -1.1371944940570078 [Eh]
	 Correlation Energy        =      -1.5039094623551441 [Eh]
	 Total Energy              =    -381.2041064439376328 [Eh]

	 ================> DF-SCS-MP2 Energies <==================
	-----------------------------------------------------------
	 SCS Same-Spin Scale       =       0.3333333333333333 [-]
	 SCS Opposite-Spin Scale   =       1.2000000000000000 [-]
	 SCS Same-Spin Energy      =      -0.1222383227660455 [Eh]
	 SCS Opposite-Spin Energy  =      -1.3646333928684093 [Eh]
	 SCS Correlation Energy    =      -1.4868717156344549 [Eh]
	 SCS Total Energy          =    -381.1870686972169437 [Eh]
	-----------------------------------------------------------

  Dipole Moment: [D]
     X:    -0.1637      Y:    -1.1952      Z:     0.0025     Total:     1.2064

*** Psi4 exiting successfully. Buy a developer a beer!
