                               Psi4 1.4a3.dev225

  ==> Input File <==

--------------------------------------------------------------------------
#psi4
#
memory 32 gb

molecule  {
0 1
  O       -0.3919860     1.5294040    -0.0000050
  O        2.1568610     0.7396830     0.0000040
  O        1.4818540    -1.4327810     0.0000010
  C       -1.2904460    -0.7184520    -0.0000070
  C       -2.6798770    -0.0990580     0.0000080
  C       -0.1919641     0.2706626    -0.0000029
  C        1.2307160    -0.2376360     0.0000010
  H       -1.1331960    -1.3695760     0.8689140
  H       -1.1332070    -1.3695530    -0.8689480
  H       -2.8259870     0.5289990     0.8811930
  H       -2.8259930     0.5290290    -0.8811540
  H       -3.4430160    -0.8810440    -0.0000020
  H        3.0240790     0.2823190     0.0000050
units angstrom
no_reorient  #important for SAPT in psi4, default
symmetry c1  #important for SAPT in psi4, default
}

set PROPERTIES_ORIGIN ["COM"]
properties('MP2/aug-cc-pvtz', properties = ['dipole'])
--------------------------------------------------------------------------

    Molecular point group: c1
  Charge       = 0
  Multiplicity = 1
  Basis Set: AUG-CC-PVTZ
    Blend: AUG-CC-PVTZ
  Basis Set: (AUG-CC-PVTZ AUX)
    Blend: AUG-CC-PVTZ-JKFIT

    Orbital Energies [Eh]
    ---------------------

    Doubly Occupied:

       1A    -20.638251     2A    -20.585750     3A    -20.585621
       4A    -11.418897     5A    -11.368924     6A    -11.256249
       7A    -11.229908     8A     -1.487434     9A     -1.386510
      10A     -1.378839    11A     -1.081989    12A     -0.972893
      13A     -0.885572    14A     -0.773026    15A     -0.730208
      16A     -0.710699    17A     -0.666204    18A     -0.646255
      19A     -0.632398    20A     -0.616229    21A     -0.546901
      22A     -0.532253    23A     -0.528641    24A     -0.519642
      25A     -0.502109    26A     -0.490549    27A     -0.445531

  @DF-RHF Final Energy:  -379.69588569932847

   => Energetics <=

    Nuclear Repulsion Energy =            296.4829122224039111
    One-Electron Energy =               -1107.1226277076282258
    Two-Electron Energy =                 430.9438297858958435
    Total Energy =                       -379.6958856993284712
  Basis Set: (AUG-CC-PVTZ AUX)
    Blend: AUG-CC-PVTZ-RI
    Molecular point group: c1

    Geometry (in Angstrom), charge = 0, multiplicity = 1:

       Center              X                  Y                   Z               Mass
    ------------   -----------------  -----------------  -----------------  -----------------
         O           -0.473820769360     1.513083810775    -0.000004973171    15.994914619570
         O            2.075026230640     0.723362810775     0.000004026829    15.994914619570
         O            1.400019230640    -1.449101189225     0.000001026829    15.994914619570
         C           -1.372280769360    -0.734772189225    -0.000006973171    12.000000000000
         C           -2.761711769360    -0.115378189225     0.000008026829    12.000000000000
         C           -0.273798869360     0.254342410775    -0.000002873171    12.000000000000
         C            1.148881230640    -0.253956189225     0.000001026829    12.000000000000
         H           -1.215030769360    -1.385896189225     0.868914026829     1.007825032230
         H           -1.215041769360    -1.385873189225    -0.868947973171     1.007825032230
         H           -2.907821769360     0.512678810775     0.881193026829     1.007825032230
         H           -2.907827769360     0.512708810775    -0.881153973171     1.007825032230
         H           -3.524850769360    -0.897364189225    -0.000001973171     1.007825032230
         H            2.942244230640     0.265998810775     0.000005026829     1.007825032230

  Basis Set: AUG-CC-PVTZ
    Blend: AUG-CC-PVTZ
  Basis Set: (AUG-CC-PVTZ AUX)
    Blend: AUG-CC-PVTZ-JKFIT
	 Reference Energy          =    -379.6958856993284712 [Eh]
	 Singles Energy            =      -0.0000000000000000 [Eh]
	 Same-Spin Energy          =      -0.3674659897739210 [Eh]
	 Opposite-Spin Energy      =      -1.1389732164903292 [Eh]
	 Correlation Energy        =      -1.5064392062642502 [Eh]
	 Total Energy              =    -381.2023249055927181 [Eh]

	 ================> DF-SCS-MP2 Energies <==================
	-----------------------------------------------------------
	 SCS Same-Spin Scale       =       0.3333333333333333 [-]
	 SCS Opposite-Spin Scale   =       1.2000000000000000 [-]
	 SCS Same-Spin Energy      =      -0.1224886632579737 [Eh]
	 SCS Opposite-Spin Energy  =      -1.3667678597883950 [Eh]
	 SCS Correlation Energy    =      -1.4892565230463686 [Eh]
	 SCS Total Energy          =    -381.1851422223748500 [Eh]
	-----------------------------------------------------------

  Dipole Moment: [D]
     X:     0.0451      Y:    -1.3420      Z:    -0.0000     Total:     1.3427

*** Psi4 exiting successfully. Buy a developer a beer!
