                               Psi4 1.3.2 release

  ==> Input File <==

--------------------------------------------------------------------------
#psi4
#
memory 32 gb

molecule  {
0 1
  O        0.3919700     1.5293850    -0.0006790
  O       -2.1568130     0.7397400     0.0007420
  O       -1.4400769    -1.4408198    -0.0008503
  C        1.2904720    -0.7184350     0.0008240
  C        2.6798860    -0.0990590    -0.0001190
  C        0.1998040     0.3200060    -0.0000370
  C       -1.2307060    -0.2376900    -0.0001000
  H        1.1330450    -1.3706030    -0.8672720
  H        1.1334350    -1.3685260     0.8705840
  H        2.8258740     0.5280000    -0.8820420
  H        2.8261650     0.5300460     0.8802900
  H        3.4430440    -0.8810290     0.0006450
  H       -3.0240490     0.2824300     0.0005820
units angstrom
no_reorient  #important for SAPT in psi4, default
symmetry c1  #important for SAPT in psi4, default
}

set PROPERTIES_ORIGIN ["COM"]
properties('MP2/aug-cc-pvtz', properties = ['dipole'])
--------------------------------------------------------------------------

    Molecular point group: c1
  Charge       = 0
  Multiplicity = 1
  Basis Set: AUG-CC-PVTZ
    Blend: AUG-CC-PVTZ
  Basis Set: (AUG-CC-PVTZ AUX)
    Blend: AUG-CC-PVTZ-JKFIT

    Orbital Energies [Eh]
    ---------------------

    Doubly Occupied:

       1A    -20.639837     2A    -20.585562     3A    -20.584696
       4A    -11.416489     5A    -11.363109     6A    -11.252780
       7A    -11.227238     8A     -1.486138     9A     -1.408240
      10A     -1.387121    11A     -1.073673    12A     -0.964102
      13A     -0.880050    14A     -0.769722    15A     -0.730675
      16A     -0.712250    17A     -0.664723    18A     -0.653288
      19A     -0.629871    20A     -0.619523    21A     -0.546244
      22A     -0.537956    23A     -0.527439    24A     -0.520994
      25A     -0.505091    26A     -0.497944    27A     -0.435687

  @DF-RHF Final Energy:  -379.70561652056318

   => Energetics <=

    Nuclear Repulsion Energy =            296.8547644307973314
    One-Electron Energy =               -1107.8798739237720383
    Two-Electron Energy =                 431.3194929724115241
    Total Energy =                       -379.7056165205631828
  Basis Set: (AUG-CC-PVTZ AUX)
    Blend: AUG-CC-PVTZ-RI
    Molecular point group: c1

    Geometry (in Angstrom), charge = 0, multiplicity = 1:

       Center              X                  Y                   Z               Mass
    ------------   -----------------  -----------------  -----------------  -----------------
         O            0.466321336786     1.508518793792    -0.000649911118    15.994914619570
         O           -2.082461663214     0.718873793792     0.000771088882    15.994914619570
         O           -1.365725563214    -1.461686006208    -0.000821211118    15.994914619570
         C            1.364823336786    -0.739301206208     0.000853088882    12.000000000000
         C            2.754237336786    -0.119925206208    -0.000089911118    12.000000000000
         C            0.274155336786     0.299139793792    -0.000007911118    12.000000000000
         C           -1.156354663214    -0.258556206208    -0.000070911118    12.000000000000
         H            1.207396336786    -1.391469206208    -0.867242911118     1.007825032230
         H            1.207786336786    -1.389392206208     0.870613088882     1.007825032230
         H            2.900225336786     0.507133793792    -0.882012911118     1.007825032230
         H            2.900516336786     0.509179793792     0.880319088882     1.007825032230
         H            3.517395336786    -0.901895206208     0.000674088882     1.007825032230
         H           -2.949697663214     0.261563793792     0.000611088882     1.007825032230

  Basis Set: AUG-CC-PVTZ
    Blend: AUG-CC-PVTZ
  Basis Set: (AUG-CC-PVTZ AUX)
    Blend: AUG-CC-PVTZ-JKFIT
	 Reference Energy          =    -379.7056165205631828 [Eh]
	 Singles Energy            =      -0.0000000000000000 [Eh]
	 Same-Spin Energy          =      -0.3658450950064789 [Eh]
	 Opposite-Spin Energy      =      -1.1353530623963068 [Eh]
	 Correlation Energy        =      -1.5011981574027857 [Eh]
	 Total Energy              =    -381.2068146779659514 [Eh]

	 ================> DF-SCS-MP2 Energies <==================
	-----------------------------------------------------------
	 SCS Same-Spin Scale       =       0.3333333333333333 [-]
	 SCS Opposite-Spin Scale   =       1.2000000000000000 [-]
	 SCS Same-Spin Energy      =      -0.1219483650021596 [Eh]
	 SCS Opposite-Spin Energy  =      -1.3624236748755683 [Eh]
	 SCS Correlation Energy    =      -1.4843720398777278 [Eh]
	 SCS Total Energy          =    -381.1899885604408951 [Eh]
	-----------------------------------------------------------

  Dipole Moment: [D]
     X:    -0.2038      Y:    -1.1825      Z:     0.0025     Total:     1.1999

*** Psi4 exiting successfully. Buy a developer a beer!
