                               Psi4 1.3.2 release

  ==> Input File <==

--------------------------------------------------------------------------
#psi4
#
memory 32 gb

molecule  {
0 1
  O        0.3919700     1.5293850    -0.0006790
  O       -2.1568130     0.7397400     0.0007420
  O       -1.5234930    -1.4232841    -0.0008209
  C        1.2904720    -0.7184350     0.0008240
  C        2.6798860    -0.0990590    -0.0001190
  C        0.1998040     0.3200060    -0.0000370
  C       -1.2307060    -0.2376900    -0.0001000
  H        1.1330450    -1.3706030    -0.8672720
  H        1.1334350    -1.3685260     0.8705840
  H        2.8258740     0.5280000    -0.8820420
  H        2.8261650     0.5300460     0.8802900
  H        3.4430440    -0.8810290     0.0006450
  H       -3.0240490     0.2824300     0.0005820
units angstrom
no_reorient  #important for SAPT in psi4, default
symmetry c1  #important for SAPT in psi4, default
}

set PROPERTIES_ORIGIN ["COM"]
properties('MP2/aug-cc-pvtz', properties = ['dipole'])
--------------------------------------------------------------------------

    Molecular point group: c1
  Charge       = 0
  Multiplicity = 1
  Basis Set: AUG-CC-PVTZ
    Blend: AUG-CC-PVTZ
  Basis Set: (AUG-CC-PVTZ AUX)
    Blend: AUG-CC-PVTZ-JKFIT

    Orbital Energies [Eh]
    ---------------------

    Doubly Occupied:

       1A    -20.633066     2A    -20.589284     3A    -20.582944
       4A    -11.415663     5A    -11.367774     6A    -11.255685
       7A    -11.229310     8A     -1.485755     9A     -1.411601
      10A     -1.380127    11A     -1.076796    12A     -0.966729
      13A     -0.880280    14A     -0.769408    15A     -0.728344
      16A     -0.712766    17A     -0.664166    18A     -0.655282
      19A     -0.630690    20A     -0.619091    21A     -0.548221
      22A     -0.539535    23A     -0.530109    24A     -0.519787
      25A     -0.503955    26A     -0.498385    27A     -0.438719

  @DF-RHF Final Energy:  -379.70581518458664

   => Energetics <=

    Nuclear Repulsion Energy =            296.4430634624845311
    One-Electron Energy =               -1107.0308126002462359
    Two-Electron Energy =                 430.8819339531750074
    Total Energy =                       -379.7058151845866405
  Basis Set: (AUG-CC-PVTZ AUX)
    Blend: AUG-CC-PVTZ-RI
    Molecular point group: c1

    Geometry (in Angstrom), charge = 0, multiplicity = 1:

       Center              X                  Y                   Z               Mass
    ------------   -----------------  -----------------  -----------------  -----------------
         O            0.479397993111     1.505769824201    -0.000654519985    15.994914619570
         O           -2.069385006889     0.716124824201     0.000766480015    15.994914619570
         O           -1.436065006889    -1.446899275799    -0.000796419985    15.994914619570
         C            1.377899993111    -0.742050175799     0.000848480015    12.000000000000
         C            2.767313993111    -0.122674175799    -0.000094519985    12.000000000000
         C            0.287231993111     0.296390824201    -0.000012519985    12.000000000000
         C           -1.143278006889    -0.261305175799    -0.000075519985    12.000000000000
         H            1.220472993111    -1.394218175799    -0.867247519985     1.007825032230
         H            1.220862993111    -1.392141175799     0.870608480015     1.007825032230
         H            2.913301993111     0.504384824201    -0.882017519985     1.007825032230
         H            2.913592993111     0.506430824201     0.880314480015     1.007825032230
         H            3.530471993111    -0.904644175799     0.000669480015     1.007825032230
         H           -2.936621006889     0.258814824201     0.000606480015     1.007825032230

  Basis Set: AUG-CC-PVTZ
    Blend: AUG-CC-PVTZ
  Basis Set: (AUG-CC-PVTZ AUX)
    Blend: AUG-CC-PVTZ-JKFIT
	 Reference Energy          =    -379.7058151845866405 [Eh]
	 Singles Energy            =      -0.0000000000000000 [Eh]
	 Same-Spin Energy          =      -0.3657276306749229 [Eh]
	 Opposite-Spin Energy      =      -1.1351158327350328 [Eh]
	 Correlation Energy        =      -1.5008434634099557 [Eh]
	 Total Energy              =    -381.2066586479966190 [Eh]

	 ================> DF-SCS-MP2 Energies <==================
	-----------------------------------------------------------
	 SCS Same-Spin Scale       =       0.3333333333333333 [-]
	 SCS Opposite-Spin Scale   =       1.2000000000000000 [-]
	 SCS Same-Spin Energy      =      -0.1219092102249743 [Eh]
	 SCS Opposite-Spin Energy  =      -1.3621389992820394 [Eh]
	 SCS Correlation Energy    =      -1.4840482095070138 [Eh]
	 SCS Total Energy          =    -381.1898633940936634 [Eh]
	-----------------------------------------------------------

  Dipole Moment: [D]
     X:     0.0783      Y:    -1.1856      Z:     0.0024     Total:     1.1882

*** Psi4 exiting successfully. Buy a developer a beer!
