                               Psi4 1.3.2 release

  ==> Input File <==

--------------------------------------------------------------------------
#psi4
#
memory 32 gb

molecule  {
0 1
  O        0.3919700     1.5293850    -0.0006790
  O       -2.1568130     0.7397400     0.0007420
  O       -1.4819380    -1.4327800    -0.0008360
  C        1.2535665    -0.7558662     0.0008352
  C        2.6798860    -0.0990590    -0.0001190
  C        0.1998040     0.3200060    -0.0000370
  C       -1.2307060    -0.2376900    -0.0001000
  H        1.1330450    -1.3706030    -0.8672720
  H        1.1334350    -1.3685260     0.8705840
  H        2.8258740     0.5280000    -0.8820420
  H        2.8261650     0.5300460     0.8802900
  H        3.4430440    -0.8810290     0.0006450
  H       -3.0240490     0.2824300     0.0005820
units angstrom
no_reorient  #important for SAPT in psi4, default
symmetry c1  #important for SAPT in psi4, default
}

set PROPERTIES_ORIGIN ["COM"]
properties('MP2/aug-cc-pvtz', properties = ['dipole'])
--------------------------------------------------------------------------

    Molecular point group: c1
  Charge       = 0
  Multiplicity = 1
  Basis Set: AUG-CC-PVTZ
    Blend: AUG-CC-PVTZ
  Basis Set: (AUG-CC-PVTZ AUX)
    Blend: AUG-CC-PVTZ-JKFIT

    Orbital Energies [Eh]
    ---------------------

    Doubly Occupied:

       1A    -20.635649     2A    -20.589511     3A    -20.583392
       4A    -11.414336     5A    -11.366360     6A    -11.251998
       7A    -11.230105     8A     -1.485278     9A     -1.410642
      10A     -1.383206    11A     -1.071626    12A     -0.962745
      13A     -0.880665    14A     -0.771782    15A     -0.729188
      16A     -0.712153    17A     -0.666276    18A     -0.654959
      19A     -0.632694    20A     -0.618809    21A     -0.541776
      22A     -0.538828    23A     -0.525606    24A     -0.514746
      25A     -0.510779    26A     -0.501549    27A     -0.437590

  @DF-RHF Final Energy:  -379.70361963252060

   => Energetics <=

    Nuclear Repulsion Energy =            296.4750884795283810
    One-Electron Energy =               -1107.1129209584712498
    Two-Electron Energy =                 430.9342128464222696
    Total Energy =                       -379.7036196325205992
  Basis Set: (AUG-CC-PVTZ AUX)
    Blend: AUG-CC-PVTZ-RI
    Molecular point group: c1

    Geometry (in Angstrom), charge = 0, multiplicity = 1:

       Center              X                  Y                   Z               Mass
    ------------   -----------------  -----------------  -----------------  -----------------
         O            0.477224132537     1.511660743834    -0.000653470083    15.994914619570
         O           -2.071558867463     0.722015743834     0.000767529917    15.994914619570
         O           -1.396683867463    -1.450504256166    -0.000810470083    15.994914619570
         C            1.338820632537    -0.773590456166     0.000860729917    12.000000000000
         C            2.765140132537    -0.116783256166    -0.000093470083    12.000000000000
         C            0.285058132537     0.302281743834    -0.000011470083    12.000000000000
         C           -1.145451867463    -0.255414256166    -0.000074470083    12.000000000000
         H            1.218299132537    -1.388327256166    -0.867246470083     1.007825032230
         H            1.218689132537    -1.386250256166     0.870609529917     1.007825032230
         H            2.911128132537     0.510275743834    -0.882016470083     1.007825032230
         H            2.911419132537     0.512321743834     0.880315529917     1.007825032230
         H            3.528298132537    -0.898753256166     0.000670529917     1.007825032230
         H           -2.938794867463     0.264705743834     0.000607529917     1.007825032230

  Basis Set: AUG-CC-PVTZ
    Blend: AUG-CC-PVTZ
  Basis Set: (AUG-CC-PVTZ AUX)
    Blend: AUG-CC-PVTZ-JKFIT
	 Reference Energy          =    -379.7036196325205992 [Eh]
	 Singles Energy            =      -0.0000000000000000 [Eh]
	 Same-Spin Energy          =      -0.3655439547137891 [Eh]
	 Opposite-Spin Energy      =      -1.1352072615486131 [Eh]
	 Correlation Energy        =      -1.5007512162624022 [Eh]
	 Total Energy              =    -381.2043708487830145 [Eh]

	 ================> DF-SCS-MP2 Energies <==================
	-----------------------------------------------------------
	 SCS Same-Spin Scale       =       0.3333333333333333 [-]
	 SCS Opposite-Spin Scale   =       1.2000000000000000 [-]
	 SCS Same-Spin Energy      =      -0.1218479849045964 [Eh]
	 SCS Opposite-Spin Energy  =      -1.3622487138583357 [Eh]
	 SCS Correlation Energy    =      -1.4840966987629320 [Eh]
	 SCS Total Energy          =    -381.1877163312835251 [Eh]
	-----------------------------------------------------------

  Dipole Moment: [D]
     X:    -0.0801      Y:    -1.1648      Z:     0.0025     Total:     1.1676

*** Psi4 exiting successfully. Buy a developer a beer!
