                               Psi4 1.3.2 release

  ==> Input File <==

--------------------------------------------------------------------------
#psi4
#
memory 32 gb

molecule  {
0 1
  O        0.3919700     1.5293850    -0.0006790
  O       -2.1568130     0.7397400     0.0007420
  O       -1.4819380    -1.4327800    -0.0008360
  C        1.2904720    -0.7184350     0.0008240
  C        2.7197070    -0.1974883    -0.0000240
  C        0.1998040     0.3200060    -0.0000370
  C       -1.2307060    -0.2376900    -0.0001000
  H        1.1330450    -1.3706030    -0.8672720
  H        1.1334350    -1.3685260     0.8705840
  H        2.8258740     0.5280000    -0.8820420
  H        2.8261650     0.5300460     0.8802900
  H        3.4430440    -0.8810290     0.0006450
  H       -3.0240490     0.2824300     0.0005820
units angstrom
no_reorient  #important for SAPT in psi4, default
symmetry c1  #important for SAPT in psi4, default
}

set PROPERTIES_ORIGIN ["COM"]
properties('MP2/aug-cc-pvtz', properties = ['dipole'])
--------------------------------------------------------------------------

    Molecular point group: c1
  Charge       = 0
  Multiplicity = 1
  Basis Set: AUG-CC-PVTZ
    Blend: AUG-CC-PVTZ
  Basis Set: (AUG-CC-PVTZ AUX)
    Blend: AUG-CC-PVTZ-JKFIT

    Orbital Energies [Eh]
    ---------------------

    Doubly Occupied:

       1A    -20.637344     2A    -20.588334     3A    -20.584382
       4A    -11.417498     5A    -11.367736     6A    -11.254657
       7A    -11.230173     8A     -1.486649     9A     -1.410510
      10A     -1.384313    11A     -1.075245    12A     -0.967305
      13A     -0.883092    14A     -0.770164    15A     -0.730065
      16A     -0.713872    17A     -0.663807    18A     -0.656785
      19A     -0.625321    20A     -0.620117    21A     -0.581769
      22A     -0.529820    23A     -0.522538    24A     -0.516957
      25A     -0.503851    26A     -0.483480    27A     -0.439315

  @DF-RHF Final Energy:  -379.69242907630735

   => Energetics <=

    Nuclear Repulsion Energy =            296.1059104998290081
    One-Electron Energy =               -1106.3064792788759405
    Two-Electron Energy =                 430.5081397027396406
    Total Energy =                       -379.6924290763073486
  Basis Set: (AUG-CC-PVTZ AUX)
    Blend: AUG-CC-PVTZ-RI
    Molecular point group: c1

    Geometry (in Angstrom), charge = 0, multiplicity = 1:

       Center              X                  Y                   Z               Mass
    ------------   -----------------  -----------------  -----------------  -----------------
         O            0.468200289421     1.518834761739    -0.000663325845    15.994914619570
         O           -2.080582710579     0.729189761739     0.000757674155    15.994914619570
         O           -1.405707710579    -1.443330238261    -0.000820325845    15.994914619570
         C            1.366702289421    -0.728985238261     0.000839674155    12.000000000000
         C            2.795937289421    -0.208038538261    -0.000008325845    12.000000000000
         C            0.276034289421     0.309455761739    -0.000021325845    12.000000000000
         C           -1.154475710579    -0.248240238261    -0.000084325845    12.000000000000
         H            1.209275289421    -1.381153238261    -0.867256325845     1.007825032230
         H            1.209665289421    -1.379076238261     0.870599674155     1.007825032230
         H            2.902104289421     0.517449761739    -0.882026325845     1.007825032230
         H            2.902395289421     0.519495761739     0.880305674155     1.007825032230
         H            3.519274289421    -0.891579238261     0.000660674155     1.007825032230
         H           -2.947818710579     0.271879761739     0.000597674155     1.007825032230

  Basis Set: AUG-CC-PVTZ
    Blend: AUG-CC-PVTZ
  Basis Set: (AUG-CC-PVTZ AUX)
    Blend: AUG-CC-PVTZ-JKFIT
	 Reference Energy          =    -379.6924290763073486 [Eh]
	 Singles Energy            =      -0.0000000000000000 [Eh]
	 Same-Spin Energy          =      -0.3659331376251084 [Eh]
	 Opposite-Spin Energy      =      -1.1358432295728298 [Eh]
	 Correlation Energy        =      -1.5017763671979383 [Eh]
	 Total Energy              =    -381.1942054435052682 [Eh]

	 ================> DF-SCS-MP2 Energies <==================
	-----------------------------------------------------------
	 SCS Same-Spin Scale       =       0.3333333333333333 [-]
	 SCS Opposite-Spin Scale   =       1.2000000000000000 [-]
	 SCS Same-Spin Energy      =      -0.1219777125417028 [Eh]
	 SCS Opposite-Spin Energy  =      -1.3630118754873957 [Eh]
	 SCS Correlation Energy    =      -1.4849895880290984 [Eh]
	 SCS Total Energy          =    -381.1774186643364715 [Eh]
	-----------------------------------------------------------

  Dipole Moment: [D]
     X:    -0.0880      Y:    -1.2137      Z:     0.0025     Total:     1.2169

*** Psi4 exiting successfully. Buy a developer a beer!
