                               Psi4 1.4a3.dev225

  ==> Input File <==

--------------------------------------------------------------------------
#psi4
#
memory 32 gb

molecule  {
0 1
  O       -0.3919860     1.5294040    -0.0000050
  O        2.1568610     0.7396830     0.0000040
  O        1.4818540    -1.4327810     0.0000010
  C       -1.2904460    -0.7184520    -0.0000070
  C       -2.6798770    -0.0990580     0.0000080
  C       -0.1636007     0.3545222    -0.0000029
  C        1.2307160    -0.2376360     0.0000010
  H       -1.1331960    -1.3695760     0.8689140
  H       -1.1332070    -1.3695530    -0.8689480
  H       -2.8259870     0.5289990     0.8811930
  H       -2.8259930     0.5290290    -0.8811540
  H       -3.4430160    -0.8810440    -0.0000020
  H        3.0240790     0.2823190     0.0000050
units angstrom
no_reorient  #important for SAPT in psi4, default
symmetry c1  #important for SAPT in psi4, default
}

set PROPERTIES_ORIGIN ["COM"]
properties('MP2/aug-cc-pvtz', properties = ['dipole'])
--------------------------------------------------------------------------

    Molecular point group: c1
  Charge       = 0
  Multiplicity = 1
  Basis Set: AUG-CC-PVTZ
    Blend: AUG-CC-PVTZ
  Basis Set: (AUG-CC-PVTZ AUX)
    Blend: AUG-CC-PVTZ-JKFIT

    Orbital Energies [Eh]
    ---------------------

    Doubly Occupied:

       1A    -20.636983     2A    -20.589882     3A    -20.586386
       4A    -11.416416     5A    -11.362578     6A    -11.252061
       7A    -11.225838     8A     -1.488546     9A     -1.428430
      10A     -1.385152    11A     -1.064611    12A     -0.970374
      13A     -0.875892    14A     -0.769983    15A     -0.731413
      16A     -0.714948    17A     -0.665205    18A     -0.656175
      19A     -0.627061    20A     -0.623202    21A     -0.548594
      22A     -0.545542    23A     -0.527107    24A     -0.518282
      25A     -0.507646    26A     -0.498104    27A     -0.432673

  @DF-RHF Final Energy:  -379.70586764055770

   => Energetics <=

    Nuclear Repulsion Energy =            296.8532327902031511
    One-Electron Energy =               -1107.8200324166923565
    Two-Electron Energy =                 431.2609319859315065
    Total Energy =                       -379.7058676405576989
  Basis Set: (AUG-CC-PVTZ AUX)
    Blend: AUG-CC-PVTZ-RI
    Molecular point group: c1

    Geometry (in Angstrom), charge = 0, multiplicity = 1:

       Center              X                  Y                   Z               Mass
    ------------   -----------------  -----------------  -----------------  -----------------
         O           -0.477156603418     1.503221040100    -0.000004973171    15.994914619570
         O            2.071690396582     0.713500040100     0.000004026829    15.994914619570
         O            1.396683396582    -1.458963959900     0.000001026829    15.994914619570
         C           -1.375616603418    -0.744634959900    -0.000006973171    12.000000000000
         C           -2.765047603418    -0.125240959900     0.000008026829    12.000000000000
         C           -0.248771303418     0.328339240100    -0.000002873171    12.000000000000
         C            1.145545396582    -0.263818959900     0.000001026829    12.000000000000
         H           -1.218366603418    -1.395758959900     0.868914026829     1.007825032230
         H           -1.218377603418    -1.395735959900    -0.868947973171     1.007825032230
         H           -2.911157603418     0.502816040100     0.881193026829     1.007825032230
         H           -2.911163603418     0.502846040100    -0.881153973171     1.007825032230
         H           -3.528186603418    -0.907226959900    -0.000001973171     1.007825032230
         H            2.938908396582     0.256136040100     0.000005026829     1.007825032230

  Basis Set: AUG-CC-PVTZ
    Blend: AUG-CC-PVTZ
  Basis Set: (AUG-CC-PVTZ AUX)
    Blend: AUG-CC-PVTZ-JKFIT
	 Reference Energy          =    -379.7058676405576989 [Eh]
	 Singles Energy            =      -0.0000000000000000 [Eh]
	 Same-Spin Energy          =      -0.3650130215865082 [Eh]
	 Opposite-Spin Energy      =      -1.1338239232695995 [Eh]
	 Correlation Energy        =      -1.4988369448561076 [Eh]
	 Total Energy              =    -381.2047045854138219 [Eh]

	 ================> DF-SCS-MP2 Energies <==================
	-----------------------------------------------------------
	 SCS Same-Spin Scale       =       0.3333333333333333 [-]
	 SCS Opposite-Spin Scale   =       1.2000000000000000 [-]
	 SCS Same-Spin Energy      =      -0.1216710071955027 [Eh]
	 SCS Opposite-Spin Energy  =      -1.3605887079235193 [Eh]
	 SCS Correlation Energy    =      -1.4822597151190220 [Eh]
	 SCS Total Energy          =    -381.1881273556767269 [Eh]
	-----------------------------------------------------------

  Dipole Moment: [D]
     X:     0.2543      Y:    -1.0305      Z:    -0.0000     Total:     1.0614

*** Psi4 exiting successfully. Buy a developer a beer!
