                               Psi4 1.3.2 release

  ==> Input File <==

--------------------------------------------------------------------------
#psi4
#
memory 32 gb

molecule  {
0 1
  O        0.3919700     1.5293850    -0.0006790
  O       -2.0495704     0.8311901     0.0007795
  O       -1.4819380    -1.4327800    -0.0008360
  C        1.2904720    -0.7184350     0.0008240
  C        2.6798860    -0.0990590    -0.0001190
  C        0.1998040     0.3200060    -0.0000370
  C       -1.2307060    -0.2376900    -0.0001000
  H        1.1330450    -1.3706030    -0.8672720
  H        1.1334350    -1.3685260     0.8705840
  H        2.8258740     0.5280000    -0.8820420
  H        2.8261650     0.5300460     0.8802900
  H        3.4430440    -0.8810290     0.0006450
  H       -3.0240490     0.2824300     0.0005820
units angstrom
no_reorient  #important for SAPT in psi4, default
symmetry c1  #important for SAPT in psi4, default
}

set PROPERTIES_ORIGIN ["COM"]
properties('MP2/aug-cc-pvtz', properties = ['dipole'])
--------------------------------------------------------------------------

    Molecular point group: c1
  Charge       = 0
  Multiplicity = 1
  Basis Set: AUG-CC-PVTZ
    Blend: AUG-CC-PVTZ
  Basis Set: (AUG-CC-PVTZ AUX)
    Blend: AUG-CC-PVTZ-JKFIT

    Orbital Energies [Eh]
    ---------------------

    Doubly Occupied:

       1A    -20.652119     2A    -20.589159     3A    -20.582538
       4A    -11.416976     5A    -11.358404     6A    -11.250657
       7A    -11.225815     8A     -1.477105     9A     -1.405625
      10A     -1.382085    11A     -1.072010    12A     -0.957531
      13A     -0.867507    14A     -0.752526    15A     -0.728763
      16A     -0.705642    17A     -0.664444    18A     -0.645563
      19A     -0.628231    20A     -0.614827    21A     -0.542432
      22A     -0.534462    23A     -0.526515    24A     -0.524328
      25A     -0.508029    26A     -0.496347    27A     -0.431091

  @DF-RHF Final Energy:  -379.67827000100476

   => Energetics <=

    Nuclear Repulsion Energy =            297.0426016881737041
    One-Electron Energy =               -1108.3602835017900361
    Two-Electron Energy =                 431.6394118126115700
    Total Energy =                       -379.6782700010047620
  Basis Set: (AUG-CC-PVTZ AUX)
    Blend: AUG-CC-PVTZ-RI
    Molecular point group: c1

    Geometry (in Angstrom), charge = 0, multiplicity = 1:

       Center              X                  Y                   Z               Mass
    ------------   -----------------  -----------------  -----------------  -----------------
         O            0.456071859700     1.492922341427    -0.000658031502    15.994914619570
         O           -1.985468540300     0.794727441427     0.000800468498    15.994914619570
         O           -1.417836140300    -1.469242658573    -0.000815031502    15.994914619570
         C            1.354573859700    -0.754897658573     0.000844968498    12.000000000000
         C            2.743987859700    -0.135521658573    -0.000098031502    12.000000000000
         C            0.263905859700     0.283543341427    -0.000016031502    12.000000000000
         C           -1.166604140300    -0.274152658573    -0.000079031502    12.000000000000
         H            1.197146859700    -1.407065658573    -0.867251031502     1.007825032230
         H            1.197536859700    -1.404988658573     0.870604968498     1.007825032230
         H            2.889975859700     0.491537341427    -0.882021031502     1.007825032230
         H            2.890266859700     0.493583341427     0.880310968498     1.007825032230
         H            3.507145859700    -0.917491658573     0.000665968498     1.007825032230
         H           -2.959947140300     0.245967341427     0.000602968498     1.007825032230

  Basis Set: AUG-CC-PVTZ
    Blend: AUG-CC-PVTZ
  Basis Set: (AUG-CC-PVTZ AUX)
    Blend: AUG-CC-PVTZ-JKFIT
	 Reference Energy          =    -379.6782700010047620 [Eh]
	 Singles Energy            =      -0.0000000000000000 [Eh]
	 Same-Spin Energy          =      -0.3688079242008237 [Eh]
	 Opposite-Spin Energy      =      -1.1417628421951755 [Eh]
	 Correlation Energy        =      -1.5105707663959993 [Eh]
	 Total Energy              =    -381.1888407674007340 [Eh]

	 ================> DF-SCS-MP2 Energies <==================
	-----------------------------------------------------------
	 SCS Same-Spin Scale       =       0.3333333333333333 [-]
	 SCS Opposite-Spin Scale   =       1.2000000000000000 [-]
	 SCS Same-Spin Energy      =      -0.1229359747336079 [Eh]
	 SCS Opposite-Spin Energy  =      -1.3701154106342106 [Eh]
	 SCS Correlation Energy    =      -1.4930513853678185 [Eh]
	 SCS Total Energy          =    -381.1713213863725969 [Eh]
	-----------------------------------------------------------

  Dipole Moment: [D]
     X:    -0.3460      Y:    -1.2171      Z:     0.0025     Total:     1.2654

*** Psi4 exiting successfully. Buy a developer a beer!
