                               Psi4 1.3.2 release

  ==> Input File <==

--------------------------------------------------------------------------
#psi4
#
memory 32 gb

molecule  {
0 1
  O        0.3919700     1.5293850    -0.0006790
  O       -2.1568130     0.7397400     0.0007420
  O       -1.4819380    -1.4327800    -0.0008360
  C        1.2904720    -0.7184350     0.0008240
  C        2.7370171    -0.2476853     0.0000251
  C        0.1998040     0.3200060    -0.0000370
  C       -1.2307060    -0.2376900    -0.0001000
  H        1.1330450    -1.3706030    -0.8672720
  H        1.1334350    -1.3685260     0.8705840
  H        2.8258740     0.5280000    -0.8820420
  H        2.8261650     0.5300460     0.8802900
  H        3.4430440    -0.8810290     0.0006450
  H       -3.0240490     0.2824300     0.0005820
units angstrom
no_reorient  #important for SAPT in psi4, default
symmetry c1  #important for SAPT in psi4, default
}

set PROPERTIES_ORIGIN ["COM"]
properties('MP2/aug-cc-pvtz', properties = ['dipole'])
--------------------------------------------------------------------------

    Molecular point group: c1
  Charge       = 0
  Multiplicity = 1
  Basis Set: AUG-CC-PVTZ
    Blend: AUG-CC-PVTZ
  Basis Set: (AUG-CC-PVTZ AUX)
    Blend: AUG-CC-PVTZ-JKFIT

    Orbital Energies [Eh]
    ---------------------

    Doubly Occupied:

       1A    -20.637914     2A    -20.589062     3A    -20.584807
       4A    -11.418404     5A    -11.369191     6A    -11.255615
       7A    -11.232460     8A     -1.487186     9A     -1.411107
      10A     -1.384780    11A     -1.075823    12A     -0.968991
      13A     -0.886130    14A     -0.771391    15A     -0.730472
      16A     -0.714699    17A     -0.663981    18A     -0.657922
      19A     -0.623801    20A     -0.621563    21A     -0.597350
      22A     -0.527664    23A     -0.523354    24A     -0.510196
      25A     -0.504132    26A     -0.472991    27A     -0.440356

  @DF-RHF Final Energy:  -379.67396983895236

   => Energetics <=

    Nuclear Repulsion Energy =            295.8735967740634010
    One-Electron Energy =               -1105.7724503090805683
    Two-Electron Energy =                 430.2248836960648646
    Total Energy =                       -379.6739698389523596
  Basis Set: (AUG-CC-PVTZ AUX)
    Blend: AUG-CC-PVTZ-RI
    Molecular point group: c1

    Geometry (in Angstrom), charge = 0, multiplicity = 1:

       Center              X                  Y                   Z               Mass
    ------------   -----------------  -----------------  -----------------  -----------------
         O            0.466164439659     1.524738456720    -0.000669100521    15.994914619570
         O           -2.082618560341     0.735093456720     0.000751899479    15.994914619570
         O           -1.407743560341    -1.437426543280    -0.000826100521    15.994914619570
         C            1.364666439659    -0.723081543280     0.000833899479    12.000000000000
         C            2.811211539659    -0.252331843280     0.000034999479    12.000000000000
         C            0.273998439659     0.315359456720    -0.000027100521    12.000000000000
         C           -1.156511560341    -0.242336543280    -0.000090100521    12.000000000000
         H            1.207239439659    -1.375249543280    -0.867262100521     1.007825032230
         H            1.207629439659    -1.373172543280     0.870593899479     1.007825032230
         H            2.900068439659     0.523353456720    -0.882032100521     1.007825032230
         H            2.900359439659     0.525399456720     0.880299899479     1.007825032230
         H            3.517238439659    -0.885675543280     0.000654899479     1.007825032230
         H           -2.949854560341     0.277783456720     0.000591899479     1.007825032230

  Basis Set: AUG-CC-PVTZ
    Blend: AUG-CC-PVTZ
  Basis Set: (AUG-CC-PVTZ AUX)
    Blend: AUG-CC-PVTZ-JKFIT
	 Reference Energy          =    -379.6739698389523596 [Eh]
	 Singles Energy            =      -0.0000000000000000 [Eh]
	 Same-Spin Energy          =      -0.3661702387691506 [Eh]
	 Opposite-Spin Energy      =      -1.1366551651576775 [Eh]
	 Correlation Energy        =      -1.5028254039268281 [Eh]
	 Total Energy              =    -381.1767952428791659 [Eh]

	 ================> DF-SCS-MP2 Energies <==================
	-----------------------------------------------------------
	 SCS Same-Spin Scale       =       0.3333333333333333 [-]
	 SCS Opposite-Spin Scale   =       1.2000000000000000 [-]
	 SCS Same-Spin Energy      =      -0.1220567462563835 [Eh]
	 SCS Opposite-Spin Energy  =      -1.3639861981892130 [Eh]
	 SCS Correlation Energy    =      -1.4860429444455965 [Eh]
	 SCS Total Energy          =    -381.1600127833979741 [Eh]
	-----------------------------------------------------------

  Dipole Moment: [D]
     X:    -0.1230      Y:    -1.2248      Z:     0.0025     Total:     1.2310

*** Psi4 exiting successfully. Buy a developer a beer!
