                               Psi4 1.3.2 release

  ==> Input File <==

--------------------------------------------------------------------------
#psi4
#
memory 32 gb

molecule  {
0 1
  O        0.3919700     1.5293850    -0.0006790
  O       -2.2539090     0.6375810     0.0006953
  O       -1.4819380    -1.4327800    -0.0008360
  C        1.2904720    -0.7184350     0.0008240
  C        2.6798860    -0.0990590    -0.0001190
  C        0.1998040     0.3200060    -0.0000370
  C       -1.2307060    -0.2376900    -0.0001000
  H        1.1330450    -1.3706030    -0.8672720
  H        1.1334350    -1.3685260     0.8705840
  H        2.8258740     0.5280000    -0.8820420
  H        2.8261650     0.5300460     0.8802900
  H        3.4430440    -0.8810290     0.0006450
  H       -3.0240490     0.2824300     0.0005820
units angstrom
no_reorient  #important for SAPT in psi4, default
symmetry c1  #important for SAPT in psi4, default
}

set PROPERTIES_ORIGIN ["COM"]
properties('MP2/aug-cc-pvtz', properties = ['dipole'])
--------------------------------------------------------------------------

    Molecular point group: c1
  Charge       = 0
  Multiplicity = 1
  Basis Set: AUG-CC-PVTZ
    Blend: AUG-CC-PVTZ
  Basis Set: (AUG-CC-PVTZ AUX)
    Blend: AUG-CC-PVTZ-JKFIT

    Orbital Energies [Eh]
    ---------------------

    Doubly Occupied:

       1A    -20.615791     2A    -20.592317     3A    -20.578891
       4A    -11.417287     5A    -11.373011     6A    -11.258008
       7A    -11.230882     8A     -1.501310     9A     -1.415777
      10A     -1.386546    11A     -1.078688    12A     -0.977335
      13A     -0.899712    14A     -0.796508    15A     -0.724624
      16A     -0.719338    17A     -0.665115    18A     -0.659974
      19A     -0.632405    20A     -0.615250    21A     -0.551286
      22A     -0.542957    23A     -0.531716    24A     -0.514965
      25A     -0.504306    26A     -0.497050    27A     -0.443012

  @DF-RHF Final Energy:  -379.69143159493962

   => Energetics <=

    Nuclear Repulsion Energy =            296.6140431540838449
    One-Electron Energy =               -1107.1628248566000821
    Two-Electron Energy =                 430.8573501075765648
    Total Energy =                       -379.6914315949396155
  Basis Set: (AUG-CC-PVTZ AUX)
    Blend: AUG-CC-PVTZ-RI
    Molecular point group: c1

    Geometry (in Angstrom), charge = 0, multiplicity = 1:

       Center              X                  Y                   Z               Mass
    ------------   -----------------  -----------------  -----------------  -----------------
         O            0.488104832306     1.523273312788    -0.000644831959    15.994914619570
         O           -2.157774167694     0.631469312788     0.000729468041    15.994914619570
         O           -1.385803167694    -1.438891687212    -0.000801831959    15.994914619570
         C            1.386606832306    -0.724546687212     0.000858168041    12.000000000000
         C            2.776020832306    -0.105170687212    -0.000084831959    12.000000000000
         C            0.295938832306     0.313894312788    -0.000002831959    12.000000000000
         C           -1.134571167694    -0.243801687212    -0.000065831959    12.000000000000
         H            1.229179832306    -1.376714687212    -0.867237831959     1.007825032230
         H            1.229569832306    -1.374637687212     0.870618168041     1.007825032230
         H            2.922008832306     0.521888312788    -0.882007831959     1.007825032230
         H            2.922299832306     0.523934312788     0.880324168041     1.007825032230
         H            3.539178832306    -0.887140687212     0.000679168041     1.007825032230
         H           -2.927914167694     0.276318312788     0.000616168041     1.007825032230

  Basis Set: AUG-CC-PVTZ
    Blend: AUG-CC-PVTZ
  Basis Set: (AUG-CC-PVTZ AUX)
    Blend: AUG-CC-PVTZ-JKFIT
	 Reference Energy          =    -379.6914315949396155 [Eh]
	 Singles Energy            =      -0.0000000000000000 [Eh]
	 Same-Spin Energy          =      -0.3634499891238351 [Eh]
	 Opposite-Spin Energy      =      -1.1305170357424297 [Eh]
	 Correlation Energy        =      -1.4939670248662649 [Eh]
	 Total Energy              =    -381.1853986198058806 [Eh]

	 ================> DF-SCS-MP2 Energies <==================
	-----------------------------------------------------------
	 SCS Same-Spin Scale       =       0.3333333333333333 [-]
	 SCS Opposite-Spin Scale   =       1.2000000000000000 [-]
	 SCS Same-Spin Energy      =      -0.1211499963746117 [Eh]
	 SCS Opposite-Spin Energy  =      -1.3566204428909157 [Eh]
	 SCS Correlation Energy    =      -1.4777704392655273 [Eh]
	 SCS Total Energy          =    -381.1692020342051705 [Eh]
	-----------------------------------------------------------

  Dipole Moment: [D]
     X:     0.2757      Y:    -1.1339      Z:     0.0025     Total:     1.1670

*** Psi4 exiting successfully. Buy a developer a beer!
