                               Psi4 1.3.2 release

  ==> Input File <==

--------------------------------------------------------------------------
#psi4
#
memory 32 gb

molecule  {
0 1
  O        0.3919700     1.5293850    -0.0006790
  O       -2.1568130     0.7397400     0.0007420
  O       -1.4819380    -1.4327800    -0.0008360
  C        1.2904720    -0.7184350     0.0008240
  C        2.6798860    -0.0990590    -0.0001190
  C        0.0549572     0.4579168    -0.0001513
  C       -1.2307060    -0.2376900    -0.0001000
  H        1.1330450    -1.3706030    -0.8672720
  H        1.1334350    -1.3685260     0.8705840
  H        2.8258740     0.5280000    -0.8820420
  H        2.8261650     0.5300460     0.8802900
  H        3.4430440    -0.8810290     0.0006450
  H       -3.0240490     0.2824300     0.0005820
units angstrom
no_reorient  #important for SAPT in psi4, default
symmetry c1  #important for SAPT in psi4, default
}

set PROPERTIES_ORIGIN ["COM"]
properties('MP2/aug-cc-pvtz', properties = ['dipole'])
--------------------------------------------------------------------------

    Molecular point group: c1
  Charge       = 0
  Multiplicity = 1
  Basis Set: AUG-CC-PVTZ
    Blend: AUG-CC-PVTZ
  Basis Set: (AUG-CC-PVTZ AUX)
    Blend: AUG-CC-PVTZ-JKFIT

    Orbital Energies [Eh]
    ---------------------

    Doubly Occupied:

       1A    -20.640043     2A    -20.598480     3A    -20.595271
       4A    -11.421167     5A    -11.358717     6A    -11.239510
       7A    -11.217965     8A     -1.505027     9A     -1.476882
      10A     -1.391027    11A     -1.040607    12A     -0.989776
      13A     -0.859518    14A     -0.770705    15A     -0.739175
      16A     -0.729727    17A     -0.674172    18A     -0.664133
      19A     -0.635607    20A     -0.617957    21A     -0.573212
      22A     -0.551885    23A     -0.521702    24A     -0.512676
      25A     -0.511571    26A     -0.491290    27A     -0.401375

  @DF-RHF Final Energy:  -379.66926945594793

   => Energetics <=

    Nuclear Repulsion Energy =            297.5888617831572560
    One-Electron Energy =               -1109.0579076973758674
    Two-Electron Energy =                 431.7997764582707418
    Total Energy =                       -379.6692694559479264
  Basis Set: (AUG-CC-PVTZ AUX)
    Blend: AUG-CC-PVTZ-RI
    Molecular point group: c1

    Geometry (in Angstrom), charge = 0, multiplicity = 1:

       Center              X                  Y                   Z               Mass
    ------------   -----------------  -----------------  -----------------  -----------------
         O            0.489919164331     1.491038681057    -0.000638709964    15.994914619570
         O           -2.058863835669     0.701393681057     0.000782290036    15.994914619570
         O           -1.383988835669    -1.471126318943    -0.000795709964    15.994914619570
         C            1.388421164331    -0.756781318943     0.000864290036    12.000000000000
         C            2.777835164331    -0.137405318943    -0.000078709964    12.000000000000
         C            0.152906364331     0.419570481057    -0.000111009964    12.000000000000
         C           -1.132756835669    -0.276036318943    -0.000059709964    12.000000000000
         H            1.230994164331    -1.408949318943    -0.867231709964     1.007825032230
         H            1.231384164331    -1.406872318943     0.870624290036     1.007825032230
         H            2.923823164331     0.489653681057    -0.882001709964     1.007825032230
         H            2.924114164331     0.491699681057     0.880330290036     1.007825032230
         H            3.540993164331    -0.919375318943     0.000685290036     1.007825032230
         H           -2.926099835669     0.244083681057     0.000622290036     1.007825032230

  Basis Set: AUG-CC-PVTZ
    Blend: AUG-CC-PVTZ
  Basis Set: (AUG-CC-PVTZ AUX)
    Blend: AUG-CC-PVTZ-JKFIT
	 Reference Energy          =    -379.6692694559479264 [Eh]
	 Singles Energy            =      -0.0000000000000000 [Eh]
	 Same-Spin Energy          =      -0.3645003501815853 [Eh]
	 Opposite-Spin Energy      =      -1.1329553070666374 [Eh]
	 Correlation Energy        =      -1.4974556572482227 [Eh]
	 Total Energy              =    -381.1667251131961507 [Eh]

	 ================> DF-SCS-MP2 Energies <==================
	-----------------------------------------------------------
	 SCS Same-Spin Scale       =       0.3333333333333333 [-]
	 SCS Opposite-Spin Scale   =       1.2000000000000000 [-]
	 SCS Same-Spin Energy      =      -0.1215001167271951 [Eh]
	 SCS Opposite-Spin Energy  =      -1.3595463684799649 [Eh]
	 SCS Correlation Energy    =      -1.4810464852071601 [Eh]
	 SCS Total Energy          =    -381.1503159411550996 [Eh]
	-----------------------------------------------------------

  Dipole Moment: [D]
     X:    -0.9395      Y:    -0.5037      Z:     0.0016     Total:     1.0660

*** Psi4 exiting successfully. Buy a developer a beer!
