                               Psi4 1.4a3.dev225

  ==> Input File <==

--------------------------------------------------------------------------
#psi4
#
memory 32 gb

molecule  {
0 1
  O       -0.3919860     1.5294040    -0.0000050
  O        2.1568610     0.7396830     0.0000040
  O        1.4818540    -1.4327810     0.0000010
  C       -1.2904460    -0.7184520    -0.0000070
  C       -2.6798770    -0.0990580     0.0000080
  C       -0.1998110     0.3200430    -0.0000030
  C        1.2120819    -0.2303717     0.0000009
  H       -1.1331960    -1.3695760     0.8689140
  H       -1.1332070    -1.3695530    -0.8689480
  H       -2.8259870     0.5289990     0.8811930
  H       -2.8259930     0.5290290    -0.8811540
  H       -3.4430160    -0.8810440    -0.0000020
  H        3.0240790     0.2823190     0.0000050
units angstrom
no_reorient  #important for SAPT in psi4, default
symmetry c1  #important for SAPT in psi4, default
}

set PROPERTIES_ORIGIN ["COM"]
properties('MP2/aug-cc-pvtz', properties = ['dipole'])
--------------------------------------------------------------------------

    Molecular point group: c1
  Charge       = 0
  Multiplicity = 1
  Basis Set: AUG-CC-PVTZ
    Blend: AUG-CC-PVTZ
  Basis Set: (AUG-CC-PVTZ AUX)
    Blend: AUG-CC-PVTZ-JKFIT

    Orbital Energies [Eh]
    ---------------------

    Doubly Occupied:

       1A    -20.634793     2A    -20.589682     3A    -20.584160
       4A    -11.417676     5A    -11.366425     6A    -11.255049
       7A    -11.228918     8A     -1.481148     9A     -1.411763
      10A     -1.376993    11A     -1.076926    12A     -0.971063
      13A     -0.881045    14A     -0.770453    15A     -0.726895
      16A     -0.713149    17A     -0.663471    18A     -0.655483
      19A     -0.628912    20A     -0.617337    21A     -0.548369
      22A     -0.539635    23A     -0.529748    24A     -0.518274
      25A     -0.503115    26A     -0.497138    27A     -0.441051

  @DF-RHF Final Energy:  -379.70383579836556

   => Energetics <=

    Nuclear Repulsion Energy =            296.6657367435757919
    One-Electron Energy =               -1107.4818030727265068
    Two-Electron Energy =                 431.1122305307852116
    Total Energy =                       -379.7038357983655601
  Basis Set: (AUG-CC-PVTZ AUX)
    Blend: AUG-CC-PVTZ-RI
    Molecular point group: c1

    Geometry (in Angstrom), charge = 0, multiplicity = 1:

       Center              X                  Y                   Z               Mass
    ------------   -----------------  -----------------  -----------------  -----------------
         O           -0.470706325334     1.506421798482    -0.000004949649    15.994914619570
         O            2.078140674666     0.716700798482     0.000004050351    15.994914619570
         O            1.403133674666    -1.455763201518     0.000001050351    15.994914619570
         C           -1.369166325334    -0.741434201518    -0.000006949649    12.000000000000
         C           -2.758597325334    -0.122040201518     0.000008050351    12.000000000000
         C           -0.278531325334     0.297060798482    -0.000002949649    12.000000000000
         C            1.133361574666    -0.253353901518     0.000000950351    12.000000000000
         H           -1.211916325334    -1.392558201518     0.868914050351     1.007825032230
         H           -1.211927325334    -1.392535201518    -0.868947949649     1.007825032230
         H           -2.904707325334     0.506016798482     0.881193050351     1.007825032230
         H           -2.904713325334     0.506046798482    -0.881153949649     1.007825032230
         H           -3.521736325334    -0.904026201518    -0.000001949649     1.007825032230
         H            2.945358674666     0.259336798482     0.000005050351     1.007825032230

  Basis Set: AUG-CC-PVTZ
    Blend: AUG-CC-PVTZ
  Basis Set: (AUG-CC-PVTZ AUX)
    Blend: AUG-CC-PVTZ-JKFIT
	 Reference Energy          =    -379.7038357983655601 [Eh]
	 Singles Energy            =      -0.0000000000000000 [Eh]
	 Same-Spin Energy          =      -0.3661456502615760 [Eh]
	 Opposite-Spin Energy      =      -1.1361627690048024 [Eh]
	 Correlation Energy        =      -1.5023084192663785 [Eh]
	 Total Energy              =    -381.2061442176319588 [Eh]

	 ================> DF-SCS-MP2 Energies <==================
	-----------------------------------------------------------
	 SCS Same-Spin Scale       =       0.3333333333333333 [-]
	 SCS Opposite-Spin Scale   =       1.2000000000000000 [-]
	 SCS Same-Spin Energy      =      -0.1220485500871920 [Eh]
	 SCS Opposite-Spin Energy  =      -1.3633953228057629 [Eh]
	 SCS Correlation Energy    =      -1.4854438728929549 [Eh]
	 SCS Total Energy          =    -381.1892796712585323 [Eh]
	-----------------------------------------------------------

  Dipole Moment: [D]
     X:    -0.0172      Y:    -1.1713      Z:    -0.0000     Total:     1.1714

*** Psi4 exiting successfully. Buy a developer a beer!
