                               Psi4 1.4a3.dev225

  ==> Input File <==

--------------------------------------------------------------------------
#psi4
#
memory 32 gb

molecule  {
-1 1
  P        0.0000270     0.0927860     0.1323680
  O       -0.0003443    -0.7845891     1.2991042
  O        1.2942880    -0.3216710    -0.8240020
  O        0.0005500     1.5933250     0.2166250
  O       -1.2944150    -0.3207910    -0.8241400
  H        1.5427260    -1.2413540    -0.6229670
  H       -1.5436530    -1.2402210    -0.6229420
units angstrom
no_reorient  #important for SAPT in psi4, default
symmetry c1  #important for SAPT in psi4, default
}

set PROPERTIES_ORIGIN ["COM"]
properties('MP2/aug-cc-pvtz', properties = ['dipole'])
--------------------------------------------------------------------------

    Molecular point group: c1
  Charge       = -1
  Multiplicity = 1
  Basis Set: AUG-CC-PVTZ
    Blend: AUG-CC-PVTZ
  Basis Set: (AUG-CC-PVTZ AUX)
    Blend: AUG-CC-PVTZ-JKFIT

    Orbital Energies [Eh]
    ---------------------

    Doubly Occupied:

       1A    -79.870191     2A    -20.401122     3A    -20.401107
       4A    -20.308661     5A    -20.292056     6A     -7.387888
       7A     -5.286359     8A     -5.286000     9A     -5.284686
      10A     -1.223650    11A     -1.170106    12A     -1.107432
      13A     -1.060550    14A     -0.605901    15A     -0.530084
      16A     -0.476034    17A     -0.429375    18A     -0.425613
      19A     -0.366106    20A     -0.349799    21A     -0.334071
      22A     -0.289336    23A     -0.271613    24A     -0.248812
      25A     -0.236614

  @DF-RHF Final Energy:  -641.67277413694023

   => Energetics <=

    Nuclear Repulsion Energy =            266.6417114161287145
    One-Electron Energy =               -1429.3426339819777695
    Two-Electron Energy =                 521.0281484289087075
    Total Energy =                       -641.6727741369402338
  Basis Set: (AUG-CC-PVTZ AUX)
    Blend: AUG-CC-PVTZ-RI
    Molecular point group: c1

    Geometry (in Angstrom), charge = -1, multiplicity = 1:

       Center              X                  Y                   Z               Mass
    ------------   -----------------  -----------------  -----------------  -----------------
         P            0.000015028785     0.061513400464     0.124877516534    30.973761998420
         O           -0.000356271215    -0.815861699536     1.291613716534    15.994914619570
         O            1.294276028785    -0.352943599536    -0.831492483466    15.994914619570
         O            0.000538028785     1.562052400464     0.209134516534    15.994914619570
         O           -1.294426971215    -0.352063599536    -0.831630483466    15.994914619570
         H            1.542714028785    -1.272626599536    -0.630457483466     1.007825032230
         H           -1.543664971215    -1.271493599536    -0.630432483466     1.007825032230

  Basis Set: AUG-CC-PVTZ
    Blend: AUG-CC-PVTZ
  Basis Set: (AUG-CC-PVTZ AUX)
    Blend: AUG-CC-PVTZ-JKFIT
	 Reference Energy          =    -641.6727741369402338 [Eh]
	 Singles Energy            =      -0.0000000000000000 [Eh]
	 Same-Spin Energy          =      -0.3310982585095415 [Eh]
	 Opposite-Spin Energy      =      -0.9272461644066370 [Eh]
	 Correlation Energy        =      -1.2583444229161784 [Eh]
	 Total Energy              =    -642.9311185598563725 [Eh]

	 ================> DF-SCS-MP2 Energies <==================
	-----------------------------------------------------------
	 SCS Same-Spin Scale       =       0.3333333333333333 [-]
	 SCS Opposite-Spin Scale   =       1.2000000000000000 [-]
	 SCS Same-Spin Energy      =      -0.1103660861698472 [Eh]
	 SCS Opposite-Spin Energy  =      -1.1126953972879643 [Eh]
	 SCS Correlation Energy    =      -1.2230614834578115 [Eh]
	 SCS Total Energy          =    -642.8958356203980884 [Eh]
	-----------------------------------------------------------

  Dipole Moment: [D]
     X:    -0.0015      Y:    -4.0024      Z:    -1.8312     Total:     4.4014

*** Psi4 exiting successfully. Buy a developer a beer!
