                               Psi4 1.3.2 release

  ==> Input File <==

--------------------------------------------------------------------------
#psi4
#
memory 32 gb

molecule  {
-1 1
  P        0.0000210     0.1146100     0.1301380
  O       -0.0002952    -0.8309141     1.3138184
  O        1.2994240    -0.3312660    -0.8383880
  O        0.0002880     1.6062300     0.2570730
  O       -1.2993950    -0.3307730    -0.8386000
  H        1.6095220    -1.1501010    -0.4166970
  H       -1.6099810    -1.1493890    -0.4168420
units angstrom
no_reorient  #important for SAPT in psi4, default
symmetry c1  #important for SAPT in psi4, default
}

set PROPERTIES_ORIGIN ["COM"]
properties('MP2/aug-cc-pvtz', properties = ['dipole'])
--------------------------------------------------------------------------

    Molecular point group: c1
  Charge       = -1
  Multiplicity = 1
  Basis Set: AUG-CC-PVTZ
    Blend: AUG-CC-PVTZ
  Basis Set: (AUG-CC-PVTZ AUX)
    Blend: AUG-CC-PVTZ-JKFIT

    Orbital Energies [Eh]
    ---------------------

    Doubly Occupied:

       1A    -79.885523     2A    -20.403869     3A    -20.403853
       4A    -20.315665     5A    -20.304843     6A     -7.400903
       7A     -5.299575     8A     -5.298900     9A     -5.297567
      10A     -1.220849    11A     -1.171066    12A     -1.098435
      13A     -1.066718    14A     -0.601160    15A     -0.513646
      16A     -0.484320    17A     -0.439798    18A     -0.424690
      19A     -0.365724    20A     -0.350507    21A     -0.336430
      22A     -0.288969    23A     -0.270003    24A     -0.256653
      25A     -0.243055

  @DF-RHF Final Energy:  -641.67024444261324

   => Energetics <=

    Nuclear Repulsion Energy =            263.6707460131842140
    One-Electron Energy =               -1423.1965360188085015
    Two-Electron Energy =                 517.8555455630109918
    Total Energy =                       -641.6702444426132388
  Basis Set: (AUG-CC-PVTZ AUX)
    Blend: AUG-CC-PVTZ-RI
    Molecular point group: c1

    Geometry (in Angstrom), charge = -1, multiplicity = 1:

       Center              X                  Y                   Z               Mass
    ------------   -----------------  -----------------  -----------------  -----------------
         P            0.000015466829     0.083215725453     0.114733130152    30.973761998420
         O           -0.000300733171    -0.862308374547     1.298413530152    15.994914619570
         O            1.299418466829    -0.362660274547    -0.853792869848    15.994914619570
         O            0.000282466829     1.574835725453     0.241668130152    15.994914619570
         O           -1.299400533171    -0.362167274547    -0.854004869848    15.994914619570
         H            1.609516466829    -1.181495274547    -0.432101869848     1.007825032230
         H           -1.609986533171    -1.180783274547    -0.432246869848     1.007825032230

  Basis Set: AUG-CC-PVTZ
    Blend: AUG-CC-PVTZ
  Basis Set: (AUG-CC-PVTZ AUX)
    Blend: AUG-CC-PVTZ-JKFIT
	 Reference Energy          =    -641.6702444426132388 [Eh]
	 Singles Energy            =      -0.0000000000000000 [Eh]
	 Same-Spin Energy          =      -0.3326826662282832 [Eh]
	 Opposite-Spin Energy      =      -0.9311413505025596 [Eh]
	 Correlation Energy        =      -1.2638240167308430 [Eh]
	 Total Energy              =    -642.9340684593440756 [Eh]

	 ================> DF-SCS-MP2 Energies <==================
	-----------------------------------------------------------
	 SCS Same-Spin Scale       =       0.3333333333333333 [-]
	 SCS Opposite-Spin Scale   =       1.2000000000000000 [-]
	 SCS Same-Spin Energy      =      -0.1108942220760944 [Eh]
	 SCS Opposite-Spin Energy  =      -1.1173696206030714 [Eh]
	 SCS Correlation Energy    =      -1.2282638426791659 [Eh]
	 SCS Total Energy          =    -642.8985082852924506 [Eh]
	-----------------------------------------------------------

  Dipole Moment: [D]
     X:    -0.0005      Y:    -3.2439      Z:    -1.4335     Total:     3.5465

*** Psi4 exiting successfully. Buy a developer a beer!
