                               Psi4 1.4a3.dev225

  ==> Input File <==

--------------------------------------------------------------------------
#psi4
#
memory 32 gb

molecule  {
-1 1
  P        0.0000270     0.0927860     0.1323680
  O       -0.0003570    -0.8146400     1.3390660
  O        1.2942880    -0.3216710    -0.8240020
  O        0.0005500     1.5933250     0.2166250
  O       -1.2944150    -0.3207910    -0.8241400
  H        1.5478293    -1.2602459    -0.6188374
  H       -1.5436530    -1.2402210    -0.6229420
units angstrom
no_reorient  #important for SAPT in psi4, default
symmetry c1  #important for SAPT in psi4, default
}

set PROPERTIES_ORIGIN ["COM"]
properties('MP2/aug-cc-pvtz', properties = ['dipole'])
--------------------------------------------------------------------------

    Molecular point group: c1
  Charge       = -1
  Multiplicity = 1
  Basis Set: AUG-CC-PVTZ
    Blend: AUG-CC-PVTZ
  Basis Set: (AUG-CC-PVTZ AUX)
    Blend: AUG-CC-PVTZ-JKFIT

    Orbital Energies [Eh]
    ---------------------

    Doubly Occupied:

       1A    -79.880199     2A    -20.407000     3A    -20.405109
       4A    -20.310657     5A    -20.296911     6A     -7.395760
       7A     -5.294499     8A     -5.293865     9A     -5.292396
      10A     -1.221861    11A     -1.170953    12A     -1.093520
      13A     -1.059493    14A     -0.607858    15A     -0.530443
      16A     -0.477459    17A     -0.427872    18A     -0.425055
      19A     -0.365335    20A     -0.346083    21A     -0.336867
      22A     -0.284685    23A     -0.265595    24A     -0.251067
      25A     -0.236390

  @DF-RHF Final Energy:  -641.66976005584638

   => Energetics <=

    Nuclear Repulsion Energy =            264.4185432953296981
    One-Electron Energy =               -1424.8227455471624125
    Two-Electron Energy =                 518.7344421959862757
    Total Energy =                       -641.6697600558463819
  Basis Set: (AUG-CC-PVTZ AUX)
    Blend: AUG-CC-PVTZ-RI
    Molecular point group: c1

    Geometry (in Angstrom), charge = -1, multiplicity = 1:

       Center              X                  Y                   Z               Mass
    ------------   -----------------  -----------------  -----------------  -----------------
         P           -0.000035916305     0.066666603508     0.118242952650    30.973761998420
         O           -0.000419916305    -0.840759396492     1.324940952650    15.994914619570
         O            1.294225083695    -0.347790396492    -0.838127047350    15.994914619570
         O            0.000487083695     1.567205603508     0.202499952650    15.994914619570
         O           -1.294477916305    -0.346910396492    -0.838265047350    15.994914619570
         H            1.547766383695    -1.286365296492    -0.632962447350     1.007825032230
         H           -1.543715916305    -1.266340396492    -0.637067047350     1.007825032230

  Basis Set: AUG-CC-PVTZ
    Blend: AUG-CC-PVTZ
  Basis Set: (AUG-CC-PVTZ AUX)
    Blend: AUG-CC-PVTZ-JKFIT
	 Reference Energy          =    -641.6697600558463819 [Eh]
	 Singles Energy            =      -0.0000000000000000 [Eh]
	 Same-Spin Energy          =      -0.3323467025830621 [Eh]
	 Opposite-Spin Energy      =      -0.9303811014244673 [Eh]
	 Correlation Energy        =      -1.2627278040075294 [Eh]
	 Total Energy              =    -642.9324878598539499 [Eh]

	 ================> DF-SCS-MP2 Energies <==================
	-----------------------------------------------------------
	 SCS Same-Spin Scale       =       0.3333333333333333 [-]
	 SCS Opposite-Spin Scale   =       1.2000000000000000 [-]
	 SCS Same-Spin Energy      =      -0.1107822341943540 [Eh]
	 SCS Opposite-Spin Energy  =      -1.1164573217093607 [Eh]
	 SCS Correlation Energy    =      -1.2272395559037148 [Eh]
	 SCS Total Energy          =    -642.8969996117500614 [Eh]
	-----------------------------------------------------------

  Dipole Moment: [D]
     X:     0.0057      Y:    -3.8345      Z:    -2.0771     Total:     4.3610

*** Psi4 exiting successfully. Buy a developer a beer!
