                               Psi4 1.3.2 release

  ==> Input File <==

--------------------------------------------------------------------------
#psi4
#
memory 32 gb

molecule  {
-1 1
  P        0.0000210     0.1146100     0.1301380
  O       -0.0003054    -0.9494628     1.2084999
  O        1.2994240    -0.3312660    -0.8383880
  O        0.0002880     1.6062300     0.2570730
  O       -1.2993950    -0.3307730    -0.8386000
  H        1.6095220    -1.1501010    -0.4166970
  H       -1.6099810    -1.1493890    -0.4168420
units angstrom
no_reorient  #important for SAPT in psi4, default
symmetry c1  #important for SAPT in psi4, default
}

set PROPERTIES_ORIGIN ["COM"]
properties('MP2/aug-cc-pvtz', properties = ['dipole'])
--------------------------------------------------------------------------

    Molecular point group: c1
  Charge       = -1
  Multiplicity = 1
  Basis Set: AUG-CC-PVTZ
    Blend: AUG-CC-PVTZ
  Basis Set: (AUG-CC-PVTZ AUX)
    Blend: AUG-CC-PVTZ-JKFIT

    Orbital Energies [Eh]
    ---------------------

    Doubly Occupied:

       1A    -79.886731     2A    -20.396711     3A    -20.396696
       4A    -20.315683     5A    -20.314525     6A     -7.402036
       7A     -5.300693     8A     -5.300292     9A     -5.298573
      10A     -1.218256    11A     -1.165123    12A     -1.097641
      13A     -1.073824    14A     -0.597805    15A     -0.508562
      16A     -0.480196    17A     -0.438444    18A     -0.424895
      19A     -0.361884    20A     -0.353655    21A     -0.331812
      22A     -0.289851    23A     -0.267662    24A     -0.262894
      25A     -0.250064

  @DF-RHF Final Energy:  -641.66849448350376

   => Energetics <=

    Nuclear Repulsion Energy =            264.1230535416031557
    One-Electron Energy =               -1424.1140816348572571
    Two-Electron Energy =                 518.3225336097502804
    Total Energy =                       -641.6684944835037641
  Basis Set: (AUG-CC-PVTZ AUX)
    Blend: AUG-CC-PVTZ-RI
    Molecular point group: c1

    Geometry (in Angstrom), charge = -1, multiplicity = 1:

       Center              X                  Y                   Z               Mass
    ------------   -----------------  -----------------  -----------------  -----------------
         P            0.000017149305     0.102770170228     0.132105271660    30.973761998420
         O           -0.000309250695    -0.961302629772     1.210467171660    15.994914619570
         O            1.299420149305    -0.343105829772    -0.836420728340    15.994914619570
         O            0.000284149305     1.594390170228     0.259040271660    15.994914619570
         O           -1.299398850695    -0.342612829772    -0.836632728340    15.994914619570
         H            1.609518149305    -1.161940829772    -0.414729728340     1.007825032230
         H           -1.609984850695    -1.161228829772    -0.414874728340     1.007825032230

  Basis Set: AUG-CC-PVTZ
    Blend: AUG-CC-PVTZ
  Basis Set: (AUG-CC-PVTZ AUX)
    Blend: AUG-CC-PVTZ-JKFIT
	 Reference Energy          =    -641.6684944835037641 [Eh]
	 Singles Energy            =      -0.0000000000000000 [Eh]
	 Same-Spin Energy          =      -0.3328838218196012 [Eh]
	 Opposite-Spin Energy      =      -0.9314322312089509 [Eh]
	 Correlation Energy        =      -1.2643160530285522 [Eh]
	 Total Energy              =    -642.9328105365323154 [Eh]

	 ================> DF-SCS-MP2 Energies <==================
	-----------------------------------------------------------
	 SCS Same-Spin Scale       =       0.3333333333333333 [-]
	 SCS Opposite-Spin Scale   =       1.2000000000000000 [-]
	 SCS Same-Spin Energy      =      -0.1109612739398671 [Eh]
	 SCS Opposite-Spin Energy  =      -1.1177186774507410 [Eh]
	 SCS Correlation Energy    =      -1.2286799513906081 [Eh]
	 SCS Total Energy          =    -642.8971744348943957 [Eh]
	-----------------------------------------------------------

  Dipole Moment: [D]
     X:    -0.0005      Y:    -2.8527      Z:    -1.1509     Total:     3.0761

*** Psi4 exiting successfully. Buy a developer a beer!
