                               Psi4 1.4a3.dev225

  ==> Input File <==

--------------------------------------------------------------------------
#psi4
#
memory 32 gb

molecule  {
-1 1
  P        0.0000270     0.0927860     0.1323680
  O       -0.0003570    -0.8146400     1.3390660
  O        1.2942880    -0.3216710    -0.8240020
  O        0.0005500     1.5933250     0.2166250
  O       -1.2944150    -0.3207910    -0.8241400
  H        1.5299676    -1.1941244    -0.6332910
  H       -1.5436530    -1.2402210    -0.6229420
units angstrom
no_reorient  #important for SAPT in psi4, default
symmetry c1  #important for SAPT in psi4, default
}

set PROPERTIES_ORIGIN ["COM"]
properties('MP2/aug-cc-pvtz', properties = ['dipole'])
--------------------------------------------------------------------------

    Molecular point group: c1
  Charge       = -1
  Multiplicity = 1
  Basis Set: AUG-CC-PVTZ
    Blend: AUG-CC-PVTZ
  Basis Set: (AUG-CC-PVTZ AUX)
    Blend: AUG-CC-PVTZ-JKFIT

    Orbital Energies [Eh]
    ---------------------

    Doubly Occupied:

       1A    -79.880951     2A    -20.405666     3A    -20.400587
       4A    -20.311575     5A    -20.296939     6A     -7.396495
       7A     -5.295241     8A     -5.294604     9A     -5.293128
      10A     -1.229598    11A     -1.180303    12A     -1.095814
      13A     -1.059909    14A     -0.616674    15A     -0.540037
      16A     -0.480946    17A     -0.430092    18A     -0.426086
      19A     -0.366563    20A     -0.347126    21A     -0.338463
      22A     -0.285211    23A     -0.266458    24A     -0.251677
      25A     -0.236978

  @DF-RHF Final Energy:  -641.67219318547893

   => Energetics <=

    Nuclear Repulsion Energy =            264.8719701742957113
    One-Electron Energy =               -1425.6340824478386367
    Two-Electron Energy =                 519.0899190880639935
    Total Energy =                       -641.6721931854789318
  Basis Set: (AUG-CC-PVTZ AUX)
    Blend: AUG-CC-PVTZ-RI
    Molecular point group: c1

    Geometry (in Angstrom), charge = -1, multiplicity = 1:

       Center              X                  Y                   Z               Mass
    ------------   -----------------  -----------------  -----------------  -----------------
         P            0.000149725037     0.065979385383     0.118393172713    30.973761998420
         O           -0.000234274963    -0.841446614617     1.325091172713    15.994914619570
         O            1.294410725037    -0.348477614617    -0.837976827287    15.994914619570
         O            0.000672725037     1.566518385383     0.202650172713    15.994914619570
         O           -1.294292274963    -0.347597614617    -0.838114827287    15.994914619570
         H            1.530090325037    -1.220931014617    -0.647265827287     1.007825032230
         H           -1.543530274963    -1.267027614617    -0.636916827287     1.007825032230

  Basis Set: AUG-CC-PVTZ
    Blend: AUG-CC-PVTZ
  Basis Set: (AUG-CC-PVTZ AUX)
    Blend: AUG-CC-PVTZ-JKFIT
	 Reference Energy          =    -641.6721931854789318 [Eh]
	 Singles Energy            =      -0.0000000000000000 [Eh]
	 Same-Spin Energy          =      -0.3315661931594219 [Eh]
	 Opposite-Spin Energy      =      -0.9284146118552283 [Eh]
	 Correlation Energy        =      -1.2599808050146502 [Eh]
	 Total Energy              =    -642.9321739904935384 [Eh]

	 ================> DF-SCS-MP2 Energies <==================
	-----------------------------------------------------------
	 SCS Same-Spin Scale       =       0.3333333333333333 [-]
	 SCS Opposite-Spin Scale   =       1.2000000000000000 [-]
	 SCS Same-Spin Energy      =      -0.1105220643864740 [Eh]
	 SCS Opposite-Spin Energy  =      -1.1140975342262740 [Eh]
	 SCS Correlation Energy    =      -1.2246195986127479 [Eh]
	 SCS Total Energy          =    -642.8968127840917077 [Eh]
	-----------------------------------------------------------

  Dipole Moment: [D]
     X:    -0.0211      Y:    -3.7896      Z:    -2.0827     Total:     4.3242

*** Psi4 exiting successfully. Buy a developer a beer!
