                               Psi4 1.4a3.dev225

  ==> Input File <==

--------------------------------------------------------------------------
#psi4
#
memory 32 gb

molecule  {
-1 1
  P        0.0000270     0.0927860     0.1323680
  O       -0.0003570    -0.8146400     1.3390660
  O        1.2942880    -0.3216710    -0.8240020
  O        0.0005500     1.5933250     0.2166250
  O       -1.2944150    -0.3207910    -0.8241400
  H        1.5554844    -1.2885836    -0.6126430
  H       -1.5436530    -1.2402210    -0.6229420
units angstrom
no_reorient  #important for SAPT in psi4, default
symmetry c1  #important for SAPT in psi4, default
}

set PROPERTIES_ORIGIN ["COM"]
properties('MP2/aug-cc-pvtz', properties = ['dipole'])
--------------------------------------------------------------------------

    Molecular point group: c1
  Charge       = -1
  Multiplicity = 1
  Basis Set: AUG-CC-PVTZ
    Blend: AUG-CC-PVTZ
  Basis Set: (AUG-CC-PVTZ AUX)
    Blend: AUG-CC-PVTZ-JKFIT

    Orbital Energies [Eh]
    ---------------------

    Doubly Occupied:

       1A    -79.879905     2A    -20.409469     3A    -20.404884
       4A    -20.310276     5A    -20.296938     6A     -7.395472
       7A     -5.294210     8A     -5.293577     9A     -5.292109
      10A     -1.219651    11A     -1.167054    12A     -1.092512
      13A     -1.059337    14A     -0.604871    15A     -0.526245
      16A     -0.475660    17A     -0.426820    18A     -0.424660
      19A     -0.364864    20A     -0.345622    21A     -0.336251
      22A     -0.284481    23A     -0.265254    24A     -0.250820
      25A     -0.236145

  @DF-RHF Final Energy:  -641.66614367760894

   => Energetics <=

    Nuclear Repulsion Energy =            264.2380401612661558
    One-Electron Energy =               -1424.4941891356104406
    Two-Electron Energy =                 518.5900052967353986
    Total Energy =                       -641.6661436776089431
  Basis Set: (AUG-CC-PVTZ AUX)
    Blend: AUG-CC-PVTZ-RI
    Molecular point group: c1

    Geometry (in Angstrom), charge = -1, multiplicity = 1:

       Center              X                  Y                   Z               Mass
    ------------   -----------------  -----------------  -----------------  -----------------
         P           -0.000115477771     0.066961124671     0.118178572623    30.973761998420
         O           -0.000499477771    -0.840464875329     1.324876572623    15.994914619570
         O            1.294145522229    -0.347495875329    -0.838191427377    15.994914619570
         O            0.000407522229     1.567500124671     0.202435572623    15.994914619570
         O           -1.294557477771    -0.346615875329    -0.838329427377    15.994914619570
         H            1.555341922229    -1.314408475329    -0.626832427377     1.007825032230
         H           -1.543795477771    -1.266045875329    -0.637131427377     1.007825032230

  Basis Set: AUG-CC-PVTZ
    Blend: AUG-CC-PVTZ
  Basis Set: (AUG-CC-PVTZ AUX)
    Blend: AUG-CC-PVTZ-JKFIT
	 Reference Energy          =    -641.6661436776089431 [Eh]
	 Singles Energy            =      -0.0000000000000000 [Eh]
	 Same-Spin Energy          =      -0.3326725790189381 [Eh]
	 Opposite-Spin Energy      =      -0.9312690574840056 [Eh]
	 Correlation Energy        =      -1.2639416365029437 [Eh]
	 Total Energy              =    -642.9300853141119205 [Eh]

	 ================> DF-SCS-MP2 Energies <==================
	-----------------------------------------------------------
	 SCS Same-Spin Scale       =       0.3333333333333333 [-]
	 SCS Opposite-Spin Scale   =       1.2000000000000000 [-]
	 SCS Same-Spin Energy      =      -0.1108908596729794 [Eh]
	 SCS Opposite-Spin Energy  =      -1.1175228689808065 [Eh]
	 SCS Correlation Energy    =      -1.2284137286537860 [Eh]
	 SCS Total Energy          =    -642.8945574062627202 [Eh]
	-----------------------------------------------------------

  Dipole Moment: [D]
     X:     0.0156      Y:    -3.8523      Z:    -2.0736     Total:     4.3750

*** Psi4 exiting successfully. Buy a developer a beer!
