                               Psi4 1.3.2 release

  ==> Input File <==

--------------------------------------------------------------------------
#psi4
#
memory 32 gb

molecule  {
-1 1
  P        0.0000210     0.1146100     0.1301380
  O       -0.0002568    -0.7414458     1.1282853
  O        1.2994240    -0.3312660    -0.8383880
  O        0.0002880     1.6062300     0.2570730
  O       -1.2993950    -0.3307730    -0.8386000
  H        1.6095220    -1.1501010    -0.4166970
  H       -1.6099810    -1.1493890    -0.4168420
units angstrom
no_reorient  #important for SAPT in psi4, default
symmetry c1  #important for SAPT in psi4, default
}

set PROPERTIES_ORIGIN ["COM"]
properties('MP2/aug-cc-pvtz', properties = ['dipole'])
--------------------------------------------------------------------------

    Molecular point group: c1
  Charge       = -1
  Multiplicity = 1
  Basis Set: AUG-CC-PVTZ
    Blend: AUG-CC-PVTZ
  Basis Set: (AUG-CC-PVTZ AUX)
    Blend: AUG-CC-PVTZ-JKFIT

    Orbital Energies [Eh]
    ---------------------

    Doubly Occupied:

       1A    -79.838685     2A    -20.384764     3A    -20.384749
       4A    -20.304679     5A    -20.288636     6A     -7.367178
       7A     -5.267344     8A     -5.263683     9A     -5.262511
      10A     -1.242791    11A     -1.155347    12A     -1.144028
      13A     -1.063942    14A     -0.583863    15A     -0.499562
      16A     -0.473738    17A     -0.452392    18A     -0.438774
      19A     -0.376313    20A     -0.350201    21A     -0.321275
      22A     -0.304621    23A     -0.295028    24A     -0.245494
      25A     -0.243120

  @DF-RHF Final Energy:  -641.62899021644125

   => Energetics <=

    Nuclear Repulsion Energy =            272.8881776680066196
    One-Electron Energy =               -1441.9289049824305948
    Two-Electron Energy =                 527.4117370979827228
    Total Energy =                       -641.6289902164412524
  Basis Set: (AUG-CC-PVTZ AUX)
    Blend: AUG-CC-PVTZ-RI
    Molecular point group: c1

    Geometry (in Angstrom), charge = -1, multiplicity = 1:

       Center              X                  Y                   Z               Mass
    ------------   -----------------  -----------------  -----------------  -----------------
         P            0.000009132802     0.068458052602     0.145336559442    30.973761998420
         O           -0.000268667198    -0.787597747398     1.143483859442    15.994914619570
         O            1.299412132802    -0.377417947398    -0.823189440558    15.994914619570
         O            0.000276132802     1.560078052602     0.272271559442    15.994914619570
         O           -1.299406867198    -0.376924947398    -0.823401440558    15.994914619570
         H            1.609510132802    -1.196252947398    -0.401498440558     1.007825032230
         H           -1.609992867198    -1.195540947398    -0.401643440558     1.007825032230

  Basis Set: AUG-CC-PVTZ
    Blend: AUG-CC-PVTZ
  Basis Set: (AUG-CC-PVTZ AUX)
    Blend: AUG-CC-PVTZ-JKFIT
	 Reference Energy          =    -641.6289902164412524 [Eh]
	 Singles Energy            =      -0.0000000000000000 [Eh]
	 Same-Spin Energy          =      -0.3286568029185503 [Eh]
	 Opposite-Spin Energy      =      -0.9213209417107966 [Eh]
	 Correlation Energy        =      -1.2499777446293470 [Eh]
	 Total Energy              =    -642.8789679610705434 [Eh]

	 ================> DF-SCS-MP2 Energies <==================
	-----------------------------------------------------------
	 SCS Same-Spin Scale       =       0.3333333333333333 [-]
	 SCS Opposite-Spin Scale   =       1.2000000000000000 [-]
	 SCS Same-Spin Energy      =      -0.1095522676395168 [Eh]
	 SCS Opposite-Spin Energy  =      -1.1055851300529558 [Eh]
	 SCS Correlation Energy    =      -1.2151373976924726 [Eh]
	 SCS Total Energy          =    -642.8441276141337539 [Eh]
	-----------------------------------------------------------

  Dipole Moment: [D]
     X:    -0.0007      Y:    -3.8431      Z:    -0.3790     Total:     3.8617

*** Psi4 exiting successfully. Buy a developer a beer!
