                               Psi4 1.3.2 release

  ==> Input File <==

--------------------------------------------------------------------------
#psi4
#
memory 32 gb

molecule  {
-1 1
  P        0.0000210     0.1146100     0.1301380
  O       -0.0002865    -0.7460415     1.3768914
  O        1.2994240    -0.3312660    -0.8383880
  O        0.0002880     1.6062300     0.2570730
  O       -1.2993950    -0.3307730    -0.8386000
  H        1.6095220    -1.1501010    -0.4166970
  H       -1.6099810    -1.1493890    -0.4168420
units angstrom
no_reorient  #important for SAPT in psi4, default
symmetry c1  #important for SAPT in psi4, default
}

set PROPERTIES_ORIGIN ["COM"]
properties('MP2/aug-cc-pvtz', properties = ['dipole'])
--------------------------------------------------------------------------

    Molecular point group: c1
  Charge       = -1
  Multiplicity = 1
  Basis Set: AUG-CC-PVTZ
    Blend: AUG-CC-PVTZ
  Basis Set: (AUG-CC-PVTZ AUX)
    Blend: AUG-CC-PVTZ-JKFIT

    Orbital Energies [Eh]
    ---------------------

    Doubly Occupied:

       1A    -79.884729     2A    -20.408405     3A    -20.408390
       4A    -20.315197     5A    -20.298002     6A     -7.400195
       7A     -5.298859     8A     -5.298010     9A     -5.296932
      10A     -1.222803    11A     -1.174865    12A     -1.098987
      13A     -1.060833    14A     -0.603404    15A     -0.516880
      16A     -0.486901    17A     -0.440822    18A     -0.424751
      19A     -0.368528    20A     -0.347187    21A     -0.339536
      22A     -0.287961    23A     -0.271439    24A     -0.251369
      25A     -0.237031

  @DF-RHF Final Energy:  -641.66825180839055

   => Energetics <=

    Nuclear Repulsion Energy =            263.4467812317517428
    One-Electron Energy =               -1422.7460317762052000
    Two-Electron Energy =                 517.6309987360630203
    Total Energy =                       -641.6682518083905507
  Basis Set: (AUG-CC-PVTZ AUX)
    Blend: AUG-CC-PVTZ-RI
    Molecular point group: c1

    Geometry (in Angstrom), charge = -1, multiplicity = 1:

       Center              X                  Y                   Z               Mass
    ------------   -----------------  -----------------  -----------------  -----------------
         P            0.000014031776     0.069216106987     0.104329325679    30.973761998420
         O           -0.000293468224    -0.791435393013     1.351082725679    15.994914619570
         O            1.299417031776    -0.376659893013    -0.864196674321    15.994914619570
         O            0.000281031776     1.560836106987     0.231264325679    15.994914619570
         O           -1.299401968224    -0.376166893013    -0.864408674321    15.994914619570
         H            1.609515031776    -1.195494893013    -0.442505674321     1.007825032230
         H           -1.609987968224    -1.194782893013    -0.442650674321     1.007825032230

  Basis Set: AUG-CC-PVTZ
    Blend: AUG-CC-PVTZ
  Basis Set: (AUG-CC-PVTZ AUX)
    Blend: AUG-CC-PVTZ-JKFIT
	 Reference Energy          =    -641.6682518083905507 [Eh]
	 Singles Energy            =      -0.0000000000000000 [Eh]
	 Same-Spin Energy          =      -0.3326998639146177 [Eh]
	 Opposite-Spin Energy      =      -0.9312456331184835 [Eh]
	 Correlation Energy        =      -1.2639454970331012 [Eh]
	 Total Energy              =    -642.9321973054236423 [Eh]

	 ================> DF-SCS-MP2 Energies <==================
	-----------------------------------------------------------
	 SCS Same-Spin Scale       =       0.3333333333333333 [-]
	 SCS Opposite-Spin Scale   =       1.2000000000000000 [-]
	 SCS Same-Spin Energy      =      -0.1108999546382059 [Eh]
	 SCS Opposite-Spin Energy  =      -1.1174947597421803 [Eh]
	 SCS Correlation Energy    =      -1.2283947143803862 [Eh]
	 SCS Total Energy          =    -642.8966465227709932 [Eh]
	-----------------------------------------------------------

  Dipole Moment: [D]
     X:    -0.0005      Y:    -3.5177      Z:    -1.6019     Total:     3.8653

*** Psi4 exiting successfully. Buy a developer a beer!
