                               Psi4 1.3.2 release

  ==> Input File <==

--------------------------------------------------------------------------
#psi4
#
memory 32 gb

molecule  {
-1 1
  P        0.0339576    -0.0290734     0.2258350
  O       -0.0002990    -0.8716480     1.2800990
  O        1.2994240    -0.3312660    -0.8383880
  O        0.0002880     1.6062300     0.2570730
  O       -1.2993950    -0.3307730    -0.8386000
  H        1.6095220    -1.1501010    -0.4166970
  H       -1.6099810    -1.1493890    -0.4168420
units angstrom
no_reorient  #important for SAPT in psi4, default
symmetry c1  #important for SAPT in psi4, default
}

set PROPERTIES_ORIGIN ["COM"]
properties('MP2/aug-cc-pvtz', properties = ['dipole'])
--------------------------------------------------------------------------

    Molecular point group: c1
  Charge       = -1
  Multiplicity = 1
  Basis Set: AUG-CC-PVTZ
    Blend: AUG-CC-PVTZ
  Basis Set: (AUG-CC-PVTZ AUX)
    Blend: AUG-CC-PVTZ-JKFIT

    Orbital Energies [Eh]
    ---------------------

    Doubly Occupied:

       1A    -79.878266     2A    -20.410459     3A    -20.393971
       4A    -20.348248     5A    -20.282460     6A     -7.399773
       7A     -5.298885     8A     -5.297255     9A     -5.295324
      10A     -1.244830    11A     -1.174972    12A     -1.155061
      13A     -1.005798    14A     -0.586645    15A     -0.501602
      16A     -0.487468    17A     -0.462330    18A     -0.445722
      19A     -0.387827    20A     -0.359643    21A     -0.328507
      22A     -0.321264    23A     -0.283590    24A     -0.215513
      25A     -0.212887

  @DF-RHF Final Energy:  -641.61020555025925

   => Energetics <=

    Nuclear Repulsion Energy =            264.3960242280312514
    One-Electron Energy =               -1424.4558630324527257
    Two-Electron Energy =                 518.4496332541621086
    Total Energy =                       -641.6102055502592520
  Basis Set: (AUG-CC-PVTZ AUX)
    Blend: AUG-CC-PVTZ-RI
    Molecular point group: c1

    Geometry (in Angstrom), charge = -1, multiplicity = 1:

       Center              X                  Y                   Z               Mass
    ------------   -----------------  -----------------  -----------------  -----------------
         P            0.023112699339    -0.007853468194     0.185424660218    30.973761998420
         O           -0.011143900661    -0.850428068194     1.239688660218    15.994914619570
         O            1.288579099339    -0.310046068194    -0.878798339782    15.994914619570
         O           -0.010556900661     1.627449931806     0.216662660218    15.994914619570
         O           -1.310239900661    -0.309553068194    -0.879010339782    15.994914619570
         H            1.598677099339    -1.128881068194    -0.457107339782     1.007825032230
         H           -1.620825900661    -1.128169068194    -0.457252339782     1.007825032230

  Basis Set: AUG-CC-PVTZ
    Blend: AUG-CC-PVTZ
  Basis Set: (AUG-CC-PVTZ AUX)
    Blend: AUG-CC-PVTZ-JKFIT
	 Reference Energy          =    -641.6102055502592520 [Eh]
	 Singles Energy            =      -0.0000000000000000 [Eh]
	 Same-Spin Energy          =      -0.3333251916495704 [Eh]
	 Opposite-Spin Energy      =      -0.9332540085405854 [Eh]
	 Correlation Energy        =      -1.2665792001901557 [Eh]
	 Total Energy              =    -642.8767847504493602 [Eh]

	 ================> DF-SCS-MP2 Energies <==================
	-----------------------------------------------------------
	 SCS Same-Spin Scale       =       0.3333333333333333 [-]
	 SCS Opposite-Spin Scale   =       1.2000000000000000 [-]
	 SCS Same-Spin Energy      =      -0.1111083972165235 [Eh]
	 SCS Opposite-Spin Energy  =      -1.1199048102487024 [Eh]
	 SCS Correlation Energy    =      -1.2310132074652258 [Eh]
	 SCS Total Energy          =    -642.8412187577245049 [Eh]
	-----------------------------------------------------------

  Dipole Moment: [D]
     X:     0.4055      Y:    -4.9009      Z:    -0.3118     Total:     4.9275

*** Psi4 exiting successfully. Buy a developer a beer!
