                               Psi4 1.3.2 release

  ==> Input File <==

--------------------------------------------------------------------------
#psi4
#
memory 32 gb

molecule  {
-1 1
  P        0.0000210     0.1146100     0.1301380
  O       -0.0002911    -0.7890283     1.3460956
  O        1.2994240    -0.3312660    -0.8383880
  O        0.0002880     1.6062300     0.2570730
  O       -1.2993950    -0.3307730    -0.8386000
  H        1.6095220    -1.1501010    -0.4166970
  H       -1.6099810    -1.1493890    -0.4168420
units angstrom
no_reorient  #important for SAPT in psi4, default
symmetry c1  #important for SAPT in psi4, default
}

set PROPERTIES_ORIGIN ["COM"]
properties('MP2/aug-cc-pvtz', properties = ['dipole'])
--------------------------------------------------------------------------

    Molecular point group: c1
  Charge       = -1
  Multiplicity = 1
  Basis Set: AUG-CC-PVTZ
    Blend: AUG-CC-PVTZ
  Basis Set: (AUG-CC-PVTZ AUX)
    Blend: AUG-CC-PVTZ-JKFIT

    Orbital Energies [Eh]
    ---------------------

    Doubly Occupied:

       1A    -79.885125     2A    -20.406161     3A    -20.406146
       4A    -20.315475     5A    -20.301461     6A     -7.400544
       7A     -5.299214     8A     -5.298450     9A     -5.297246
      10A     -1.221809    11A     -1.172984    12A     -1.098723
      13A     -1.063870    14A     -0.602284    15A     -0.515280
      16A     -0.485626    17A     -0.440301    18A     -0.424702
      19A     -0.367141    20A     -0.348934    21A     -0.337986
      22A     -0.288510    23A     -0.270760    24A     -0.254089
      25A     -0.240171

  @DF-RHF Final Energy:  -641.66956281458249

   => Energetics <=

    Nuclear Repulsion Energy =            263.5509623529034116
    One-Electron Energy =               -1422.9550631013726161
    Two-Electron Energy =                 517.7345379338868270
    Total Energy =                       -641.6695628145824912
  Basis Set: (AUG-CC-PVTZ AUX)
    Blend: AUG-CC-PVTZ-RI
    Molecular point group: c1

    Geometry (in Angstrom), charge = -1, multiplicity = 1:

       Center              X                  Y                   Z               Mass
    ------------   -----------------  -----------------  -----------------  -----------------
         P            0.000014790540     0.076306720437     0.109409050471    30.973761998420
         O           -0.000297309460    -0.827331579563     1.325366650471    15.994914619570
         O            1.299417790540    -0.369569279563    -0.859116949529    15.994914619570
         O            0.000281790540     1.567926720437     0.236344050471    15.994914619570
         O           -1.299401209460    -0.369076279563    -0.859328949529    15.994914619570
         H            1.609515790540    -1.188404279563    -0.437425949529     1.007825032230
         H           -1.609987209460    -1.187692279563    -0.437570949529     1.007825032230

  Basis Set: AUG-CC-PVTZ
    Blend: AUG-CC-PVTZ
  Basis Set: (AUG-CC-PVTZ AUX)
    Blend: AUG-CC-PVTZ-JKFIT
	 Reference Energy          =    -641.6695628145824912 [Eh]
	 Singles Energy            =      -0.0000000000000000 [Eh]
	 Same-Spin Energy          =      -0.3326761840727329 [Eh]
	 Opposite-Spin Energy      =      -0.9311640958898977 [Eh]
	 Correlation Energy        =      -1.2638402799626305 [Eh]
	 Total Energy              =    -642.9334030945451559 [Eh]

	 ================> DF-SCS-MP2 Energies <==================
	-----------------------------------------------------------
	 SCS Same-Spin Scale       =       0.3333333333333333 [-]
	 SCS Opposite-Spin Scale   =       1.2000000000000000 [-]
	 SCS Same-Spin Energy      =      -0.1108920613575776 [Eh]
	 SCS Opposite-Spin Energy  =      -1.1173969150678771 [Eh]
	 SCS Correlation Energy    =      -1.2282889764254548 [Eh]
	 SCS Total Energy          =    -642.8978517910079518 [Eh]
	-----------------------------------------------------------

  Dipole Moment: [D]
     X:    -0.0005      Y:    -3.3797      Z:    -1.5199     Total:     3.7057

*** Psi4 exiting successfully. Buy a developer a beer!
