                               Psi4 1.3.2 release

  ==> Input File <==

--------------------------------------------------------------------------
#psi4
#
memory 32 gb

molecule  {
-1 1
  P        0.0000210     0.1146100     0.1301380
  O        0.0208959    -0.8834987     1.2696372
  O        1.2994240    -0.3312660    -0.8383880
  O        0.0002880     1.6062300     0.2570730
  O       -1.2993950    -0.3307730    -0.8386000
  H        1.6095220    -1.1501010    -0.4166970
  H       -1.6099810    -1.1493890    -0.4168420
units angstrom
no_reorient  #important for SAPT in psi4, default
symmetry c1  #important for SAPT in psi4, default
}

set PROPERTIES_ORIGIN ["COM"]
properties('MP2/aug-cc-pvtz', properties = ['dipole'])
--------------------------------------------------------------------------

    Molecular point group: c1
  Charge       = -1
  Multiplicity = 1
  Basis Set: AUG-CC-PVTZ
    Blend: AUG-CC-PVTZ
  Basis Set: (AUG-CC-PVTZ AUX)
    Blend: AUG-CC-PVTZ-JKFIT

    Orbital Energies [Eh]
    ---------------------

    Doubly Occupied:

       1A    -79.886045     2A    -20.402227     3A    -20.399381
       4A    -20.315768     5A    -20.309121     6A     -7.401385
       7A     -5.300055     8A     -5.299496     9A     -5.297996
      10A     -1.219683    11A     -1.168518    12A     -1.098031
      13A     -1.070086    14A     -0.599708    15A     -0.511475
      16A     -0.482568    17A     -0.439173    18A     -0.424735
      19A     -0.363915    20A     -0.352245    21A     -0.334382
      22A     -0.289433    23A     -0.268899    24A     -0.259701
      25A     -0.246396

  @DF-RHF Final Energy:  -641.67013692413389

   => Energetics <=

    Nuclear Repulsion Energy =            263.8508980456592781
    One-Electron Energy =               -1423.5612247892829600
    Two-Electron Energy =                 518.0401898194897967
    Total Energy =                       -641.6701369241338853
  Basis Set: (AUG-CC-PVTZ AUX)
    Blend: AUG-CC-PVTZ-RI
    Molecular point group: c1

    Geometry (in Angstrom), charge = -1, multiplicity = 1:

       Center              X                  Y                   Z               Mass
    ------------   -----------------  -----------------  -----------------  -----------------
         P           -0.003479975927     0.091889482792     0.122020758236    30.973761998420
         O            0.017394924073    -0.906219217208     1.261519958236    15.994914619570
         O            1.295923024073    -0.353986517208    -0.846505241764    15.994914619570
         O           -0.003212975927     1.583509482792     0.248955758236    15.994914619570
         O           -1.302895975927    -0.353493517208    -0.846717241764    15.994914619570
         H            1.606021024073    -1.172821517208    -0.424814241764     1.007825032230
         H           -1.613481975927    -1.172109517208    -0.424959241764     1.007825032230

  Basis Set: AUG-CC-PVTZ
    Blend: AUG-CC-PVTZ
  Basis Set: (AUG-CC-PVTZ AUX)
    Blend: AUG-CC-PVTZ-JKFIT
	 Reference Energy          =    -641.6701369241338853 [Eh]
	 Singles Energy            =      -0.0000000000000000 [Eh]
	 Same-Spin Energy          =      -0.3327385063136737 [Eh]
	 Opposite-Spin Energy      =      -0.9312049315895148 [Eh]
	 Correlation Energy        =      -1.2639434379031886 [Eh]
	 Total Energy              =    -642.9340803620370934 [Eh]

	 ================> DF-SCS-MP2 Energies <==================
	-----------------------------------------------------------
	 SCS Same-Spin Scale       =       0.3333333333333333 [-]
	 SCS Opposite-Spin Scale   =       1.2000000000000000 [-]
	 SCS Same-Spin Energy      =      -0.1109128354378912 [Eh]
	 SCS Opposite-Spin Energy  =      -1.1174459179074177 [Eh]
	 SCS Correlation Energy    =      -1.2283587533453089 [Eh]
	 SCS Total Energy          =    -642.8984956774792181 [Eh]
	-----------------------------------------------------------

  Dipole Moment: [D]
     X:    -0.0667      Y:    -3.0715      Z:    -1.3149     Total:     3.3417

*** Psi4 exiting successfully. Buy a developer a beer!
