                               Psi4 1.3.2 release

  ==> Input File <==

--------------------------------------------------------------------------
#psi4
#
memory 32 gb

molecule  {
-1 1
  P        0.0000210     0.1146100     0.1301380
  O       -0.0002990    -0.8716480     1.2800990
  O        1.2994240    -0.3312660    -0.8383880
  O        0.0002880     1.6062300     0.2570730
  O       -1.2993950    -0.3307730    -0.8386000
  H        1.6414303    -1.2343571    -0.3733061
  H       -1.6099810    -1.1493890    -0.4168420
units angstrom
no_reorient  #important for SAPT in psi4, default
symmetry c1  #important for SAPT in psi4, default
}

set PROPERTIES_ORIGIN ["COM"]
properties('MP2/aug-cc-pvtz', properties = ['dipole'])
--------------------------------------------------------------------------

    Molecular point group: c1
  Charge       = -1
  Multiplicity = 1
  Basis Set: AUG-CC-PVTZ
    Blend: AUG-CC-PVTZ
  Basis Set: (AUG-CC-PVTZ AUX)
    Blend: AUG-CC-PVTZ-JKFIT

    Orbital Energies [Eh]
    ---------------------

    Doubly Occupied:

       1A    -79.884906     2A    -20.408949     3A    -20.400848
       4A    -20.314598     5A    -20.307882     6A     -7.400262
       7A     -5.298918     8A     -5.298354     9A     -5.296891
      10A     -1.213148    11A     -1.156131    12A     -1.094318
      13A     -1.068751    14A     -0.591091    15A     -0.500184
      16A     -0.474583    17A     -0.435981    18A     -0.423431
      19A     -0.362685    20A     -0.350181    21A     -0.332708
      22A     -0.288579    23A     -0.267956    24A     -0.257940
      25A     -0.244601

  @DF-RHF Final Energy:  -641.65709718337268

   => Energetics <=

    Nuclear Repulsion Energy =            263.2276206459189325
    One-Electron Energy =               -1422.4216781694735801
    Two-Electron Energy =                 517.5369603401819631
    Total Energy =                       -641.6570971833726844
  Basis Set: (AUG-CC-PVTZ AUX)
    Blend: AUG-CC-PVTZ-RI
    Molecular point group: c1

    Geometry (in Angstrom), charge = -1, multiplicity = 1:

       Center              X                  Y                   Z               Mass
    ------------   -----------------  -----------------  -----------------  -----------------
         P           -0.000315537713     0.090810421939     0.119844125710    30.973761998420
         O           -0.000635537713    -0.895447578061     1.269805125710    15.994914619570
         O            1.299087462287    -0.355065578061    -0.848681874290    15.994914619570
         O           -0.000048537713     1.582430421939     0.246779125710    15.994914619570
         O           -1.299731537713    -0.354572578061    -0.848893874290    15.994914619570
         H            1.641093762287    -1.258156678061    -0.383599974290     1.007825032230
         H           -1.610317537713    -1.173188578061    -0.427135874290     1.007825032230

  Basis Set: AUG-CC-PVTZ
    Blend: AUG-CC-PVTZ
  Basis Set: (AUG-CC-PVTZ AUX)
    Blend: AUG-CC-PVTZ-JKFIT
	 Reference Energy          =    -641.6570971833726844 [Eh]
	 Singles Energy            =      -0.0000000000000000 [Eh]
	 Same-Spin Energy          =      -0.3338309072556646 [Eh]
	 Opposite-Spin Energy      =      -0.9341661592469049 [Eh]
	 Correlation Energy        =      -1.2679970665025695 [Eh]
	 Total Energy              =    -642.9250942498752011 [Eh]

	 ================> DF-SCS-MP2 Energies <==================
	-----------------------------------------------------------
	 SCS Same-Spin Scale       =       0.3333333333333333 [-]
	 SCS Opposite-Spin Scale   =       1.2000000000000000 [-]
	 SCS Same-Spin Energy      =      -0.1112769690852215 [Eh]
	 SCS Opposite-Spin Energy  =      -1.1209993910962859 [Eh]
	 SCS Correlation Energy    =      -1.2322763601815074 [Eh]
	 SCS Total Energy          =    -642.8893735435541430 [Eh]
	-----------------------------------------------------------

  Dipole Moment: [D]
     X:     0.0399      Y:    -3.1760      Z:    -1.3104     Total:     3.4360

*** Psi4 exiting successfully. Buy a developer a beer!
