                               Psi4 1.3.2 release

  ==> Input File <==

--------------------------------------------------------------------------
#psi4
#
memory 32 gb

molecule  {
-1 1
  P        0.0000210     0.1146100     0.1301380
  O       -0.0002972    -0.8514282     1.2971364
  O        1.2994240    -0.3312660    -0.8383880
  O        0.0002880     1.6062300     0.2570730
  O       -1.2993950    -0.3307730    -0.8386000
  H        1.6095220    -1.1501010    -0.4166970
  H       -1.6099810    -1.1493890    -0.4168420
units angstrom
no_reorient  #important for SAPT in psi4, default
symmetry c1  #important for SAPT in psi4, default
}

set PROPERTIES_ORIGIN ["COM"]
properties('MP2/aug-cc-pvtz', properties = ['dipole'])
--------------------------------------------------------------------------

    Molecular point group: c1
  Charge       = -1
  Multiplicity = 1
  Basis Set: AUG-CC-PVTZ
    Blend: AUG-CC-PVTZ
  Basis Set: (AUG-CC-PVTZ AUX)
    Blend: AUG-CC-PVTZ-JKFIT

    Orbital Energies [Eh]
    ---------------------

    Doubly Occupied:

       1A    -79.885724     2A    -20.402704     3A    -20.402689
       4A    -20.315726     5A    -20.306505     6A     -7.401087
       7A     -5.299758     8A     -5.299127     9A     -5.297731
      10A     -1.220385    11A     -1.170094    12A     -1.098285
      13A     -1.068063    14A     -0.600598    15A     -0.512817
      16A     -0.483655    17A     -0.439555    18A     -0.424698
      19A     -0.365015    20A     -0.351220    21A     -0.335652
      22A     -0.289166    23A     -0.269599    24A     -0.257869
      25A     -0.244398

  @DF-RHF Final Energy:  -641.67034911994381

   => Energetics <=

    Nuclear Repulsion Energy =            263.7364657369677730
    One-Electron Energy =               -1423.3293873289553630
    Two-Electron Energy =                 517.9225724720437256
    Total Energy =                       -641.6703491199438076
  Basis Set: (AUG-CC-PVTZ AUX)
    Blend: AUG-CC-PVTZ-RI
    Molecular point group: c1

    Geometry (in Angstrom), charge = -1, multiplicity = 1:

       Center              X                  Y                   Z               Mass
    ------------   -----------------  -----------------  -----------------  -----------------
         P            0.000015796726     0.086599497992     0.117484803074    30.973761998420
         O           -0.000302403274    -0.879438702008     1.284483203074    15.994914619570
         O            1.299418796726    -0.359276502008    -0.851041196926    15.994914619570
         O            0.000282796726     1.578219497992     0.244419803074    15.994914619570
         O           -1.299400203274    -0.358783502008    -0.851253196926    15.994914619570
         H            1.609516796726    -1.178111502008    -0.429350196926     1.007825032230
         H           -1.609986203274    -1.177399502008    -0.429495196926     1.007825032230

  Basis Set: AUG-CC-PVTZ
    Blend: AUG-CC-PVTZ
  Basis Set: (AUG-CC-PVTZ AUX)
    Blend: AUG-CC-PVTZ-JKFIT
	 Reference Energy          =    -641.6703491199438076 [Eh]
	 Singles Energy            =      -0.0000000000000000 [Eh]
	 Same-Spin Energy          =      -0.3326972157441023 [Eh]
	 Opposite-Spin Energy      =      -0.9311521634030262 [Eh]
	 Correlation Energy        =      -1.2638493791471284 [Eh]
	 Total Energy              =    -642.9341984990909395 [Eh]

	 ================> DF-SCS-MP2 Energies <==================
	-----------------------------------------------------------
	 SCS Same-Spin Scale       =       0.3333333333333333 [-]
	 SCS Opposite-Spin Scale   =       1.2000000000000000 [-]
	 SCS Same-Spin Energy      =      -0.1108990719147007 [Eh]
	 SCS Opposite-Spin Energy  =      -1.1173825960836314 [Eh]
	 SCS Correlation Energy    =      -1.2282816679983322 [Eh]
	 SCS Total Energy          =    -642.8986307879421247 [Eh]
	-----------------------------------------------------------

  Dipole Moment: [D]
     X:    -0.0005      Y:    -3.1769      Z:    -1.3888     Total:     3.4672

*** Psi4 exiting successfully. Buy a developer a beer!
