                               Psi4 1.3.2 release

  ==> Input File <==

--------------------------------------------------------------------------
#psi4
#
memory 32 gb

molecule  {
-1 1
  P        0.0000210     0.1146100     0.1301380
  O       -0.0003412    -1.0018502     1.4319127
  O        1.2994240    -0.3312660    -0.8383880
  O        0.0002880     1.6062300     0.2570730
  O       -1.2993950    -0.3307730    -0.8386000
  H        1.6095220    -1.1501010    -0.4166970
  H       -1.6099810    -1.1493890    -0.4168420
units angstrom
no_reorient  #important for SAPT in psi4, default
symmetry c1  #important for SAPT in psi4, default
}

set PROPERTIES_ORIGIN ["COM"]
properties('MP2/aug-cc-pvtz', properties = ['dipole'])
--------------------------------------------------------------------------

    Molecular point group: c1
  Charge       = -1
  Multiplicity = 1
  Basis Set: AUG-CC-PVTZ
    Blend: AUG-CC-PVTZ
  Basis Set: (AUG-CC-PVTZ AUX)
    Blend: AUG-CC-PVTZ-JKFIT

    Orbital Energies [Eh]
    ---------------------

    Doubly Occupied:

       1A    -79.913905     2A    -20.416446     3A    -20.416431
       4A    -20.324763     5A    -20.323261     6A     -7.425708
       7A     -5.324446     8A     -5.323718     9A     -5.321677
      10A     -1.225650    11A     -1.181820    12A     -1.100915
      13A     -1.017514    14A     -0.614676    15A     -0.524530
      16A     -0.494674    17A     -0.439919    18A     -0.429166
      19A     -0.367419    20A     -0.347425    21A     -0.337270
      22A     -0.276010    23A     -0.273565    24A     -0.242336
      25A     -0.235673

  @DF-RHF Final Energy:  -641.62964302732792

   => Energetics <=

    Nuclear Repulsion Energy =            256.4275905264752851
    One-Electron Energy =               -1408.3166315633347949
    Two-Electron Energy =                 510.2593980095315374
    Total Energy =                       -641.6296430273279157
  Basis Set: (AUG-CC-PVTZ AUX)
    Blend: AUG-CC-PVTZ-RI
    Molecular point group: c1

    Geometry (in Angstrom), charge = -1, multiplicity = 1:

       Center              X                  Y                   Z               Mass
    ------------   -----------------  -----------------  -----------------  -----------------
         P            0.000023054466     0.111411399699     0.095253638031    30.973761998420
         O           -0.000339145534    -1.005048800301     1.397028338031    15.994914619570
         O            1.299426054466    -0.334464600301    -0.873272361969    15.994914619570
         O            0.000290054466     1.603031399699     0.222188638031    15.994914619570
         O           -1.299392945534    -0.333971600301    -0.873484361969    15.994914619570
         H            1.609524054466    -1.153299600301    -0.451581361969     1.007825032230
         H           -1.609978945534    -1.152587600301    -0.451726361969     1.007825032230

  Basis Set: AUG-CC-PVTZ
    Blend: AUG-CC-PVTZ
  Basis Set: (AUG-CC-PVTZ AUX)
    Blend: AUG-CC-PVTZ-JKFIT
	 Reference Energy          =    -641.6296430273279157 [Eh]
	 Singles Energy            =      -0.0000000000000000 [Eh]
	 Same-Spin Energy          =      -0.3363280216582947 [Eh]
	 Opposite-Spin Energy      =      -0.9409883346585638 [Eh]
	 Correlation Energy        =      -1.2773163563168586 [Eh]
	 Total Energy              =    -642.9069593836447893 [Eh]

	 ================> DF-SCS-MP2 Energies <==================
	-----------------------------------------------------------
	 SCS Same-Spin Scale       =       0.3333333333333333 [-]
	 SCS Opposite-Spin Scale   =       1.2000000000000000 [-]
	 SCS Same-Spin Energy      =      -0.1121093405527649 [Eh]
	 SCS Opposite-Spin Energy  =      -1.1291860015902766 [Eh]
	 SCS Correlation Energy    =      -1.2412953421430415 [Eh]
	 SCS Total Energy          =    -642.8709383694709913 [Eh]
	-----------------------------------------------------------

  Dipole Moment: [D]
     X:    -0.0002      Y:    -2.3643      Z:    -2.2766     Total:     3.2822

*** Psi4 exiting successfully. Buy a developer a beer!
