                               Psi4 1.3.2 release

  ==> Input File <==

--------------------------------------------------------------------------
#psi4
#
memory 32 gb

molecule  {
-1 1
  P        0.0046966     0.0909601     0.1468542
  O       -0.0002990    -0.8716480     1.2800990
  O        1.2994240    -0.3312660    -0.8383880
  O        0.0002880     1.6062300     0.2570730
  O       -1.2993950    -0.3307730    -0.8386000
  H        1.6095220    -1.1501010    -0.4166970
  H       -1.6099810    -1.1493890    -0.4168420
units angstrom
no_reorient  #important for SAPT in psi4, default
symmetry c1  #important for SAPT in psi4, default
}

set PROPERTIES_ORIGIN ["COM"]
properties('MP2/aug-cc-pvtz', properties = ['dipole'])
--------------------------------------------------------------------------

    Molecular point group: c1
  Charge       = -1
  Multiplicity = 1
  Basis Set: AUG-CC-PVTZ
    Blend: AUG-CC-PVTZ
  Basis Set: (AUG-CC-PVTZ AUX)
    Blend: AUG-CC-PVTZ-JKFIT

    Orbital Energies [Eh]
    ---------------------

    Doubly Occupied:

       1A    -79.885521     2A    -20.402737     3A    -20.400497
       4A    -20.321503     5A    -20.303796     6A     -7.401094
       7A     -5.299738     8A     -5.299204     9A     -5.297668
      10A     -1.220629    11A     -1.168634    12A     -1.105531
      13A     -1.064577    14A     -0.597517    15A     -0.508470
      16A     -0.484996    17A     -0.441977    18A     -0.424977
      19A     -0.368614    20A     -0.348911    21A     -0.333605
      22A     -0.291810    23A     -0.277339    24A     -0.252399
      25A     -0.244430

  @DF-RHF Final Energy:  -641.66845665510039

   => Energetics <=

    Nuclear Repulsion Energy =            263.8478903947145682
    One-Electron Energy =               -1423.5403475135356075
    Two-Electron Energy =                 518.0240004637206539
    Total Energy =                       -641.6684566551003854
  Basis Set: (AUG-CC-PVTZ AUX)
    Blend: AUG-CC-PVTZ-RI
    Molecular point group: c1

    Geometry (in Angstrom), charge = -1, multiplicity = 1:

       Center              X                  Y                   Z               Mass
    ------------   -----------------  -----------------  -----------------  -----------------
         P            0.003198218232     0.073839053182     0.131671827115    30.973761998420
         O           -0.001797381768    -0.888769046818     1.264916627115    15.994914619570
         O            1.297925618232    -0.348387046818    -0.853570372885    15.994914619570
         O           -0.001210381768     1.589108953182     0.241890627115    15.994914619570
         O           -1.300893381768    -0.347894046818    -0.853782372885    15.994914619570
         H            1.608023618232    -1.167222046818    -0.431879372885     1.007825032230
         H           -1.611479381768    -1.166510046818    -0.432024372885     1.007825032230

  Basis Set: AUG-CC-PVTZ
    Blend: AUG-CC-PVTZ
  Basis Set: (AUG-CC-PVTZ AUX)
    Blend: AUG-CC-PVTZ-JKFIT
	 Reference Energy          =    -641.6684566551003854 [Eh]
	 Singles Energy            =      -0.0000000000000000 [Eh]
	 Same-Spin Energy          =      -0.3328220855926786 [Eh]
	 Opposite-Spin Energy      =      -0.9314404695535677 [Eh]
	 Correlation Energy        =      -1.2642625551462463 [Eh]
	 Total Energy              =    -642.9327192102466597 [Eh]

	 ================> DF-SCS-MP2 Energies <==================
	-----------------------------------------------------------
	 SCS Same-Spin Scale       =       0.3333333333333333 [-]
	 SCS Opposite-Spin Scale   =       1.2000000000000000 [-]
	 SCS Same-Spin Energy      =      -0.1109406951975595 [Eh]
	 SCS Opposite-Spin Energy  =      -1.1177285634642813 [Eh]
	 SCS Correlation Energy    =      -1.2286692586618408 [Eh]
	 SCS Total Energy          =    -642.8971259137622383 [Eh]
	-----------------------------------------------------------

  Dipole Moment: [D]
     X:     0.0559      Y:    -3.4104      Z:    -1.1535     Total:     3.6006

*** Psi4 exiting successfully. Buy a developer a beer!
