                               Psi4 1.3.2 release

  ==> Input File <==

--------------------------------------------------------------------------
#psi4
#
memory 32 gb

molecule  {
-1 1
  P        0.0000210     0.1146100     0.1301380
  O       -0.0214938    -0.8594968     1.2902105
  O        1.2994240    -0.3312660    -0.8383880
  O        0.0002880     1.6062300     0.2570730
  O       -1.2993950    -0.3307730    -0.8386000
  H        1.6095220    -1.1501010    -0.4166970
  H       -1.6099810    -1.1493890    -0.4168420
units angstrom
no_reorient  #important for SAPT in psi4, default
symmetry c1  #important for SAPT in psi4, default
}

set PROPERTIES_ORIGIN ["COM"]
properties('MP2/aug-cc-pvtz', properties = ['dipole'])
--------------------------------------------------------------------------

    Molecular point group: c1
  Charge       = -1
  Multiplicity = 1
  Basis Set: AUG-CC-PVTZ
    Blend: AUG-CC-PVTZ
  Basis Set: (AUG-CC-PVTZ AUX)
    Blend: AUG-CC-PVTZ-JKFIT

    Orbital Energies [Eh]
    ---------------------

    Doubly Occupied:

       1A    -79.885805     2A    -20.403623     3A    -20.400811
       4A    -20.315737     5A    -20.307169     6A     -7.401162
       7A     -5.299833     8A     -5.299220     9A     -5.297798
      10A     -1.220217    11A     -1.169693    12A     -1.098207
      13A     -1.068583    14A     -0.600378    15A     -0.512479
      16A     -0.483379    17A     -0.439452    18A     -0.424707
      19A     -0.364742    20A     -0.351500    21A     -0.335308
      22A     -0.289235    23A     -0.269401    24A     -0.258341
      25A     -0.244913

  @DF-RHF Final Energy:  -641.67029578865788

   => Energetics <=

    Nuclear Repulsion Energy =            263.7653789574643497
    One-Electron Energy =               -1423.3879609068130776
    Two-Electron Energy =                 517.9522861606909601
    Total Energy =                       -641.6702957886578815
  Basis Set: (AUG-CC-PVTZ AUX)
    Blend: AUG-CC-PVTZ-RI
    Molecular point group: c1

    Geometry (in Angstrom), charge = -1, multiplicity = 1:

       Center              X                  Y                   Z               Mass
    ------------   -----------------  -----------------  -----------------  -----------------
         P            0.003512146700     0.087930402448     0.118627220739    30.973761998420
         O           -0.018002653300    -0.886176397552     1.278699720739    15.994914619570
         O            1.302915146700    -0.357945597552    -0.849898779261    15.994914619570
         O            0.003779146700     1.579550402448     0.245562220739    15.994914619570
         O           -1.295903853300    -0.357452597552    -0.850110779261    15.994914619570
         H            1.613013146700    -1.176780597552    -0.428207779261     1.007825032230
         H           -1.606489853300    -1.176068597552    -0.428352779261     1.007825032230

  Basis Set: AUG-CC-PVTZ
    Blend: AUG-CC-PVTZ
  Basis Set: (AUG-CC-PVTZ AUX)
    Blend: AUG-CC-PVTZ-JKFIT
	 Reference Energy          =    -641.6702957886578815 [Eh]
	 Singles Energy            =      -0.0000000000000000 [Eh]
	 Same-Spin Energy          =      -0.3327075163585039 [Eh]
	 Opposite-Spin Energy      =      -0.9311651540202387 [Eh]
	 Correlation Energy        =      -1.2638726703787426 [Eh]
	 Total Energy              =    -642.9341684590366413 [Eh]

	 ================> DF-SCS-MP2 Energies <==================
	-----------------------------------------------------------
	 SCS Same-Spin Scale       =       0.3333333333333333 [-]
	 SCS Opposite-Spin Scale   =       1.2000000000000000 [-]
	 SCS Same-Spin Energy      =      -0.1109025054528346 [Eh]
	 SCS Opposite-Spin Energy  =      -1.1173981848242864 [Eh]
	 SCS Correlation Energy    =      -1.2283006902771210 [Eh]
	 SCS Total Energy          =    -642.8985964789350191 [Eh]
	-----------------------------------------------------------

  Dipole Moment: [D]
     X:     0.0653      Y:    -3.1503      Z:    -1.3701     Total:     3.4360

*** Psi4 exiting successfully. Buy a developer a beer!
