                               Psi4 1.4a3.dev225

  ==> Input File <==

--------------------------------------------------------------------------
#psi4
#
memory 32 gb

molecule  {
-1 1
  P        0.0000270     0.0927860     0.1323680
  O       -0.0003570    -0.8146400     1.3390660
  O        1.2787112    -0.3166829    -0.8124918
  O        0.0005500     1.5933250     0.2166250
  O       -1.2944150    -0.3207910    -0.8241400
  H        1.5427260    -1.2413540    -0.6229670
  H       -1.5436530    -1.2402210    -0.6229420
units angstrom
no_reorient  #important for SAPT in psi4, default
symmetry c1  #important for SAPT in psi4, default
}

set PROPERTIES_ORIGIN ["COM"]
properties('MP2/aug-cc-pvtz', properties = ['dipole'])
--------------------------------------------------------------------------

    Molecular point group: c1
  Charge       = -1
  Multiplicity = 1
  Basis Set: AUG-CC-PVTZ
    Blend: AUG-CC-PVTZ
  Basis Set: (AUG-CC-PVTZ AUX)
    Blend: AUG-CC-PVTZ-JKFIT

    Orbital Energies [Eh]
    ---------------------

    Doubly Occupied:

       1A    -79.877951     2A    -20.406522     3A    -20.403750
       4A    -20.308978     5A    -20.295261     6A     -7.393842
       7A     -5.292619     8A     -5.291963     9A     -5.290468
      10A     -1.225858    11A     -1.174358    12A     -1.092566
      13A     -1.058224    14A     -0.612100    15A     -0.535000
      16A     -0.478293    17A     -0.428688    18A     -0.426150
      19A     -0.365767    20A     -0.344702    21A     -0.337950
      22A     -0.283848    23A     -0.264533    24A     -0.249779
      25A     -0.234950

  @DF-RHF Final Energy:  -641.67168436560394

   => Energetics <=

    Nuclear Repulsion Energy =            265.2383596553755751
    One-Electron Energy =               -1426.4718498559127511
    Two-Electron Energy =                 519.5618058349333523
    Total Energy =                       -641.6716843656039373
  Basis Set: (AUG-CC-PVTZ AUX)
    Blend: AUG-CC-PVTZ-RI
    Molecular point group: c1

    Geometry (in Angstrom), charge = -1, multiplicity = 1:

       Center              X                  Y                   Z               Mass
    ------------   -----------------  -----------------  -----------------  -----------------
         P            0.002586495337     0.065647474802     0.116387281032    30.973761998420
         O            0.002202495337    -0.841778525198     1.323085281032    15.994914619570
         O            1.281270695337    -0.343821425198    -0.828472518968    15.994914619570
         O            0.003109495337     1.566186474802     0.200644281032    15.994914619570
         O           -1.291855504663    -0.347929525198    -0.840120718968    15.994914619570
         H            1.545285495337    -1.268492525198    -0.638947718968     1.007825032230
         H           -1.541093504663    -1.267359525198    -0.638922718968     1.007825032230

  Basis Set: AUG-CC-PVTZ
    Blend: AUG-CC-PVTZ
  Basis Set: (AUG-CC-PVTZ AUX)
    Blend: AUG-CC-PVTZ-JKFIT
	 Reference Energy          =    -641.6716843656039373 [Eh]
	 Singles Energy            =      -0.0000000000000000 [Eh]
	 Same-Spin Energy          =      -0.3320113423884853 [Eh]
	 Opposite-Spin Energy      =      -0.9293254170068685 [Eh]
	 Correlation Energy        =      -1.2613367593953539 [Eh]
	 Total Energy              =    -642.9330211249992999 [Eh]

	 ================> DF-SCS-MP2 Energies <==================
	-----------------------------------------------------------
	 SCS Same-Spin Scale       =       0.3333333333333333 [-]
	 SCS Opposite-Spin Scale   =       1.2000000000000000 [-]
	 SCS Same-Spin Energy      =      -0.1106704474628284 [Eh]
	 SCS Opposite-Spin Energy  =      -1.1151905004082423 [Eh]
	 SCS Correlation Energy    =      -1.2258609478710707 [Eh]
	 SCS Total Energy          =    -642.8975453134750069 [Eh]
	-----------------------------------------------------------

  Dipole Moment: [D]
     X:     0.0990      Y:    -3.8585      Z:    -2.1488     Total:     4.4176

*** Psi4 exiting successfully. Buy a developer a beer!
