                               Psi4 1.3.2 release

  ==> Input File <==

--------------------------------------------------------------------------
#psi4
#
memory 32 gb

molecule  {
-1 1
  P        0.0000210     0.1146100     0.1301380
  O       -0.0002990    -0.8716480     1.2800990
  O        1.2994240    -0.3312660    -0.8383880
  O        0.0002880     1.6062300     0.2570730
  O       -1.2993950    -0.3307730    -0.8386000
  H        1.5776137    -1.0658449    -0.4600879
  H       -1.6099810    -1.1493890    -0.4168420
units angstrom
no_reorient  #important for SAPT in psi4, default
symmetry c1  #important for SAPT in psi4, default
}

set PROPERTIES_ORIGIN ["COM"]
properties('MP2/aug-cc-pvtz', properties = ['dipole'])
--------------------------------------------------------------------------

    Molecular point group: c1
  Charge       = -1
  Multiplicity = 1
  Basis Set: AUG-CC-PVTZ
    Blend: AUG-CC-PVTZ
  Basis Set: (AUG-CC-PVTZ AUX)
    Blend: AUG-CC-PVTZ-JKFIT

    Orbital Energies [Eh]
    ---------------------

    Doubly Occupied:

       1A    -79.887088     2A    -20.402266     3A    -20.392078
       4A    -20.317025     5A    -20.308578     6A     -7.402425
       7A     -5.301111     8A     -5.300503     9A     -5.299040
      10A     -1.234870    11A     -1.182402    12A     -1.101523
      13A     -1.070033    14A     -0.613606    15A     -0.525789
      16A     -0.487225    17A     -0.441898    18A     -0.426253
      19A     -0.366215    20A     -0.353549    21A     -0.337385
      22A     -0.290209    23A     -0.270534    24A     -0.260172
      25A     -0.246710

  @DF-RHF Final Energy:  -641.66478978126406

   => Energetics <=

    Nuclear Repulsion Energy =            264.4771329520295922
    One-Electron Energy =               -1424.6468692738010304
    Two-Electron Energy =                 518.5049465405072624
    Total Energy =                       -641.6647897812640622
  Basis Set: (AUG-CC-PVTZ AUX)
    Blend: AUG-CC-PVTZ-RI
    Molecular point group: c1

    Geometry (in Angstrom), charge = -1, multiplicity = 1:

       Center              X                  Y                   Z               Mass
    ------------   -----------------  -----------------  -----------------  -----------------
         P            0.000347724981     0.089059030362     0.120746071763    30.973761998420
         O            0.000027724981    -0.897198969638     1.270707071763    15.994914619570
         O            1.299750724981    -0.356816969638    -0.847779928237    15.994914619570
         O            0.000614724981     1.580679030362     0.247681071763    15.994914619570
         O           -1.299068275019    -0.356323969638    -0.847991928237    15.994914619570
         H            1.577940424981    -1.091395869638    -0.469479828237     1.007825032230
         H           -1.609654275019    -1.174939969638    -0.426233928237     1.007825032230

  Basis Set: AUG-CC-PVTZ
    Blend: AUG-CC-PVTZ
  Basis Set: (AUG-CC-PVTZ AUX)
    Blend: AUG-CC-PVTZ-JKFIT
	 Reference Energy          =    -641.6647897812640622 [Eh]
	 Singles Energy            =      -0.0000000000000000 [Eh]
	 Same-Spin Energy          =      -0.3315713949954141 [Eh]
	 Opposite-Spin Energy      =      -0.9284958128703722 [Eh]
	 Correlation Energy        =      -1.2600672078657862 [Eh]
	 Total Energy              =    -642.9248569891298075 [Eh]

	 ================> DF-SCS-MP2 Energies <==================
	-----------------------------------------------------------
	 SCS Same-Spin Scale       =       0.3333333333333333 [-]
	 SCS Opposite-Spin Scale   =       1.2000000000000000 [-]
	 SCS Same-Spin Energy      =      -0.1105237983318047 [Eh]
	 SCS Opposite-Spin Energy  =      -1.1141949754444467 [Eh]
	 SCS Correlation Energy    =      -1.2247187737762513 [Eh]
	 SCS Total Energy          =    -642.8895085550402655 [Eh]
	-----------------------------------------------------------

  Dipole Moment: [D]
     X:    -0.0501      Y:    -3.0410      Z:    -1.3678     Total:     3.3348

*** Psi4 exiting successfully. Buy a developer a beer!
