                               Psi4 1.3.2 release

  ==> Input File <==

--------------------------------------------------------------------------
#psi4
#
memory 32 gb

molecule  {
-1 1
  P        0.0000210     0.1146100     0.1301380
  O       -0.1272407    -0.7943673     1.3354097
  O        1.2994240    -0.3312660    -0.8383880
  O        0.0002880     1.6062300     0.2570730
  O       -1.2993950    -0.3307730    -0.8386000
  H        1.6095220    -1.1501010    -0.4166970
  H       -1.6099810    -1.1493890    -0.4168420
units angstrom
no_reorient  #important for SAPT in psi4, default
symmetry c1  #important for SAPT in psi4, default
}

set PROPERTIES_ORIGIN ["COM"]
properties('MP2/aug-cc-pvtz', properties = ['dipole'])
--------------------------------------------------------------------------

    Molecular point group: c1
  Charge       = -1
  Multiplicity = 1
  Basis Set: AUG-CC-PVTZ
    Blend: AUG-CC-PVTZ
  Basis Set: (AUG-CC-PVTZ AUX)
    Blend: AUG-CC-PVTZ-JKFIT

    Orbital Energies [Eh]
    ---------------------

    Doubly Occupied:

       1A    -79.885215     2A    -20.413491     3A    -20.397305
       4A    -20.315263     5A    -20.302189     6A     -7.400649
       7A     -5.299328     8A     -5.298557     9A     -5.297330
      10A     -1.222145    11A     -1.172219    12A     -1.098075
      13A     -1.064306    14A     -0.602269    15A     -0.514846
      16A     -0.485197    17A     -0.439935    18A     -0.424803
      19A     -0.367187    20A     -0.349556    21A     -0.336556
      22A     -0.288498    23A     -0.269532    24A     -0.254500
      25A     -0.240583

  @DF-RHF Final Energy:  -641.66801439771257

   => Energetics <=

    Nuclear Repulsion Energy =            263.6223353005485706
    One-Electron Energy =               -1423.1016304314091485
    Two-Electron Energy =                 517.8112807331478962
    Total Energy =                       -641.6680143977125681
  Basis Set: (AUG-CC-PVTZ AUX)
    Blend: AUG-CC-PVTZ-RI
    Molecular point group: c1

    Geometry (in Angstrom), charge = -1, multiplicity = 1:

       Center              X                  Y                   Z               Mass
    ------------   -----------------  -----------------  -----------------  -----------------
         P            0.020954952198     0.077187381133     0.111171674957    30.973761998420
         O           -0.106306747802    -0.831789918867     1.316443374957    15.994914619570
         O            1.320357952198    -0.368688618867    -0.857354325043    15.994914619570
         O            0.021221952198     1.568807381133     0.238106674957    15.994914619570
         O           -1.278461047802    -0.368195618867    -0.857566325043    15.994914619570
         H            1.630455952198    -1.187523618867    -0.435663325043     1.007825032230
         H           -1.589047047802    -1.186811618867    -0.435808325043     1.007825032230

  Basis Set: AUG-CC-PVTZ
    Blend: AUG-CC-PVTZ
  Basis Set: (AUG-CC-PVTZ AUX)
    Blend: AUG-CC-PVTZ-JKFIT
	 Reference Energy          =    -641.6680143977125681 [Eh]
	 Singles Energy            =      -0.0000000000000000 [Eh]
	 Same-Spin Energy          =      -0.3327541205666655 [Eh]
	 Opposite-Spin Energy      =      -0.9313071910230559 [Eh]
	 Correlation Energy        =      -1.2640613115897215 [Eh]
	 Total Energy              =    -642.9320757093022394 [Eh]

	 ================> DF-SCS-MP2 Energies <==================
	-----------------------------------------------------------
	 SCS Same-Spin Scale       =       0.3333333333333333 [-]
	 SCS Opposite-Spin Scale   =       1.2000000000000000 [-]
	 SCS Same-Spin Energy      =      -0.1109180401888885 [Eh]
	 SCS Opposite-Spin Energy  =      -1.1175686292276670 [Eh]
	 SCS Correlation Energy    =      -1.2284866694165555 [Eh]
	 SCS Total Energy          =    -642.8965010671291793 [Eh]
	-----------------------------------------------------------

  Dipole Moment: [D]
     X:     0.3868      Y:    -3.3558      Z:    -1.4898     Total:     3.6920

*** Psi4 exiting successfully. Buy a developer a beer!
