                               Psi4 1.4a3.dev225

  ==> Input File <==

--------------------------------------------------------------------------
#psi4
#
memory 32 gb

molecule  {
-1 1
  P        0.0000270     0.0927860     0.1323680
  O       -0.0003621    -0.8266604     1.3550507
  O        1.2942880    -0.3216710    -0.8240020
  O        0.0005500     1.5933250     0.2166250
  O       -1.2944150    -0.3207910    -0.8241400
  H        1.5427260    -1.2413540    -0.6229670
  H       -1.5436530    -1.2402210    -0.6229420
units angstrom
no_reorient  #important for SAPT in psi4, default
symmetry c1  #important for SAPT in psi4, default
}

set PROPERTIES_ORIGIN ["COM"]
properties('MP2/aug-cc-pvtz', properties = ['dipole'])
--------------------------------------------------------------------------

    Molecular point group: c1
  Charge       = -1
  Multiplicity = 1
  Basis Set: AUG-CC-PVTZ
    Blend: AUG-CC-PVTZ
  Basis Set: (AUG-CC-PVTZ AUX)
    Blend: AUG-CC-PVTZ-JKFIT

    Orbital Energies [Eh]
    ---------------------

    Doubly Occupied:

       1A    -79.884144     2A    -20.406897     3A    -20.406882
       4A    -20.311740     5A    -20.298803     6A     -7.399016
       7A     -5.297828     8A     -5.297144     9A     -5.295563
      10A     -1.224010    11A     -1.175012    12A     -1.090531
      13A     -1.057590    14A     -0.611753    15A     -0.534521
      16A     -0.479609    17A     -0.428421    18A     -0.425519
      19A     -0.365755    20A     -0.344728    21A     -0.338595
      22A     -0.283099    23A     -0.264264    24A     -0.251503
      25A     -0.236261

  @DF-RHF Final Energy:  -641.66945235718345

   => Energetics <=

    Nuclear Repulsion Energy =            263.7342948432201979
    One-Electron Energy =               -1423.3891205270210776
    Two-Electron Energy =                 517.9853733266174913
    Total Energy =                       -641.6694523571834452
  Basis Set: (AUG-CC-PVTZ AUX)
    Blend: AUG-CC-PVTZ-RI
    Molecular point group: c1

    Geometry (in Angstrom), charge = -1, multiplicity = 1:

       Center              X                  Y                   Z               Mass
    ------------   -----------------  -----------------  -----------------  -----------------
         P            0.000017964871     0.068453003450     0.115649218420    30.973761998420
         O           -0.000371135129    -0.850993396550     1.338331918420    15.994914619570
         O            1.294278964871    -0.346003996550    -0.840720781580    15.994914619570
         O            0.000540964871     1.568992003450     0.199906218420    15.994914619570
         O           -1.294424035129    -0.345123996550    -0.840858781580    15.994914619570
         H            1.542716964871    -1.265686996550    -0.639685781580     1.007825032230
         H           -1.543662035129    -1.264553996550    -0.639660781580     1.007825032230

  Basis Set: AUG-CC-PVTZ
    Blend: AUG-CC-PVTZ
  Basis Set: (AUG-CC-PVTZ AUX)
    Blend: AUG-CC-PVTZ-JKFIT
	 Reference Energy          =    -641.6694523571834452 [Eh]
	 Singles Energy            =      -0.0000000000000000 [Eh]
	 Same-Spin Energy          =      -0.3325317903694800 [Eh]
	 Opposite-Spin Energy      =      -0.9308292779331864 [Eh]
	 Correlation Energy        =      -1.2633610683026664 [Eh]
	 Total Energy              =    -642.9328134254860743 [Eh]

	 ================> DF-SCS-MP2 Energies <==================
	-----------------------------------------------------------
	 SCS Same-Spin Scale       =       0.3333333333333333 [-]
	 SCS Opposite-Spin Scale   =       1.2000000000000000 [-]
	 SCS Same-Spin Energy      =      -0.1108439301231600 [Eh]
	 SCS Opposite-Spin Energy  =      -1.1169951335198236 [Eh]
	 SCS Correlation Energy    =      -1.2278390636429837 [Eh]
	 SCS Total Energy          =    -642.8972914208263774 [Eh]
	-----------------------------------------------------------

  Dipole Moment: [D]
     X:    -0.0014      Y:    -3.7499      Z:    -2.1776     Total:     4.3363

*** Psi4 exiting successfully. Buy a developer a beer!
