                               Psi4 1.3.2 release

  ==> Input File <==

--------------------------------------------------------------------------
#psi4
#
memory 32 gb

molecule  {
-1 1
  P        0.0000210     0.1146100     0.1301380
  O       -0.0002990    -0.8716480     1.2800990
  O        1.2994240    -0.3312660    -0.8383880
  O        0.0002880     1.6062300     0.2570730
  O       -1.2993950    -0.3307730    -0.8386000
  H        1.6095220    -1.1501010    -0.4166970
  H       -1.6099810    -1.1493890    -0.4168420
units angstrom
no_reorient  #important for SAPT in psi4, default
symmetry c1  #important for SAPT in psi4, default
}

set PROPERTIES_ORIGIN ["COM"]
properties('MP2/aug-cc-pvtz', properties = ['dipole'])
--------------------------------------------------------------------------

    Molecular point group: c1
  Charge       = -1
  Multiplicity = 1
  Basis Set: AUG-CC-PVTZ
    Blend: AUG-CC-PVTZ
  Basis Set: (AUG-CC-PVTZ AUX)
    Blend: AUG-CC-PVTZ-JKFIT

    Orbital Energies [Eh]
    ---------------------

    Doubly Occupied:

       1A    -79.885924     2A    -20.401528     3A    -20.401513
       4A    -20.315764     5A    -20.308148     6A     -7.401272
       7A     -5.299942     8A     -5.299357     9A     -5.297896
      10A     -1.219933    11A     -1.169114    12A     -1.098137
      13A     -1.069351    14A     -0.600036    15A     -0.511980
      16A     -0.482981    17A     -0.439319    18A     -0.424716
      19A     -0.364315    20A     -0.351874    21A     -0.334876
      22A     -0.289341    23A     -0.269183    24A     -0.259036
      25A     -0.245674

  @DF-RHF Final Energy:  -641.67029600296598

   => Energetics <=

    Nuclear Repulsion Energy =            263.8060576512109492
    One-Electron Energy =               -1423.4702852851453372
    Two-Electron Energy =                 517.9939316309684045
    Total Energy =                       -641.6702960029659835
  Basis Set: (AUG-CC-PVTZ AUX)
    Blend: AUG-CC-PVTZ-RI
    Molecular point group: c1

    Geometry (in Angstrom), charge = -1, multiplicity = 1:

       Center              X                  Y                   Z               Mass
    ------------   -----------------  -----------------  -----------------  -----------------
         P            0.000016093634     0.089934726151     0.120295098736    30.973761998420
         O           -0.000303906366    -0.896323273849     1.270256098736    15.994914619570
         O            1.299419093634    -0.355941273849    -0.848230901264    15.994914619570
         O            0.000283093634     1.581554726151     0.247230098736    15.994914619570
         O           -1.299399906366    -0.355448273849    -0.848442901264    15.994914619570
         H            1.609517093634    -1.174776273849    -0.426539901264     1.007825032230
         H           -1.609985906366    -1.174064273849    -0.426684901264     1.007825032230

  Basis Set: AUG-CC-PVTZ
    Blend: AUG-CC-PVTZ
  Basis Set: (AUG-CC-PVTZ AUX)
    Blend: AUG-CC-PVTZ-JKFIT
	 Reference Energy          =    -641.6702960029659835 [Eh]
	 Singles Energy            =      -0.0000000000000000 [Eh]
	 Same-Spin Energy          =      -0.3327193208763415 [Eh]
	 Opposite-Spin Energy      =      -0.9311778850007113 [Eh]
	 Correlation Energy        =      -1.2638972058770528 [Eh]
	 Total Energy              =    -642.9341932088429985 [Eh]

	 ================> DF-SCS-MP2 Energies <==================
	-----------------------------------------------------------
	 SCS Same-Spin Scale       =       0.3333333333333333 [-]
	 SCS Opposite-Spin Scale   =       1.2000000000000000 [-]
	 SCS Same-Spin Energy      =      -0.1109064402921138 [Eh]
	 SCS Opposite-Spin Energy  =      -1.1174134620008536 [Eh]
	 SCS Correlation Energy    =      -1.2283199022929674 [Eh]
	 SCS Total Energy          =    -642.8986159052589073 [Eh]
	-----------------------------------------------------------

  Dipole Moment: [D]
     X:    -0.0005      Y:    -3.1106      Z:    -1.3430     Total:     3.3882

*** Psi4 exiting successfully. Buy a developer a beer!
