                               Psi4 1.4a3.dev225

  ==> Input File <==

--------------------------------------------------------------------------
#psi4
#
memory 32 gb

molecule  {
-1 1
  P        0.0000270     0.0927860     0.1323680
  O       -0.0003570    -0.8146400     1.3390660
  O        1.3098648    -0.3266591    -0.8355122
  O        0.0005500     1.5933250     0.2166250
  O       -1.2944150    -0.3207910    -0.8241400
  H        1.5427260    -1.2413540    -0.6229670
  H       -1.5436530    -1.2402210    -0.6229420
units angstrom
no_reorient  #important for SAPT in psi4, default
symmetry c1  #important for SAPT in psi4, default
}

set PROPERTIES_ORIGIN ["COM"]
properties('MP2/aug-cc-pvtz', properties = ['dipole'])
--------------------------------------------------------------------------

    Molecular point group: c1
  Charge       = -1
  Multiplicity = 1
  Basis Set: AUG-CC-PVTZ
    Blend: AUG-CC-PVTZ
  Basis Set: (AUG-CC-PVTZ AUX)
    Blend: AUG-CC-PVTZ-JKFIT

    Orbital Energies [Eh]
    ---------------------

    Doubly Occupied:

       1A    -79.882779     2A    -20.406763     3A    -20.403972
       4A    -20.312844     5A    -20.298536     6A     -7.398038
       7A     -5.296750     8A     -5.296125     9A     -5.294676
      10A     -1.221862    11A     -1.172648    12A     -1.095783
      13A     -1.060981    14A     -0.608330    15A     -0.531237
      16A     -0.478895    17A     -0.428527    18A     -0.424617
      19A     -0.365463    20A     -0.348035    21A     -0.336538
      22A     -0.285790    23A     -0.267089    24A     -0.252669
      25A     -0.238141

  @DF-RHF Final Energy:  -641.67064444871357

   => Energetics <=

    Nuclear Repulsion Energy =            263.8603224282709334
    One-Electron Energy =               -1423.6477564690214876
    Two-Electron Energy =                 518.1167895920370938
    Total Energy =                       -641.6706444487135741
  Basis Set: (AUG-CC-PVTZ AUX)
    Blend: AUG-CC-PVTZ-RI
    Molecular point group: c1

    Geometry (in Angstrom), charge = -1, multiplicity = 1:

       Center              X                  Y                   Z               Mass
    ------------   -----------------  -----------------  -----------------  -----------------
         P           -0.002552248071     0.067293035251     0.120184464304    30.973761998420
         O           -0.002936248071    -0.840132964749     1.326882464304    15.994914619570
         O            1.307285551929    -0.352152064749    -0.847695735696    15.994914619570
         O           -0.002029248071     1.567832035251     0.204441464304    15.994914619570
         O           -1.296994248071    -0.346283964749    -0.836323535696    15.994914619570
         H            1.540146751929    -1.266846964749    -0.635150535696     1.007825032230
         H           -1.546232248071    -1.265713964749    -0.635125535696     1.007825032230

  Basis Set: AUG-CC-PVTZ
    Blend: AUG-CC-PVTZ
  Basis Set: (AUG-CC-PVTZ AUX)
    Blend: AUG-CC-PVTZ-JKFIT
	 Reference Energy          =    -641.6706444487135741 [Eh]
	 Singles Energy            =      -0.0000000000000000 [Eh]
	 Same-Spin Energy          =      -0.3322526612701016 [Eh]
	 Opposite-Spin Energy      =      -0.9303049630612387 [Eh]
	 Correlation Energy        =      -1.2625576243313403 [Eh]
	 Total Energy              =    -642.9332020730448676 [Eh]

	 ================> DF-SCS-MP2 Energies <==================
	-----------------------------------------------------------
	 SCS Same-Spin Scale       =       0.3333333333333333 [-]
	 SCS Opposite-Spin Scale   =       1.2000000000000000 [-]
	 SCS Same-Spin Energy      =      -0.1107508870900339 [Eh]
	 SCS Opposite-Spin Energy  =      -1.1163659556734864 [Eh]
	 SCS Correlation Energy    =      -1.2271168427635202 [Eh]
	 SCS Total Energy          =    -642.8977612914770816 [Eh]
	-----------------------------------------------------------

  Dipole Moment: [D]
     X:    -0.1014      Y:    -3.7857      Z:    -2.0096     Total:     4.2873

*** Psi4 exiting successfully. Buy a developer a beer!
