                               Psi4 1.3.2 release

  ==> Input File <==

--------------------------------------------------------------------------
#psi4
#
memory 32 gb

molecule  {
-1 1
  P        0.0000210     0.1146100     0.1301380
  O       -0.0002779    -0.8065469     1.2041922
  O        1.2994240    -0.3312660    -0.8383880
  O        0.0002880     1.6062300     0.2570730
  O       -1.2993950    -0.3307730    -0.8386000
  H        1.6095220    -1.1501010    -0.4166970
  H       -1.6099810    -1.1493890    -0.4168420
units angstrom
no_reorient  #important for SAPT in psi4, default
symmetry c1  #important for SAPT in psi4, default
}

set PROPERTIES_ORIGIN ["COM"]
properties('MP2/aug-cc-pvtz', properties = ['dipole'])
--------------------------------------------------------------------------

    Molecular point group: c1
  Charge       = -1
  Multiplicity = 1
  Basis Set: AUG-CC-PVTZ
    Blend: AUG-CC-PVTZ
  Basis Set: (AUG-CC-PVTZ AUX)
    Blend: AUG-CC-PVTZ-JKFIT

    Orbital Energies [Eh]
    ---------------------

    Doubly Occupied:

       1A    -79.864773     2A    -20.393189     3A    -20.393174
       4A    -20.311012     5A    -20.298546     6A     -7.384951
       7A     -5.283355     8A     -5.282958     9A     -5.281603
      10A     -1.224172    11A     -1.162183    12A     -1.122052
      13A     -1.070811    14A     -0.591952    15A     -0.505342
      16A     -0.477787    17A     -0.443237    18A     -0.427965
      19A     -0.371302    20A     -0.350909    21A     -0.327998
      22A     -0.297661    23A     -0.281606    24A     -0.253177
      25A     -0.246134

  @DF-RHF Final Energy:  -641.66701831729506

   => Energetics <=

    Nuclear Repulsion Energy =            268.0943946228190384
    One-Electron Energy =               -1432.2271297320232861
    Two-Electron Energy =                 522.4657167919092444
    Total Energy =                       -641.6670183172950601
  Basis Set: (AUG-CC-PVTZ AUX)
    Blend: AUG-CC-PVTZ-RI
    Molecular point group: c1

    Geometry (in Angstrom), charge = -1, multiplicity = 1:

       Center              X                  Y                   Z               Mass
    ------------   -----------------  -----------------  -----------------  -----------------
         P            0.000012613218     0.079196389377     0.132815820842    30.973761998420
         O           -0.000286286782    -0.841960510623     1.206870020842    15.994914619570
         O            1.299415613218    -0.366679610623    -0.835710179158    15.994914619570
         O            0.000279613218     1.570816389377     0.259750820842    15.994914619570
         O           -1.299403386782    -0.366186610623    -0.835922179158    15.994914619570
         H            1.609513613218    -1.185514610623    -0.414019179158     1.007825032230
         H           -1.609989386782    -1.184802610623    -0.414164179158     1.007825032230

  Basis Set: AUG-CC-PVTZ
    Blend: AUG-CC-PVTZ
  Basis Set: (AUG-CC-PVTZ AUX)
    Blend: AUG-CC-PVTZ-JKFIT
	 Reference Energy          =    -641.6670183172950601 [Eh]
	 Singles Energy            =      -0.0000000000000000 [Eh]
	 Same-Spin Energy          =      -0.3306609091032534 [Eh]
	 Opposite-Spin Energy      =      -0.9261146173451056 [Eh]
	 Correlation Energy        =      -1.2567755264483589 [Eh]
	 Total Energy              =    -642.9237938437433968 [Eh]

	 ================> DF-SCS-MP2 Energies <==================
	-----------------------------------------------------------
	 SCS Same-Spin Scale       =       0.3333333333333333 [-]
	 SCS Opposite-Spin Scale   =       1.2000000000000000 [-]
	 SCS Same-Spin Energy      =      -0.1102203030344178 [Eh]
	 SCS Opposite-Spin Energy  =      -1.1113375408141266 [Eh]
	 SCS Correlation Energy    =      -1.2215578438485444 [Eh]
	 SCS Total Energy          =    -642.8885761611436465 [Eh]
	-----------------------------------------------------------

  Dipole Moment: [D]
     X:    -0.0006      Y:    -3.4812      Z:    -0.8616     Total:     3.5862

*** Psi4 exiting successfully. Buy a developer a beer!
