                               Psi4 1.3.2 release

  ==> Input File <==

--------------------------------------------------------------------------
#psi4
#
memory 32 gb

molecule  {
-1 1
  P       -0.0042588     0.1381241     0.1131268
  O       -0.0002990    -0.8716480     1.2800990
  O        1.2994240    -0.3312660    -0.8383880
  O        0.0002880     1.6062300     0.2570730
  O       -1.2993950    -0.3307730    -0.8386000
  H        1.6095220    -1.1501010    -0.4166970
  H       -1.6099810    -1.1493890    -0.4168420
units angstrom
no_reorient  #important for SAPT in psi4, default
symmetry c1  #important for SAPT in psi4, default
}

set PROPERTIES_ORIGIN ["COM"]
properties('MP2/aug-cc-pvtz', properties = ['dipole'])
--------------------------------------------------------------------------

    Molecular point group: c1
  Charge       = -1
  Multiplicity = 1
  Basis Set: AUG-CC-PVTZ
    Blend: AUG-CC-PVTZ
  Basis Set: (AUG-CC-PVTZ AUX)
    Blend: AUG-CC-PVTZ-JKFIT

    Orbital Energies [Eh]
    ---------------------

    Doubly Occupied:

       1A    -79.886015     2A    -20.402444     3A    -20.400420
       4A    -20.312492     5A    -20.309955     6A     -7.401418
       7A     -5.300057     8A     -5.299506     9A     -5.298069
      10A     -1.219971    11A     -1.169441    12A     -1.102693
      13A     -1.062087    14A     -0.602614    15A     -0.515469
      16A     -0.481198    17A     -0.436945    18A     -0.425531
      19A     -0.362800    20A     -0.352999    21A     -0.336228
      22A     -0.287860    23A     -0.271123    24A     -0.255561
      25A     -0.243838

  @DF-RHF Final Energy:  -641.66928637359547

   => Energetics <=

    Nuclear Repulsion Energy =            263.7828131380949799
    One-Electron Energy =               -1423.4307292583919207
    Two-Electron Energy =                 517.9786297467014720
    Total Energy =                       -641.6692863735954688
  Basis Set: (AUG-CC-PVTZ AUX)
    Blend: AUG-CC-PVTZ-RI
    Molecular point group: c1

    Geometry (in Angstrom), charge = -1, multiplicity = 1:

       Center              X                  Y                   Z               Mass
    ------------   -----------------  -----------------  -----------------  -----------------
         P           -0.002896656998     0.105937976217     0.108717598958    30.973761998420
         O            0.001063143002    -0.903834123783     1.275689798958    15.994914619570
         O            1.300786143002    -0.363452123783    -0.842797201042    15.994914619570
         O            0.001650143002     1.574043876217     0.252663798958    15.994914619570
         O           -1.298032856998    -0.362959123783    -0.843009201042    15.994914619570
         H            1.610884143002    -1.182287123783    -0.421106201042     1.007825032230
         H           -1.608618856998    -1.181575123783    -0.421251201042     1.007825032230

  Basis Set: AUG-CC-PVTZ
    Blend: AUG-CC-PVTZ
  Basis Set: (AUG-CC-PVTZ AUX)
    Blend: AUG-CC-PVTZ-JKFIT
	 Reference Energy          =    -641.6692863735954688 [Eh]
	 Singles Energy            =      -0.0000000000000000 [Eh]
	 Same-Spin Energy          =      -0.3326166409397744 [Eh]
	 Opposite-Spin Energy      =      -0.9309513816716359 [Eh]
	 Correlation Energy        =      -1.2635680226114103 [Eh]
	 Total Energy              =    -642.9328543962068352 [Eh]

	 ================> DF-SCS-MP2 Energies <==================
	-----------------------------------------------------------
	 SCS Same-Spin Scale       =       0.3333333333333333 [-]
	 SCS Opposite-Spin Scale   =       1.2000000000000000 [-]
	 SCS Same-Spin Energy      =      -0.1108722136465915 [Eh]
	 SCS Opposite-Spin Energy  =      -1.1171416580059630 [Eh]
	 SCS Correlation Energy    =      -1.2280138716525544 [Eh]
	 SCS Total Energy          =    -642.8973002452480614 [Eh]
	-----------------------------------------------------------

  Dipole Moment: [D]
     X:    -0.0522      Y:    -2.8104      Z:    -1.5392     Total:     3.2048

*** Psi4 exiting successfully. Buy a developer a beer!
