                               Psi4 1.3.2 release

  ==> Input File <==

--------------------------------------------------------------------------
#psi4
#
memory 32 gb

molecule  {
-1 1
  P        0.0000210     0.1146100     0.1301380
  O       -0.0850132    -0.8212783     1.3184131
  O        1.2994240    -0.3312660    -0.8383880
  O        0.0002880     1.6062300     0.2570730
  O       -1.2993950    -0.3307730    -0.8386000
  H        1.6095220    -1.1501010    -0.4166970
  H       -1.6099810    -1.1493890    -0.4168420
units angstrom
no_reorient  #important for SAPT in psi4, default
symmetry c1  #important for SAPT in psi4, default
}

set PROPERTIES_ORIGIN ["COM"]
properties('MP2/aug-cc-pvtz', properties = ['dipole'])
--------------------------------------------------------------------------

    Molecular point group: c1
  Charge       = -1
  Multiplicity = 1
  Basis Set: AUG-CC-PVTZ
    Blend: AUG-CC-PVTZ
  Basis Set: (AUG-CC-PVTZ AUX)
    Blend: AUG-CC-PVTZ-JKFIT

    Orbital Energies [Eh]
    ---------------------

    Doubly Occupied:

       1A    -79.885450     2A    -20.409667     3A    -20.398701
       4A    -20.315518     5A    -20.304198     6A     -7.400848
       7A     -5.299523     8A     -5.298818     9A     -5.297514
      10A     -1.221277    11A     -1.171290    12A     -1.098220
      13A     -1.066097    14A     -0.601481    15A     -0.513931
      16A     -0.484499    17A     -0.439780    18A     -0.424737
      19A     -0.366157    20A     -0.350353    21A     -0.336236
      22A     -0.288835    23A     -0.269664    24A     -0.256104
      25A     -0.242414

  @DF-RHF Final Energy:  -641.66937189050770

   => Energetics <=

    Nuclear Repulsion Energy =            263.6676957611294938
    One-Electron Energy =               -1423.1915094056503222
    Two-Electron Energy =                 517.8544417540132372
    Total Energy =                       -641.6693718905077048
  Basis Set: (AUG-CC-PVTZ AUX)
    Blend: AUG-CC-PVTZ-RI
    Molecular point group: c1

    Geometry (in Angstrom), charge = -1, multiplicity = 1:

       Center              X                  Y                   Z               Mass
    ------------   -----------------  -----------------  -----------------  -----------------
         P            0.013989584238     0.081626313515     0.113975240716    30.973761998420
         O           -0.071044615762    -0.854261986485     1.302250340716    15.994914619570
         O            1.313392584238    -0.364249686485    -0.854550759284    15.994914619570
         O            0.014256584238     1.573246313515     0.240910240716    15.994914619570
         O           -1.285426415762    -0.363756686485    -0.854762759284    15.994914619570
         H            1.623490584238    -1.183084686485    -0.432859759284     1.007825032230
         H           -1.596012415762    -1.182372686485    -0.433004759284     1.007825032230

  Basis Set: AUG-CC-PVTZ
    Blend: AUG-CC-PVTZ
  Basis Set: (AUG-CC-PVTZ AUX)
    Blend: AUG-CC-PVTZ-JKFIT
	 Reference Energy          =    -641.6693718905077048 [Eh]
	 Singles Energy            =      -0.0000000000000000 [Eh]
	 Same-Spin Energy          =      -0.3327148815225281 [Eh]
	 Opposite-Spin Energy      =      -0.9312101491848982 [Eh]
	 Correlation Energy        =      -1.2639250307074263 [Eh]
	 Total Energy              =    -642.9332969212151738 [Eh]

	 ================> DF-SCS-MP2 Energies <==================
	-----------------------------------------------------------
	 SCS Same-Spin Scale       =       0.3333333333333333 [-]
	 SCS Opposite-Spin Scale   =       1.2000000000000000 [-]
	 SCS Same-Spin Energy      =      -0.1109049605075094 [Eh]
	 SCS Opposite-Spin Energy  =      -1.1174521790218779 [Eh]
	 SCS Correlation Energy    =      -1.2283571395293873 [Eh]
	 SCS Total Energy          =    -642.8977290300371124 [Eh]
	-----------------------------------------------------------

  Dipole Moment: [D]
     X:     0.2598      Y:    -3.2723      Z:    -1.4451     Total:     3.5866

*** Psi4 exiting successfully. Buy a developer a beer!
