                               Psi4 1.3.2 release

  ==> Input File <==

--------------------------------------------------------------------------
#psi4
#
memory 32 gb

molecule  {
-1 1
  P        0.0097665     0.0671815     0.1632703
  O       -0.0002990    -0.8716480     1.2800990
  O        1.2994240    -0.3312660    -0.8383880
  O        0.0002880     1.6062300     0.2570730
  O       -1.2993950    -0.3307730    -0.8386000
  H        1.6095220    -1.1501010    -0.4166970
  H       -1.6099810    -1.1493890    -0.4168420
units angstrom
no_reorient  #important for SAPT in psi4, default
symmetry c1  #important for SAPT in psi4, default
}

set PROPERTIES_ORIGIN ["COM"]
properties('MP2/aug-cc-pvtz', properties = ['dipole'])
--------------------------------------------------------------------------

    Molecular point group: c1
  Charge       = -1
  Multiplicity = 1
  Basis Set: AUG-CC-PVTZ
    Blend: AUG-CC-PVTZ
  Basis Set: (AUG-CC-PVTZ AUX)
    Blend: AUG-CC-PVTZ-JKFIT

    Orbital Energies [Eh]
    ---------------------

    Doubly Occupied:

       1A    -79.884782     2A    -20.404059     3A    -20.399382
       4A    -20.327145     5A    -20.299450     6A     -7.400877
       7A     -5.299433     8A     -5.299049     9A     -5.297370
      10A     -1.222251    11A     -1.168024    12A     -1.118415
      13A     -1.054017    14A     -0.595080    15A     -0.504993
      16A     -0.487187    17A     -0.444979    18A     -0.426499
      19A     -0.373387    20A     -0.346554    21A     -0.332344
      22A     -0.294465    23A     -0.286742    24A     -0.244443
      25A     -0.240674

  @DF-RHF Final Energy:  -641.66361878018699

   => Energetics <=

    Nuclear Repulsion Energy =            263.9101946580558433
    One-Electron Energy =               -1423.6444257861894584
    Two-Electron Energy =                 518.0706123479466214
    Total Energy =                       -641.6636187801869937
  Basis Set: (AUG-CC-PVTZ AUX)
    Blend: AUG-CC-PVTZ-RI
    Molecular point group: c1

    Geometry (in Angstrom), charge = -1, multiplicity = 1:

       Center              X                  Y                   Z               Mass
    ------------   -----------------  -----------------  -----------------  -----------------
         P            0.006648695924     0.057655789437     0.142844313131    30.973761998420
         O           -0.003416804076    -0.881173710563     1.259673013131    15.994914619570
         O            1.296306195924    -0.340791710563    -0.858813986869    15.994914619570
         O           -0.002829804076     1.596704289437     0.236647013131    15.994914619570
         O           -1.302512804076    -0.340298710563    -0.859025986869    15.994914619570
         H            1.606404195924    -1.159626710563    -0.437122986869     1.007825032230
         H           -1.613098804076    -1.158914710563    -0.437267986869     1.007825032230

  Basis Set: AUG-CC-PVTZ
    Blend: AUG-CC-PVTZ
  Basis Set: (AUG-CC-PVTZ AUX)
    Blend: AUG-CC-PVTZ-JKFIT
	 Reference Energy          =    -641.6636187801869937 [Eh]
	 Singles Energy            =      -0.0000000000000000 [Eh]
	 Same-Spin Energy          =      -0.3329236635224750 [Eh]
	 Opposite-Spin Energy      =      -0.9317363836515062 [Eh]
	 Correlation Energy        =      -1.2646600471739813 [Eh]
	 Total Energy              =    -642.9282788273609412 [Eh]

	 ================> DF-SCS-MP2 Energies <==================
	-----------------------------------------------------------
	 SCS Same-Spin Scale       =       0.3333333333333333 [-]
	 SCS Opposite-Spin Scale   =       1.2000000000000000 [-]
	 SCS Same-Spin Energy      =      -0.1109745545074917 [Eh]
	 SCS Opposite-Spin Energy  =      -1.1180836603818074 [Eh]
	 SCS Correlation Energy    =      -1.2290582148892990 [Eh]
	 SCS Total Energy          =    -642.8926769950762719 [Eh]
	-----------------------------------------------------------

  Dipole Moment: [D]
     X:     0.1169      Y:    -3.7097      Z:    -0.9709     Total:     3.8364

*** Psi4 exiting successfully. Buy a developer a beer!
