                               Psi4 1.3.2 release

  ==> Input File <==

--------------------------------------------------------------------------
#psi4
#
memory 32 gb

molecule  {
-1 1
  P        0.0000210     0.1146100     0.1301380
  O       -0.0002990    -0.8716480     1.2800990
  O        1.3767298    -0.3577926    -0.8960088
  O        0.0002880     1.6062300     0.2570730
  O       -1.2993950    -0.3307730    -0.8386000
  H        1.6095220    -1.1501010    -0.4166970
  H       -1.6099810    -1.1493890    -0.4168420
units angstrom
no_reorient  #important for SAPT in psi4, default
symmetry c1  #important for SAPT in psi4, default
}

set PROPERTIES_ORIGIN ["COM"]
properties('MP2/aug-cc-pvtz', properties = ['dipole'])
--------------------------------------------------------------------------

    Molecular point group: c1
  Charge       = -1
  Multiplicity = 1
  Basis Set: AUG-CC-PVTZ
    Blend: AUG-CC-PVTZ
  Basis Set: (AUG-CC-PVTZ AUX)
    Blend: AUG-CC-PVTZ-JKFIT

    Orbital Energies [Eh]
    ---------------------

    Doubly Occupied:

       1A    -79.896980     2A    -20.408662     3A    -20.395910
       4A    -20.325363     5A    -20.316267     6A     -7.411256
       7A     -5.309828     8A     -5.309210     9A     -5.307816
      10A     -1.214666    11A     -1.160905    12A     -1.105086
      13A     -1.076350    14A     -0.592873    15A     -0.500312
      16A     -0.484191    17A     -0.439140    18A     -0.423549
      19A     -0.366722    20A     -0.355152    21A     -0.329781
      22A     -0.293706    23A     -0.274555    24A     -0.265772
      25A     -0.253468

  @DF-RHF Final Energy:  -641.66025486331512

   => Energetics <=

    Nuclear Repulsion Energy =            260.5159353851705646
    One-Electron Energy =               -1416.7173417800993320
    Two-Electron Energy =                 514.5411515316135365
    Total Energy =                       -641.6602548633151173
  Basis Set: (AUG-CC-PVTZ AUX)
    Blend: AUG-CC-PVTZ-RI
    Molecular point group: c1

    Geometry (in Angstrom), charge = -1, multiplicity = 1:

       Center              X                  Y                   Z               Mass
    ------------   -----------------  -----------------  -----------------  -----------------
         P           -0.012735391594     0.094310252283     0.129799570329    30.973761998420
         O           -0.013055391594    -0.891947747717     1.279760570329    15.994914619570
         O            1.363973408406    -0.378092347717    -0.896347229671    15.994914619570
         O           -0.012468391594     1.585930252283     0.256734570329    15.994914619570
         O           -1.312151391594    -0.351072747717    -0.838938429671    15.994914619570
         H            1.596765608406    -1.170400747717    -0.417035429671     1.007825032230
         H           -1.622737391594    -1.169688747717    -0.417180429671     1.007825032230

  Basis Set: AUG-CC-PVTZ
    Blend: AUG-CC-PVTZ
  Basis Set: (AUG-CC-PVTZ AUX)
    Blend: AUG-CC-PVTZ-JKFIT
	 Reference Energy          =    -641.6602548633151173 [Eh]
	 Singles Energy            =      -0.0000000000000000 [Eh]
	 Same-Spin Energy          =      -0.3336886752595675 [Eh]
	 Opposite-Spin Energy      =      -0.9343444201155007 [Eh]
	 Correlation Energy        =      -1.2680330953750683 [Eh]
	 Total Energy              =    -642.9282879586901345 [Eh]

	 ================> DF-SCS-MP2 Energies <==================
	-----------------------------------------------------------
	 SCS Same-Spin Scale       =       0.3333333333333333 [-]
	 SCS Opposite-Spin Scale   =       1.2000000000000000 [-]
	 SCS Same-Spin Energy      =      -0.1112295584198558 [Eh]
	 SCS Opposite-Spin Energy  =      -1.1212133041386008 [Eh]
	 SCS Correlation Energy    =      -1.2324428625584565 [Eh]
	 SCS Total Energy          =    -642.8926977258735178 [Eh]
	-----------------------------------------------------------

  Dipole Moment: [D]
     X:    -0.4920      Y:    -2.9268      Z:    -1.0133     Total:     3.1361

*** Psi4 exiting successfully. Buy a developer a beer!
