                               Psi4 1.4a3.dev225

  ==> Input File <==

--------------------------------------------------------------------------
#psi4
#
memory 32 gb

molecule  {
-1 1
  P        0.0000270     0.0927860     0.1323680
  O       -0.0003697    -0.8446909     1.3790278
  O        1.2942880    -0.3216710    -0.8240020
  O        0.0005500     1.5933250     0.2166250
  O       -1.2944150    -0.3207910    -0.8241400
  H        1.5427260    -1.2413540    -0.6229670
  H       -1.5436530    -1.2402210    -0.6229420
units angstrom
no_reorient  #important for SAPT in psi4, default
symmetry c1  #important for SAPT in psi4, default
}

set PROPERTIES_ORIGIN ["COM"]
properties('MP2/aug-cc-pvtz', properties = ['dipole'])
--------------------------------------------------------------------------

    Molecular point group: c1
  Charge       = -1
  Multiplicity = 1
  Basis Set: AUG-CC-PVTZ
    Blend: AUG-CC-PVTZ
  Basis Set: (AUG-CC-PVTZ AUX)
    Blend: AUG-CC-PVTZ-JKFIT

    Orbital Energies [Eh]
    ---------------------

    Doubly Occupied:

       1A    -79.889388     2A    -20.409291     3A    -20.409276
       4A    -20.312916     5A    -20.301590     6A     -7.403392
       7A     -5.302278     8A     -5.301548     9A     -5.299808
      10A     -1.224812    11A     -1.177062    12A     -1.087336
      13A     -1.052428    14A     -0.614187    15A     -0.536427
      16A     -0.481241    17A     -0.428438    18A     -0.426040
      19A     -0.366156    20A     -0.341981    21A     -0.340523
      22A     -0.280607    23A     -0.263270    24A     -0.250625
      25A     -0.235541

  @DF-RHF Final Energy:  -641.66529302228719

   => Energetics <=

    Nuclear Repulsion Energy =            262.5515857421320902
    One-Electron Energy =               -1420.9614339799645677
    Two-Electron Energy =                 516.7445552155452333
    Total Energy =                       -641.6652930222871873
  Basis Set: (AUG-CC-PVTZ AUX)
    Blend: AUG-CC-PVTZ-RI
    Molecular point group: c1

    Geometry (in Angstrom), charge = -1, multiplicity = 1:

       Center              X                  Y                   Z               Mass
    ------------   -----------------  -----------------  -----------------  -----------------
         P            0.000019218480     0.071427109589     0.111694228802    30.973761998420
         O           -0.000377481520    -0.866049790411     1.358354028802    15.994914619570
         O            1.294280218480    -0.343029890411    -0.844675771198    15.994914619570
         O            0.000542218480     1.571966109589     0.195951228802    15.994914619570
         O           -1.294422781520    -0.342149890411    -0.844813771198    15.994914619570
         H            1.542718218480    -1.262712890411    -0.643640771198     1.007825032230
         H           -1.543660781520    -1.261579890411    -0.643615771198     1.007825032230

  Basis Set: AUG-CC-PVTZ
    Blend: AUG-CC-PVTZ
  Basis Set: (AUG-CC-PVTZ AUX)
    Blend: AUG-CC-PVTZ-JKFIT
	 Reference Energy          =    -641.6652930222871873 [Eh]
	 Singles Energy            =      -0.0000000000000000 [Eh]
	 Same-Spin Energy          =      -0.3331300844672994 [Eh]
	 Opposite-Spin Energy      =      -0.9323618101168953 [Eh]
	 Correlation Energy        =      -1.2654918945841946 [Eh]
	 Total Energy              =    -642.9307849168714029 [Eh]

	 ================> DF-SCS-MP2 Energies <==================
	-----------------------------------------------------------
	 SCS Same-Spin Scale       =       0.3333333333333333 [-]
	 SCS Opposite-Spin Scale   =       1.2000000000000000 [-]
	 SCS Same-Spin Energy      =      -0.1110433614890998 [Eh]
	 SCS Opposite-Spin Energy  =      -1.1188341721402744 [Eh]
	 SCS Correlation Energy    =      -1.2298775336293741 [Eh]
	 SCS Total Energy          =    -642.8951705559165930 [Eh]
	-----------------------------------------------------------

  Dipole Moment: [D]
     X:    -0.0013      Y:    -3.6416      Z:    -2.3244     Total:     4.3202

*** Psi4 exiting successfully. Buy a developer a beer!
