                               Psi4 1.3.2 release

  ==> Input File <==

--------------------------------------------------------------------------
#psi4
#
memory 32 gb

molecule  {
-1 1
  P        0.0210833     0.0192676     0.1951823
  O       -0.0002990    -0.8716480     1.2800990
  O        1.2994240    -0.3312660    -0.8383880
  O        0.0002880     1.6062300     0.2570730
  O       -1.2993950    -0.3307730    -0.8386000
  H        1.6095220    -1.1501010    -0.4166970
  H       -1.6099810    -1.1493890    -0.4168420
units angstrom
no_reorient  #important for SAPT in psi4, default
symmetry c1  #important for SAPT in psi4, default
}

set PROPERTIES_ORIGIN ["COM"]
properties('MP2/aug-cc-pvtz', properties = ['dipole'])
--------------------------------------------------------------------------

    Molecular point group: c1
  Charge       = -1
  Multiplicity = 1
  Basis Set: AUG-CC-PVTZ
    Blend: AUG-CC-PVTZ
  Basis Set: (AUG-CC-PVTZ AUX)
    Blend: AUG-CC-PVTZ-JKFIT

    Orbital Energies [Eh]
    ---------------------

    Doubly Occupied:

       1A    -79.882238     2A    -20.407035     3A    -20.396866
       4A    -20.338035     5A    -20.290842     6A     -7.400342
       7A     -5.298817     8A     -5.298514     9A     -5.296516
      10A     -1.229511    11A     -1.167316    12A     -1.144087
      13A     -1.029909    14A     -0.590552    15A     -0.499281
      16A     -0.490947    17A     -0.452371    18A     -0.433685
      19A     -0.381483    20A     -0.348792    21A     -0.329732
      22A     -0.305829    23A     -0.293721    24A     -0.229158
      25A     -0.228298

  @DF-RHF Final Energy:  -641.64419735092554

   => Energetics <=

    Nuclear Repulsion Energy =            264.1029489784189650
    One-Electron Energy =               -1423.9665386500541899
    Two-Electron Energy =                 518.2193923207097441
    Total Energy =                       -641.6441973509255376
  Basis Set: (AUG-CC-PVTZ AUX)
    Blend: AUG-CC-PVTZ-RI
    Molecular point group: c1

    Geometry (in Angstrom), charge = -1, multiplicity = 1:

       Center              X                  Y                   Z               Mass
    ------------   -----------------  -----------------  -----------------  -----------------
         P            0.014350695166     0.025046498697     0.164563014511    30.973761998420
         O           -0.007031604834    -0.865869101303     1.249479714511    15.994914619570
         O            1.292691395166    -0.325487101303    -0.869007285489    15.994914619570
         O           -0.006444604834     1.612008898697     0.226453714511    15.994914619570
         O           -1.306127604834    -0.324994101303    -0.869219285489    15.994914619570
         H            1.602789395166    -1.144322101303    -0.447316285489     1.007825032230
         H           -1.616713604834    -1.143610101303    -0.447461285489     1.007825032230

  Basis Set: AUG-CC-PVTZ
    Blend: AUG-CC-PVTZ
  Basis Set: (AUG-CC-PVTZ AUX)
    Blend: AUG-CC-PVTZ-JKFIT
	 Reference Energy          =    -641.6441973509255376 [Eh]
	 Singles Energy            =      -0.0000000000000000 [Eh]
	 Same-Spin Energy          =      -0.3331228893061149 [Eh]
	 Opposite-Spin Energy      =      -0.9324251199242017 [Eh]
	 Correlation Energy        =      -1.2655480092303166 [Eh]
	 Total Energy              =    -642.9097453601558527 [Eh]

	 ================> DF-SCS-MP2 Energies <==================
	-----------------------------------------------------------
	 SCS Same-Spin Scale       =       0.3333333333333333 [-]
	 SCS Opposite-Spin Scale   =       1.2000000000000000 [-]
	 SCS Same-Spin Energy      =      -0.1110409631020383 [Eh]
	 SCS Opposite-Spin Energy  =      -1.1189101439090421 [Eh]
	 SCS Correlation Energy    =      -1.2299511070110805 [Eh]
	 SCS Total Energy          =    -642.8741484579365988 [Eh]
	-----------------------------------------------------------

  Dipole Moment: [D]
     X:     0.2525      Y:    -4.3066      Z:    -0.6269     Total:     4.3593

*** Psi4 exiting successfully. Buy a developer a beer!
