                               Psi4 1.3.2 release

  ==> Input File <==

--------------------------------------------------------------------------
#psi4
#
memory 32 gb

molecule  {
-1 1
  P        0.0000210     0.1146100     0.1301380
  O       -0.0003024    -0.9111803     1.2449786
  O        1.2994240    -0.3312660    -0.8383880
  O        0.0002880     1.6062300     0.2570730
  O       -1.2993950    -0.3307730    -0.8386000
  H        1.6095220    -1.1501010    -0.4166970
  H       -1.6099810    -1.1493890    -0.4168420
units angstrom
no_reorient  #important for SAPT in psi4, default
symmetry c1  #important for SAPT in psi4, default
}

set PROPERTIES_ORIGIN ["COM"]
properties('MP2/aug-cc-pvtz', properties = ['dipole'])
--------------------------------------------------------------------------

    Molecular point group: c1
  Charge       = -1
  Multiplicity = 1
  Basis Set: AUG-CC-PVTZ
    Blend: AUG-CC-PVTZ
  Basis Set: (AUG-CC-PVTZ AUX)
    Blend: AUG-CC-PVTZ-JKFIT

    Orbital Energies [Eh]
    ---------------------

    Doubly Occupied:

       1A    -79.886327     2A    -20.399142     3A    -20.399127
       4A    -20.315771     5A    -20.311375     6A     -7.401650
       7A     -5.300315     8A     -5.299821     9A     -5.298231
      10A     -1.219066    11A     -1.167132    12A     -1.097858
      13A     -1.071737    14A     -0.598916    15A     -0.510284
      16A     -0.481607    17A     -0.438866    18A     -0.424784
      19A     -0.362989    20A     -0.352967    21A     -0.333333
      22A     -0.289632    23A     -0.268346    24A     -0.261177
      25A     -0.248016

  @DF-RHF Final Energy:  -641.66971445240449

   => Energetics <=

    Nuclear Repulsion Energy =            263.9568386155311828
    One-Electron Energy =               -1423.7761684924560086
    Two-Electron Energy =                 518.1496154245202206
    Total Energy =                       -641.6697144524044916
  Basis Set: (AUG-CC-PVTZ AUX)
    Blend: AUG-CC-PVTZ-RI
    Molecular point group: c1

    Geometry (in Angstrom), charge = -1, multiplicity = 1:

       Center              X                  Y                   Z               Mass
    ------------   -----------------  -----------------  -----------------  -----------------
         P            0.000016654459     0.096455524583     0.126088160341    30.973761998420
         O           -0.000306745541    -0.929334775417     1.240928760341    15.994914619570
         O            1.299419654459    -0.349420475417    -0.842437839659    15.994914619570
         O            0.000283654459     1.588075524583     0.253023160341    15.994914619570
         O           -1.299399345541    -0.348927475417    -0.842649839659    15.994914619570
         H            1.609517654459    -1.168255475417    -0.420746839659     1.007825032230
         H           -1.609985345541    -1.167543475417    -0.420891839659     1.007825032230

  Basis Set: AUG-CC-PVTZ
    Blend: AUG-CC-PVTZ
  Basis Set: (AUG-CC-PVTZ AUX)
    Blend: AUG-CC-PVTZ-JKFIT
	 Reference Energy          =    -641.6697144524044916 [Eh]
	 Singles Energy            =      -0.0000000000000000 [Eh]
	 Same-Spin Energy          =      -0.3327862889525176 [Eh]
	 Opposite-Spin Energy      =      -0.9312745004484120 [Eh]
	 Correlation Energy        =      -1.2640607894009295 [Eh]
	 Total Energy              =    -642.9337752418053924 [Eh]

	 ================> DF-SCS-MP2 Energies <==================
	-----------------------------------------------------------
	 SCS Same-Spin Scale       =       0.3333333333333333 [-]
	 SCS Opposite-Spin Scale   =       1.2000000000000000 [-]
	 SCS Same-Spin Energy      =      -0.1109287629841725 [Eh]
	 SCS Opposite-Spin Energy  =      -1.1175294005380942 [Eh]
	 SCS Correlation Energy    =      -1.2284581635222667 [Eh]
	 SCS Total Energy          =    -642.8981726159267964 [Eh]
	-----------------------------------------------------------

  Dipole Moment: [D]
     X:    -0.0005      Y:    -2.9801      Z:    -1.2487     Total:     3.2312

*** Psi4 exiting successfully. Buy a developer a beer!
