                               Psi4 1.4a3.dev225

  ==> Input File <==

--------------------------------------------------------------------------
#psi4
#
memory 32 gb

molecule  {
-1 1
  P        0.0000270     0.0927860     0.1323680
  O       -0.0003519    -0.8026196     1.3230813
  O        1.2942880    -0.3216710    -0.8240020
  O        0.0005500     1.5933250     0.2166250
  O       -1.2944150    -0.3207910    -0.8241400
  H        1.5427260    -1.2413540    -0.6229670
  H       -1.5436530    -1.2402210    -0.6229420
units angstrom
no_reorient  #important for SAPT in psi4, default
symmetry c1  #important for SAPT in psi4, default
}

set PROPERTIES_ORIGIN ["COM"]
properties('MP2/aug-cc-pvtz', properties = ['dipole'])
--------------------------------------------------------------------------

    Molecular point group: c1
  Charge       = -1
  Multiplicity = 1
  Basis Set: AUG-CC-PVTZ
    Blend: AUG-CC-PVTZ
  Basis Set: (AUG-CC-PVTZ AUX)
    Blend: AUG-CC-PVTZ-JKFIT

    Orbital Energies [Eh]
    ---------------------

    Doubly Occupied:

       1A    -79.876468     2A    -20.403624     3A    -20.403609
       4A    -20.310049     5A    -20.294983     6A     -7.392803
       7A     -5.291453     8A     -5.290894     9A     -5.289520
      10A     -1.223470    11A     -1.172224    12A     -1.098930
      13A     -1.060561    14A     -0.608433    15A     -0.531974
      16A     -0.477517    17A     -0.428769    18A     -0.425306
      19A     -0.365735    20A     -0.347876    21A     -0.336005
      22A     -0.286608    23A     -0.267919    24A     -0.250482
      25A     -0.236694

  @DF-RHF Final Energy:  -641.67261694748379

   => Energetics <=

    Nuclear Repulsion Energy =            265.3692971017213722
    One-Electron Energy =               -1426.7400125408635176
    Two-Electron Energy =                 519.6980984916584703
    Total Energy =                       -641.6726169474837889
  Basis Set: (AUG-CC-PVTZ AUX)
    Blend: AUG-CC-PVTZ-RI
    Molecular point group: c1

    Geometry (in Angstrom), charge = -1, multiplicity = 1:

       Center              X                  Y                   Z               Mass
    ------------   -----------------  -----------------  -----------------  -----------------
         P            0.000016282395     0.064487506604     0.120922526915    30.973761998420
         O           -0.000362617605    -0.830918093396     1.311635826915    15.994914619570
         O            1.294277282395    -0.349969493396    -0.835447473085    15.994914619570
         O            0.000539282395     1.565026506604     0.205179526915    15.994914619570
         O           -1.294425717605    -0.349089493396    -0.835585473085    15.994914619570
         H            1.542715282395    -1.269652493396    -0.634412473085     1.007825032230
         H           -1.543663717605    -1.268519493396    -0.634387473085     1.007825032230

  Basis Set: AUG-CC-PVTZ
    Blend: AUG-CC-PVTZ
  Basis Set: (AUG-CC-PVTZ AUX)
    Blend: AUG-CC-PVTZ-JKFIT
	 Reference Energy          =    -641.6726169474837889 [Eh]
	 Singles Energy            =      -0.0000000000000000 [Eh]
	 Same-Spin Energy          =      -0.3317163932471262 [Eh]
	 Opposite-Spin Energy      =      -0.9287786425352159 [Eh]
	 Correlation Energy        =      -1.2604950357823421 [Eh]
	 Total Energy              =    -642.9331119832661443 [Eh]

	 ================> DF-SCS-MP2 Energies <==================
	-----------------------------------------------------------
	 SCS Same-Spin Scale       =       0.3333333333333333 [-]
	 SCS Opposite-Spin Scale   =       1.2000000000000000 [-]
	 SCS Same-Spin Energy      =      -0.1105721310823754 [Eh]
	 SCS Opposite-Spin Energy  =      -1.1145343710422591 [Eh]
	 SCS Correlation Energy    =      -1.2251065021246343 [Eh]
	 SCS Total Energy          =    -642.8977234496084066 [Eh]
	-----------------------------------------------------------

  Dipole Moment: [D]
     X:    -0.0014      Y:    -3.8943      Z:    -1.9802     Total:     4.3688

*** Psi4 exiting successfully. Buy a developer a beer!
