                               Psi4 1.3.2 release

  ==> Input File <==

--------------------------------------------------------------------------
#psi4
#
memory 32 gb

molecule  {
-1 1
  P        0.0000210     0.1146100     0.1301380
  O       -0.0003080    -0.9864488     1.1707074
  O        1.2994240    -0.3312660    -0.8383880
  O        0.0002880     1.6062300     0.2570730
  O       -1.2993950    -0.3307730    -0.8386000
  H        1.6095220    -1.1501010    -0.4166970
  H       -1.6099810    -1.1493890    -0.4168420
units angstrom
no_reorient  #important for SAPT in psi4, default
symmetry c1  #important for SAPT in psi4, default
}

set PROPERTIES_ORIGIN ["COM"]
properties('MP2/aug-cc-pvtz', properties = ['dipole'])
--------------------------------------------------------------------------

    Molecular point group: c1
  Charge       = -1
  Multiplicity = 1
  Basis Set: AUG-CC-PVTZ
    Blend: AUG-CC-PVTZ
  Basis Set: (AUG-CC-PVTZ AUX)
    Blend: AUG-CC-PVTZ-JKFIT

    Orbital Energies [Eh]
    ---------------------

    Doubly Occupied:

       1A    -79.887136     2A    -20.394237     3A    -20.394222
       4A    -20.317599     5A    -20.315498     6A     -7.402431
       7A     -5.301074     8A     -5.300769     9A     -5.298920
      10A     -1.217511    11A     -1.163089    12A     -1.097547
      13A     -1.075548    14A     -0.596706    15A     -0.506818
      16A     -0.478745    17A     -0.438057    18A     -0.425049
      19A     -0.361208    20A     -0.353740    21A     -0.330328
      22A     -0.290009    23A     -0.267665    24A     -0.263637
      25A     -0.251796

  @DF-RHF Final Energy:  -641.66662855015147

   => Energetics <=

    Nuclear Repulsion Energy =            264.3046781507638343
    One-Electron Energy =               -1424.4839346066014514
    Two-Electron Energy =                 518.5126279056862586
    Total Energy =                       -641.6666285501514722
  Basis Set: (AUG-CC-PVTZ AUX)
    Blend: AUG-CC-PVTZ-RI
    Molecular point group: c1

    Geometry (in Angstrom), charge = -1, multiplicity = 1:

       Center              X                  Y                   Z               Mass
    ------------   -----------------  -----------------  -----------------  -----------------
         P            0.000017578171     0.108870959983     0.138339092479    30.973761998420
         O           -0.000311421829    -0.992187840017     1.178908492479    15.994914619570
         O            1.299420578171    -0.337005040017    -0.830186907521    15.994914619570
         O            0.000284578171     1.600490959983     0.265274092479    15.994914619570
         O           -1.299398421829    -0.336512040017    -0.830398907521    15.994914619570
         H            1.609518578171    -1.155840040017    -0.408495907521     1.007825032230
         H           -1.609984421829    -1.155128040017    -0.408640907521     1.007825032230

  Basis Set: AUG-CC-PVTZ
    Blend: AUG-CC-PVTZ
  Basis Set: (AUG-CC-PVTZ AUX)
    Blend: AUG-CC-PVTZ-JKFIT
	 Reference Energy          =    -641.6666285501514722 [Eh]
	 Singles Energy            =      -0.0000000000000000 [Eh]
	 Same-Spin Energy          =      -0.3330122699373737 [Eh]
	 Opposite-Spin Energy      =      -0.9316522853360066 [Eh]
	 Correlation Energy        =      -1.2646645552733804 [Eh]
	 Total Energy              =    -642.9312931054248565 [Eh]

	 ================> DF-SCS-MP2 Energies <==================
	-----------------------------------------------------------
	 SCS Same-Spin Scale       =       0.3333333333333333 [-]
	 SCS Opposite-Spin Scale   =       1.2000000000000000 [-]
	 SCS Same-Spin Energy      =      -0.1110040899791245 [Eh]
	 SCS Opposite-Spin Energy  =      -1.1179827424032078 [Eh]
	 SCS Correlation Energy    =      -1.2289868323823323 [Eh]
	 SCS Total Energy          =    -642.8956153825338333 [Eh]
	-----------------------------------------------------------

  Dipole Moment: [D]
     X:    -0.0004      Y:    -2.7284      Z:    -1.0497     Total:     2.9234

*** Psi4 exiting successfully. Buy a developer a beer!
