                               Psi4 1.3.2 release

  ==> Input File <==

--------------------------------------------------------------------------
#psi4
#
memory 32 gb

molecule  {
-1 1
  P        0.0000210     0.1146100     0.1301380
  O       -0.0002990    -0.8716480     1.2800990
  O        1.2994240    -0.3312660    -0.8383880
  O        0.0002880     1.6062300     0.2570730
  O       -1.2993950    -0.3307730    -0.8386000
  H        1.6733386    -1.3186131    -0.3299151
  H       -1.6099810    -1.1493890    -0.4168420
units angstrom
no_reorient  #important for SAPT in psi4, default
symmetry c1  #important for SAPT in psi4, default
}

set PROPERTIES_ORIGIN ["COM"]
properties('MP2/aug-cc-pvtz', properties = ['dipole'])
--------------------------------------------------------------------------

    Molecular point group: c1
  Charge       = -1
  Multiplicity = 1
  Basis Set: AUG-CC-PVTZ
    Blend: AUG-CC-PVTZ
  Basis Set: (AUG-CC-PVTZ AUX)
    Blend: AUG-CC-PVTZ-JKFIT

    Orbital Energies [Eh]
    ---------------------

    Doubly Occupied:

       1A    -79.884059     2A    -20.414746     3A    -20.400277
       4A    -20.313533     5A    -20.307802     6A     -7.399422
       7A     -5.298067     8A     -5.297523     9A     -5.296053
      10A     -1.209695    11A     -1.146213    12A     -1.090357
      13A     -1.068245    14A     -0.585434    15A     -0.494054
      16A     -0.462101    17A     -0.430562    18A     -0.422400
      19A     -0.361302    20A     -0.348372    21A     -0.330973
      22A     -0.287937    23A     -0.266900    24A     -0.256888
      25A     -0.243448

  @DF-RHF Final Energy:  -641.63476489410823

   => Energetics <=

    Nuclear Repulsion Energy =            262.7187485184606999
    One-Electron Energy =               -1421.4742984424765382
    Two-Electron Energy =                 517.1207850299076654
    Total Energy =                       -641.6347648941082298
  Basis Set: (AUG-CC-PVTZ AUX)
    Blend: AUG-CC-PVTZ-RI
    Molecular point group: c1

    Geometry (in Angstrom), charge = -1, multiplicity = 1:

       Center              X                  Y                   Z               Mass
    ------------   -----------------  -----------------  -----------------  -----------------
         P           -0.000647169060     0.091686116688     0.119393151645    30.973761998420
         O           -0.000967169060    -0.894571883312     1.269354151645    15.994914619570
         O            1.298755830940    -0.354189883312    -0.849132848355    15.994914619570
         O           -0.000380169060     1.583306116689     0.246328151645    15.994914619570
         O           -1.300063169060    -0.353696883312    -0.849344848355    15.994914619570
         H            1.672670430940    -1.341536983312    -0.340659948355     1.007825032230
         H           -1.610649169060    -1.172312883312    -0.427586848355     1.007825032230

  Basis Set: AUG-CC-PVTZ
    Blend: AUG-CC-PVTZ
  Basis Set: (AUG-CC-PVTZ AUX)
    Blend: AUG-CC-PVTZ-JKFIT
	 Reference Energy          =    -641.6347648941082298 [Eh]
	 Singles Energy            =      -0.0000000000000000 [Eh]
	 Same-Spin Energy          =      -0.3348612113966053 [Eh]
	 Opposite-Spin Energy      =      -0.9374338459324547 [Eh]
	 Correlation Energy        =      -1.2722950573290599 [Eh]
	 Total Energy              =    -642.9070599514373043 [Eh]

	 ================> DF-SCS-MP2 Energies <==================
	-----------------------------------------------------------
	 SCS Same-Spin Scale       =       0.3333333333333333 [-]
	 SCS Opposite-Spin Scale   =       1.2000000000000000 [-]
	 SCS Same-Spin Energy      =      -0.1116204037988684 [Eh]
	 SCS Opposite-Spin Energy  =      -1.1249206151189457 [Eh]
	 SCS Correlation Energy    =      -1.2365410189178141 [Eh]
	 SCS Total Energy          =    -642.8713059130260490 [Eh]
	-----------------------------------------------------------

  Dipole Moment: [D]
     X:     0.0703      Y:    -3.2343      Z:    -1.2717     Total:     3.4761

*** Psi4 exiting successfully. Buy a developer a beer!
