                               Psi4 1.3.2 release

  ==> Input File <==

--------------------------------------------------------------------------
#psi4
#
memory 32 gb

molecule  {
-1 1
  P       -0.0196791     0.2534083     0.0238296
  O       -0.0002990    -0.8716480     1.2800990
  O        1.2994240    -0.3312660    -0.8383880
  O        0.0002880     1.6062300     0.2570730
  O       -1.2993950    -0.3307730    -0.8386000
  H        1.6095220    -1.1501010    -0.4166970
  H       -1.6099810    -1.1493890    -0.4168420
units angstrom
no_reorient  #important for SAPT in psi4, default
symmetry c1  #important for SAPT in psi4, default
}

set PROPERTIES_ORIGIN ["COM"]
properties('MP2/aug-cc-pvtz', properties = ['dipole'])
--------------------------------------------------------------------------

    Molecular point group: c1
  Charge       = -1
  Multiplicity = 1
  Basis Set: AUG-CC-PVTZ
    Blend: AUG-CC-PVTZ
  Basis Set: (AUG-CC-PVTZ AUX)
    Blend: AUG-CC-PVTZ-JKFIT

    Orbital Energies [Eh]
    ---------------------

    Doubly Occupied:

       1A    -79.883178     2A    -20.405742     3A    -20.396562
       4A    -20.333758     5A    -20.280667     6A     -7.402385
       7A     -5.301081     8A     -5.300119     9A     -5.298692
      10A     -1.229574    11A     -1.171026    12A     -1.156211
      13A     -0.992283    14A     -0.615688    15A     -0.532234
      16A     -0.476801    17A     -0.439255    18A     -0.428434
      19A     -0.378043    20A     -0.362502    21A     -0.347590
      22A     -0.306160    23A     -0.266369    24A     -0.210275
      25A     -0.209457

  @DF-RHF Final Energy:  -641.62507201378764

   => Energetics <=

    Nuclear Repulsion Energy =            263.8693512405447450
    One-Electron Energy =               -1423.5406727107501865
    Two-Electron Energy =                 518.0462494564177405
    Total Energy =                       -641.6250720137876442
  Basis Set: (AUG-CC-PVTZ AUX)
    Blend: AUG-CC-PVTZ-RI
    Molecular point group: c1

    Geometry (in Angstrom), charge = -1, multiplicity = 1:

       Center              X                  Y                   Z               Mass
    ------------   -----------------  -----------------  -----------------  -----------------
         P           -0.013391420438     0.184398214174     0.047943619862    30.973761998420
         O            0.005988679562    -0.940658085826     1.304213019862    15.994914619570
         O            1.305711679562    -0.400276085826    -0.814273980138    15.994914619570
         O            0.006575679562     1.537219914174     0.281187019862    15.994914619570
         O           -1.293107320438    -0.399783085826    -0.814485980138    15.994914619570
         H            1.615809679562    -1.219111085826    -0.392582980138     1.007825032230
         H           -1.603693320438    -1.218399085826    -0.392727980138     1.007825032230

  Basis Set: AUG-CC-PVTZ
    Blend: AUG-CC-PVTZ
  Basis Set: (AUG-CC-PVTZ AUX)
    Blend: AUG-CC-PVTZ-JKFIT
	 Reference Energy          =    -641.6250720137876442 [Eh]
	 Singles Energy            =      -0.0000000000000000 [Eh]
	 Same-Spin Energy          =      -0.3322148863924876 [Eh]
	 Opposite-Spin Energy      =      -0.9305535910381152 [Eh]
	 Correlation Energy        =      -1.2627684774306029 [Eh]
	 Total Energy              =    -642.8878404912182987 [Eh]

	 ================> DF-SCS-MP2 Energies <==================
	-----------------------------------------------------------
	 SCS Same-Spin Scale       =       0.3333333333333333 [-]
	 SCS Opposite-Spin Scale   =       1.2000000000000000 [-]
	 SCS Same-Spin Energy      =      -0.1107382954641625 [Eh]
	 SCS Opposite-Spin Energy  =      -1.1166643092457382 [Eh]
	 SCS Correlation Energy    =      -1.2274026047099007 [Eh]
	 SCS Total Energy          =    -642.8524746184975811 [Eh]
	-----------------------------------------------------------

  Dipole Moment: [D]
     X:    -0.2380      Y:    -1.3042      Z:    -2.6137     Total:     2.9307

*** Psi4 exiting successfully. Buy a developer a beer!
