                               Psi4 1.3.2 release

  ==> Input File <==

--------------------------------------------------------------------------
#psi4
#
memory 32 gb

molecule  {
-1 1
  P       -0.0147108     0.2077802     0.0603751
  O       -0.0002990    -0.8716480     1.2800990
  O        1.2994240    -0.3312660    -0.8383880
  O        0.0002880     1.6062300     0.2570730
  O       -1.2993950    -0.3307730    -0.8386000
  H        1.6095220    -1.1501010    -0.4166970
  H       -1.6099810    -1.1493890    -0.4168420
units angstrom
no_reorient  #important for SAPT in psi4, default
symmetry c1  #important for SAPT in psi4, default
}

set PROPERTIES_ORIGIN ["COM"]
properties('MP2/aug-cc-pvtz', properties = ['dipole'])
--------------------------------------------------------------------------

    Molecular point group: c1
  Charge       = -1
  Multiplicity = 1
  Basis Set: AUG-CC-PVTZ
    Blend: AUG-CC-PVTZ
  Basis Set: (AUG-CC-PVTZ AUX)
    Blend: AUG-CC-PVTZ-JKFIT

    Orbital Energies [Eh]
    ---------------------

    Doubly Occupied:

       1A    -79.884778     2A    -20.404676     3A    -20.397766
       4A    -20.325365     5A    -20.292351     6A     -7.401834
       7A     -5.300149     8A     -5.300057     9A     -5.298404
      10A     -1.223694    11A     -1.169866    12A     -1.136089
      13A     -1.020290    14A     -0.610493    15A     -0.525664
      16A     -0.477497    17A     -0.432871    18A     -0.430899
      19A     -0.372087    20A     -0.352723    21A     -0.341636
      22A     -0.293532    23A     -0.280545    24A     -0.228043
      25A     -0.225492

  @DF-RHF Final Energy:  -641.65027659531586

   => Energetics <=

    Nuclear Repulsion Energy =            263.8035751216054905
    One-Electron Energy =               -1423.4541051467340367
    Two-Electron Energy =                 518.0002534298126875
    Total Energy =                       -641.6502765953158587
  Basis Set: (AUG-CC-PVTZ AUX)
    Blend: AUG-CC-PVTZ-RI
    Molecular point group: c1

    Geometry (in Angstrom), charge = -1, multiplicity = 1:

       Center              X                  Y                   Z               Mass
    ------------   -----------------  -----------------  -----------------  -----------------
         P           -0.010010089777     0.153344595521     0.072815793380    30.973761998420
         O            0.004401710223    -0.926083604479     1.292539693380    15.994914619570
         O            1.304124710223    -0.385701604479    -0.825947306620    15.994914619570
         O            0.004988710223     1.551794395521     0.269513693380    15.994914619570
         O           -1.294694289777    -0.385208604479    -0.826159306620    15.994914619570
         H            1.614222710223    -1.204536604479    -0.404256306620     1.007825032230
         H           -1.605280289777    -1.203824604479    -0.404401306620     1.007825032230

  Basis Set: AUG-CC-PVTZ
    Blend: AUG-CC-PVTZ
  Basis Set: (AUG-CC-PVTZ AUX)
    Blend: AUG-CC-PVTZ-JKFIT
	 Reference Energy          =    -641.6502765953158587 [Eh]
	 Singles Energy            =      -0.0000000000000000 [Eh]
	 Same-Spin Energy          =      -0.3323361571952235 [Eh]
	 Opposite-Spin Energy      =      -0.9305376051567145 [Eh]
	 Correlation Energy        =      -1.2628737623519379 [Eh]
	 Total Energy              =    -642.9131503576677460 [Eh]

	 ================> DF-SCS-MP2 Energies <==================
	-----------------------------------------------------------
	 SCS Same-Spin Scale       =       0.3333333333333333 [-]
	 SCS Opposite-Spin Scale   =       1.2000000000000000 [-]
	 SCS Same-Spin Energy      =      -0.1107787190650745 [Eh]
	 SCS Opposite-Spin Energy  =      -1.1166451261880572 [Eh]
	 SCS Correlation Energy    =      -1.2274238452531316 [Eh]
	 SCS Total Energy          =    -642.8777004405690150 [Eh]
	-----------------------------------------------------------

  Dipole Moment: [D]
     X:    -0.1784      Y:    -1.9076      Z:    -2.1661     Total:     2.8918

*** Psi4 exiting successfully. Buy a developer a beer!
