                               Psi4 1.4a3.dev225

  ==> Input File <==

--------------------------------------------------------------------------
#psi4
#
memory 32 gb

molecule  {
-1 1
  P        0.0000270     0.0927860     0.1323680
  O       -0.0003570    -0.8146400     1.3390660
  O        1.2553461    -0.3092008    -0.7952266
  O        0.0005500     1.5933250     0.2166250
  O       -1.2944150    -0.3207910    -0.8241400
  H        1.5427260    -1.2413540    -0.6229670
  H       -1.5436530    -1.2402210    -0.6229420
units angstrom
no_reorient  #important for SAPT in psi4, default
symmetry c1  #important for SAPT in psi4, default
}

set PROPERTIES_ORIGIN ["COM"]
properties('MP2/aug-cc-pvtz', properties = ['dipole'])
--------------------------------------------------------------------------

    Molecular point group: c1
  Charge       = -1
  Multiplicity = 1
  Basis Set: AUG-CC-PVTZ
    Blend: AUG-CC-PVTZ
  Basis Set: (AUG-CC-PVTZ AUX)
    Blend: AUG-CC-PVTZ-JKFIT

    Orbital Energies [Eh]
    ---------------------

    Doubly Occupied:

       1A    -79.874111     2A    -20.408338     3A    -20.401451
       4A    -20.306057     5A    -20.292762     6A     -7.390584
       7A     -5.289432     8A     -5.288710     9A     -5.287177
      10A     -1.229992    11A     -1.175005    12A     -1.090096
      13A     -1.056139    14A     -0.615471    15A     -0.537162
      16A     -0.478122    17A     -0.429564    18A     -0.427176
      19A     -0.365701    20A     -0.342117    21A     -0.338705
      22A     -0.282340    23A     -0.262510    24A     -0.247544
      25A     -0.232503

  @DF-RHF Final Energy:  -641.67104105040619

   => Energetics <=

    Nuclear Repulsion Energy =            266.3049296448855898
    One-Electron Energy =               -1428.6544007477828018
    Two-Electron Energy =                 520.6784300524910805
    Total Energy =                       -641.6710410504061883
  Basis Set: (AUG-CC-PVTZ AUX)
    Blend: AUG-CC-PVTZ-RI
    Molecular point group: c1

    Geometry (in Angstrom), charge = -1, multiplicity = 1:

       Center              X                  Y                   Z               Mass
    ------------   -----------------  -----------------  -----------------  -----------------
         P            0.006440536399     0.064413312713     0.113539410073    30.973761998420
         O            0.006056536399    -0.843012687287     1.320237410073    15.994914619570
         O            1.261759636399    -0.337573487287    -0.814055189927    15.994914619570
         O            0.006963536399     1.564952312713     0.197796410073    15.994914619570
         O           -1.288001463601    -0.349163687287    -0.842968589927    15.994914619570
         H            1.549139536399    -1.269726687287    -0.641795589927     1.007825032230
         H           -1.537239463601    -1.268593687287    -0.641770589927     1.007825032230

  Basis Set: AUG-CC-PVTZ
    Blend: AUG-CC-PVTZ
  Basis Set: (AUG-CC-PVTZ AUX)
    Blend: AUG-CC-PVTZ-JKFIT
	 Reference Energy          =    -641.6710410504061883 [Eh]
	 Singles Energy            =      -0.0000000000000000 [Eh]
	 Same-Spin Energy          =      -0.3318624054050772 [Eh]
	 Opposite-Spin Energy      =      -0.9286507465749466 [Eh]
	 Correlation Energy        =      -1.2605131519800237 [Eh]
	 Total Energy              =    -642.9315542023862236 [Eh]

	 ================> DF-SCS-MP2 Energies <==================
	-----------------------------------------------------------
	 SCS Same-Spin Scale       =       0.3333333333333333 [-]
	 SCS Opposite-Spin Scale   =       1.2000000000000000 [-]
	 SCS Same-Spin Energy      =      -0.1106208018016924 [Eh]
	 SCS Opposite-Spin Energy  =      -1.1143808958899359 [Eh]
	 SCS Correlation Energy    =      -1.2250016976916283 [Eh]
	 SCS Total Energy          =    -642.8960427480977842 [Eh]
	-----------------------------------------------------------

  Dipole Moment: [D]
     X:     0.2507      Y:    -3.9131      Z:    -2.2536     Total:     4.5226

*** Psi4 exiting successfully. Buy a developer a beer!
