                               Psi4 1.3.2 release

  ==> Input File <==

--------------------------------------------------------------------------
#psi4
#
memory 32 gb

molecule  {
-1 1
  P        0.0000210     0.1146100     0.1301380
  O       -0.0003007    -0.8915674     1.2627113
  O        1.2994240    -0.3312660    -0.8383880
  O        0.0002880     1.6062300     0.2570730
  O       -1.2993950    -0.3307730    -0.8386000
  H        1.6095220    -1.1501010    -0.4166970
  H       -1.6099810    -1.1493890    -0.4168420
units angstrom
no_reorient  #important for SAPT in psi4, default
symmetry c1  #important for SAPT in psi4, default
}

set PROPERTIES_ORIGIN ["COM"]
properties('MP2/aug-cc-pvtz', properties = ['dipole'])
--------------------------------------------------------------------------

    Molecular point group: c1
  Charge       = -1
  Multiplicity = 1
  Basis Set: AUG-CC-PVTZ
    Blend: AUG-CC-PVTZ
  Basis Set: (AUG-CC-PVTZ AUX)
    Blend: AUG-CC-PVTZ-JKFIT

    Orbital Energies [Eh]
    ---------------------

    Doubly Occupied:

       1A    -79.886126     2A    -20.400341     3A    -20.400326
       4A    -20.315779     5A    -20.309771     6A     -7.401460
       7A     -5.300128     8A     -5.299588     9A     -5.298062
      10A     -1.219492    11A     -1.168127    12A     -1.097993
      13A     -1.070578    14A     -0.599475    15A     -0.511135
      16A     -0.482299    17A     -0.439089    18A     -0.424745
      19A     -0.363635    20A     -0.352461    21A     -0.334102
      22A     -0.289496    23A     -0.268761    24A     -0.260143
      25A     -0.246881

  @DF-RHF Final Energy:  -641.67008464515300

   => Energetics <=

    Nuclear Repulsion Energy =            263.8795168510587814
    One-Electron Energy =               -1423.6192167923240959
    Two-Electron Energy =                 518.0696152961123744
    Total Energy =                       -641.6700846451529969
  Basis Set: (AUG-CC-PVTZ AUX)
    Blend: AUG-CC-PVTZ-RI
    Molecular point group: c1

    Geometry (in Angstrom), charge = -1, multiplicity = 1:

       Center              X                  Y                   Z               Mass
    ------------   -----------------  -----------------  -----------------  -----------------
         P            0.000016374046     0.093220403743     0.123163175901    30.973761998420
         O           -0.000305325954    -0.912956996257     1.255736475901    15.994914619570
         O            1.299419374046    -0.352655596257    -0.845362824099    15.994914619570
         O            0.000283374046     1.584840403743     0.250098175901    15.994914619570
         O           -1.299399625954    -0.352162596257    -0.845574824099    15.994914619570
         H            1.609517374046    -1.171490596257    -0.423671824099     1.007825032230
         H           -1.609985625954    -1.170778596257    -0.423816824099     1.007825032230

  Basis Set: AUG-CC-PVTZ
    Blend: AUG-CC-PVTZ
  Basis Set: (AUG-CC-PVTZ AUX)
    Blend: AUG-CC-PVTZ-JKFIT
	 Reference Energy          =    -641.6700846451529969 [Eh]
	 Singles Energy            =      -0.0000000000000000 [Eh]
	 Same-Spin Energy          =      -0.3327490026066656 [Eh]
	 Opposite-Spin Energy      =      -0.9312186230461845 [Eh]
	 Correlation Energy        =      -1.2639676256528500 [Eh]
	 Total Energy              =    -642.9340522708058643 [Eh]

	 ================> DF-SCS-MP2 Energies <==================
	-----------------------------------------------------------
	 SCS Same-Spin Scale       =       0.3333333333333333 [-]
	 SCS Opposite-Spin Scale   =       1.2000000000000000 [-]
	 SCS Same-Spin Energy      =      -0.1109163342022219 [Eh]
	 SCS Opposite-Spin Energy  =      -1.1174623476554213 [Eh]
	 SCS Correlation Energy    =      -1.2283786818576432 [Eh]
	 SCS Total Energy          =    -642.8984633270106315 [Eh]
	-----------------------------------------------------------

  Dipole Moment: [D]
     X:    -0.0005      Y:    -3.0450      Z:    -1.2963     Total:     3.3095

*** Psi4 exiting successfully. Buy a developer a beer!
