                               Psi4 1.3.2 release

  ==> Input File <==

--------------------------------------------------------------------------
#psi4
#
memory 32 gb

molecule  {
-1 1
  P       -0.0081414     0.1614953     0.0958257
  O       -0.0002990    -0.8716480     1.2800990
  O        1.2994240    -0.3312660    -0.8383880
  O        0.0002880     1.6062300     0.2570730
  O       -1.2993950    -0.3307730    -0.8386000
  H        1.6095220    -1.1501010    -0.4166970
  H       -1.6099810    -1.1493890    -0.4168420
units angstrom
no_reorient  #important for SAPT in psi4, default
symmetry c1  #important for SAPT in psi4, default
}

set PROPERTIES_ORIGIN ["COM"]
properties('MP2/aug-cc-pvtz', properties = ['dipole'])
--------------------------------------------------------------------------

    Molecular point group: c1
  Charge       = -1
  Multiplicity = 1
  Basis Set: AUG-CC-PVTZ
    Blend: AUG-CC-PVTZ
  Basis Set: (AUG-CC-PVTZ AUX)
    Blend: AUG-CC-PVTZ-JKFIT

    Orbital Energies [Eh]
    ---------------------

    Doubly Occupied:

       1A    -79.885827     2A    -20.403277     3A    -20.399425
       4A    -20.316816     5A    -20.304101     6A     -7.401545
       7A     -5.300099     8A     -5.299665     9A     -5.298202
      10A     -1.220631    11A     -1.169636    12A     -1.113051
      13A     -1.049010    14A     -0.605230    15A     -0.518916
      16A     -0.479674    17A     -0.434823    18A     -0.427223
      19A     -0.365122    20A     -0.351625    21A     -0.337738
      22A     -0.286782    23A     -0.278519    24A     -0.246587
      25A     -0.239268

  @DF-RHF Final Energy:  -641.66555026047286

   => Energetics <=

    Nuclear Repulsion Energy =            263.7761248061394781
    One-Electron Energy =               -1423.4177696852411827
    Two-Electron Energy =                 517.9760946186288493
    Total Energy =                       -641.6655502604728554
  Basis Set: (AUG-CC-PVTZ AUX)
    Blend: AUG-CC-PVTZ-RI
    Molecular point group: c1

    Geometry (in Angstrom), charge = -1, multiplicity = 1:

       Center              X                  Y                   Z               Mass
    ------------   -----------------  -----------------  -----------------  -----------------
         P           -0.005539080851     0.121843971257     0.096942798743    30.973761998420
         O            0.002303319149    -0.911299328743     1.281216098743    15.994914619570
         O            1.302026319149    -0.370917328743    -0.837270901257    15.994914619570
         O            0.002890319149     1.566578671257     0.258190098743    15.994914619570
         O           -1.296792680851    -0.370424328743    -0.837482901257    15.994914619570
         H            1.612124319149    -1.189752328743    -0.415579901257     1.007825032230
         H           -1.607378680851    -1.189040328743    -0.415724901257     1.007825032230

  Basis Set: AUG-CC-PVTZ
    Blend: AUG-CC-PVTZ
  Basis Set: (AUG-CC-PVTZ AUX)
    Blend: AUG-CC-PVTZ-JKFIT
	 Reference Energy          =    -641.6655502604728554 [Eh]
	 Singles Energy            =      -0.0000000000000000 [Eh]
	 Same-Spin Energy          =      -0.3325162785883856 [Eh]
	 Opposite-Spin Energy      =      -0.9307652085943139 [Eh]
	 Correlation Energy        =      -1.2632814871826996 [Eh]
	 Total Energy              =    -642.9288317476555221 [Eh]

	 ================> DF-SCS-MP2 Energies <==================
	-----------------------------------------------------------
	 SCS Same-Spin Scale       =       0.3333333333333333 [-]
	 SCS Opposite-Spin Scale   =       1.2000000000000000 [-]
	 SCS Same-Spin Energy      =      -0.1108387595294619 [Eh]
	 SCS Opposite-Spin Energy  =      -1.1169182503131767 [Eh]
	 SCS Correlation Energy    =      -1.2277570098426387 [Eh]
	 SCS Total Energy          =    -642.8933072703155176 [Eh]
	-----------------------------------------------------------

  Dipole Moment: [D]
     X:    -0.0991      Y:    -2.5098      Z:    -1.7419     Total:     3.0567

*** Psi4 exiting successfully. Buy a developer a beer!
