                               Psi4 1.3.2 release

  ==> Input File <==

--------------------------------------------------------------------------
#psi4
#
memory 32 gb

molecule  {
-1 1
  P        0.0000210     0.1146100     0.1301380
  O       -0.0003201    -0.9367491     1.3560058
  O        1.2994240    -0.3312660    -0.8383880
  O        0.0002880     1.6062300     0.2570730
  O       -1.2993950    -0.3307730    -0.8386000
  H        1.6095220    -1.1501010    -0.4166970
  H       -1.6099810    -1.1493890    -0.4168420
units angstrom
no_reorient  #important for SAPT in psi4, default
symmetry c1  #important for SAPT in psi4, default
}

set PROPERTIES_ORIGIN ["COM"]
properties('MP2/aug-cc-pvtz', properties = ['dipole'])
--------------------------------------------------------------------------

    Molecular point group: c1
  Charge       = -1
  Multiplicity = 1
  Basis Set: AUG-CC-PVTZ
    Blend: AUG-CC-PVTZ
  Basis Set: (AUG-CC-PVTZ AUX)
    Blend: AUG-CC-PVTZ-JKFIT

    Orbital Energies [Eh]
    ---------------------

    Doubly Occupied:

       1A    -79.902229     2A    -20.409407     3A    -20.409392
       4A    -20.319578     5A    -20.317024     6A     -7.415055
       7A     -5.313895     8A     -5.313177     9A     -5.311293
      10A     -1.221849    11A     -1.175779    12A     -1.095987
      13A     -1.045248    14A     -0.607738    15A     -0.518546
      16A     -0.488806    17A     -0.438760    18A     -0.426032
      19A     -0.363657    20A     -0.345899    21A     -0.341474
      22A     -0.281889    23A     -0.270205    24A     -0.252194
      25A     -0.241464

  @DF-RHF Final Energy:  -641.65467791680521

   => Energetics <=

    Nuclear Repulsion Energy =            259.9388658852977869
    One-Electron Energy =               -1415.5339325845084204
    Two-Electron Energy =                 513.9403887824055346
    Total Energy =                       -641.6546779168052126
  Basis Set: (AUG-CC-PVTZ AUX)
    Blend: AUG-CC-PVTZ-RI
    Molecular point group: c1

    Geometry (in Angstrom), charge = -1, multiplicity = 1:

       Center              X                  Y                   Z               Mass
    ------------   -----------------  -----------------  -----------------  -----------------
         P            0.000019574050     0.100673062925     0.107774376631    30.973761998420
         O           -0.000321525950    -0.950686037075     1.333642176631    15.994914619570
         O            1.299422574050    -0.345202937075    -0.860751623369    15.994914619570
         O            0.000286574050     1.592293062925     0.234709376631    15.994914619570
         O           -1.299396425950    -0.344709937075    -0.860963623369    15.994914619570
         H            1.609520574050    -1.164037937075    -0.439060623369     1.007825032230
         H           -1.609982425950    -1.163325937075    -0.439205623369     1.007825032230

  Basis Set: AUG-CC-PVTZ
    Blend: AUG-CC-PVTZ
  Basis Set: (AUG-CC-PVTZ AUX)
    Blend: AUG-CC-PVTZ-JKFIT
	 Reference Energy          =    -641.6546779168052126 [Eh]
	 Singles Energy            =      -0.0000000000000000 [Eh]
	 Same-Spin Energy          =      -0.3346768481156200 [Eh]
	 Opposite-Spin Energy      =      -0.9362449454962136 [Eh]
	 Correlation Energy        =      -1.2709217936118336 [Eh]
	 Total Energy              =    -642.9255997104170319 [Eh]

	 ================> DF-SCS-MP2 Energies <==================
	-----------------------------------------------------------
	 SCS Same-Spin Scale       =       0.3333333333333333 [-]
	 SCS Opposite-Spin Scale   =       1.2000000000000000 [-]
	 SCS Same-Spin Energy      =      -0.1115589493718733 [Eh]
	 SCS Opposite-Spin Energy  =      -1.1234939345954562 [Eh]
	 SCS Correlation Energy    =      -1.2350528839673296 [Eh]
	 SCS Total Energy          =    -642.8897308007725542 [Eh]
	-----------------------------------------------------------

  Dipole Moment: [D]
     X:    -0.0004      Y:    -2.7384      Z:    -1.8142     Total:     3.2849

*** Psi4 exiting successfully. Buy a developer a beer!
