                               Psi4 1.3.2 release

  ==> Input File <==

--------------------------------------------------------------------------
#psi4
#
memory 32 gb

molecule  {
-1 1
  P        0.0000210     0.1146100     0.1301380
  O       -0.0002990    -0.8716480     1.2800990
  O        1.1448125    -0.2782127    -0.7231464
  O        0.0002880     1.6062300     0.2570730
  O       -1.2993950    -0.3307730    -0.8386000
  H        1.6095220    -1.1501010    -0.4166970
  H       -1.6099810    -1.1493890    -0.4168420
units angstrom
no_reorient  #important for SAPT in psi4, default
symmetry c1  #important for SAPT in psi4, default
}

set PROPERTIES_ORIGIN ["COM"]
properties('MP2/aug-cc-pvtz', properties = ['dipole'])
--------------------------------------------------------------------------

    Molecular point group: c1
  Charge       = -1
  Multiplicity = 1
  Basis Set: AUG-CC-PVTZ
    Blend: AUG-CC-PVTZ
  Basis Set: (AUG-CC-PVTZ AUX)
    Blend: AUG-CC-PVTZ-JKFIT

    Orbital Energies [Eh]
    ---------------------

    Doubly Occupied:

       1A    -79.857705     2A    -20.410360     3A    -20.386158
       4A    -20.296043     5A    -20.290757     6A     -7.378377
       7A     -5.277975     8A     -5.276077     9A     -5.274457
      10A     -1.260315    11A     -1.168211    12A     -1.081955
      13A     -1.055115    14A     -0.629056    15A     -0.522563
      16A     -0.486301    17A     -0.444737    18A     -0.435395
      19A     -0.360652    20A     -0.337886    21A     -0.334493
      22A     -0.279089    23A     -0.255515    24A     -0.243725
      25A     -0.228631

  @DF-RHF Final Energy:  -641.65043150328404

   => Energetics <=

    Nuclear Repulsion Energy =            271.3145076971405274
    One-Electron Energy =               -1438.7867819330042494
    Two-Electron Energy =                 525.8218427325797393
    Total Energy =                       -641.6504315032840395
  Basis Set: (AUG-CC-PVTZ AUX)
    Blend: AUG-CC-PVTZ-RI
    Molecular point group: c1

    Geometry (in Angstrom), charge = -1, multiplicity = 1:

       Center              X                  Y                   Z               Mass
    ------------   -----------------  -----------------  -----------------  -----------------
         P            0.025519047595     0.081183657392     0.101286155551    30.973761998420
         O            0.025199047595    -0.905074342608     1.251247155551    15.994914619570
         O            1.170310547595    -0.311639042608    -0.751998244449    15.994914619570
         O            0.025786047595     1.572803657392     0.228221155551    15.994914619570
         O           -1.273896952405    -0.364199342608    -0.867451844449    15.994914619570
         H            1.635020047595    -1.183527342608    -0.445548844449     1.007825032230
         H           -1.584482952405    -1.182815342608    -0.445693844449     1.007825032230

  Basis Set: AUG-CC-PVTZ
    Blend: AUG-CC-PVTZ
  Basis Set: (AUG-CC-PVTZ AUX)
    Blend: AUG-CC-PVTZ-JKFIT
	 Reference Energy          =    -641.6504315032840395 [Eh]
	 Singles Energy            =      -0.0000000000000000 [Eh]
	 Same-Spin Energy          =      -0.3317439978611663 [Eh]
	 Opposite-Spin Energy      =      -0.9266286686643008 [Eh]
	 Correlation Energy        =      -1.2583726665254671 [Eh]
	 Total Energy              =    -642.9088041698095140 [Eh]

	 ================> DF-SCS-MP2 Energies <==================
	-----------------------------------------------------------
	 SCS Same-Spin Scale       =       0.3333333333333333 [-]
	 SCS Opposite-Spin Scale   =       1.2000000000000000 [-]
	 SCS Same-Spin Energy      =      -0.1105813326203887 [Eh]
	 SCS Opposite-Spin Energy  =      -1.1119544023971610 [Eh]
	 SCS Correlation Energy    =      -1.2225357350175499 [Eh]
	 SCS Total Energy          =    -642.8729672383016123 [Eh]
	-----------------------------------------------------------

  Dipole Moment: [D]
     X:     1.0266      Y:    -3.4864      Z:    -2.0134     Total:     4.1549

*** Psi4 exiting successfully. Buy a developer a beer!
