                               Psi4 1.4a3.dev225

  ==> Input File <==

--------------------------------------------------------------------------
#psi4
#
memory 32 gb

molecule  {
-1 1
  P        0.0000270     0.0927860     0.1323680
  O       -0.0003570    -0.8146400     1.3390660
  O        1.2942880    -0.3216710    -0.8240020
  O        0.0005500     1.5933250     0.2166250
  O       -1.2944150    -0.3207910    -0.8241400
  H        1.5376227    -1.2224621    -0.6270966
  H       -1.5436530    -1.2402210    -0.6229420
units angstrom
no_reorient  #important for SAPT in psi4, default
symmetry c1  #important for SAPT in psi4, default
}

set PROPERTIES_ORIGIN ["COM"]
properties('MP2/aug-cc-pvtz', properties = ['dipole'])
--------------------------------------------------------------------------

    Molecular point group: c1
  Charge       = -1
  Multiplicity = 1
  Basis Set: AUG-CC-PVTZ
    Blend: AUG-CC-PVTZ
  Basis Set: (AUG-CC-PVTZ AUX)
    Blend: AUG-CC-PVTZ-JKFIT

    Orbital Energies [Eh]
    ---------------------

    Doubly Occupied:

       1A    -79.880618     2A    -20.405422     3A    -20.403451
       4A    -20.311176     5A    -20.296912     6A     -7.396169
       7A     -5.294912     8A     -5.294276     9A     -5.292804
      10A     -1.225746    11A     -1.176316    12A     -1.094844
      13A     -1.059723    14A     -0.612562    15A     -0.536015
      16A     -0.479560    17A     -0.429174    18A     -0.425626
      19A     -0.366015    20A     -0.346683    21A     -0.337753
      22A     -0.284978    23A     -0.266077    24A     -0.251410
      25A     -0.236722

  @DF-RHF Final Energy:  -641.67235338932687

   => Energetics <=

    Nuclear Repulsion Energy =            264.6717280583443426
    One-Electron Energy =               -1425.2782711368818127
    Two-Electron Energy =                 518.9341896892105979
    Total Energy =                       -641.6723533893268723
  Basis Set: (AUG-CC-PVTZ AUX)
    Blend: AUG-CC-PVTZ-RI
    Molecular point group: c1

    Geometry (in Angstrom), charge = -1, multiplicity = 1:

       Center              X                  Y                   Z               Mass
    ------------   -----------------  -----------------  -----------------  -----------------
         P            0.000070163571     0.066273906546     0.118328792686    30.973761998420
         O           -0.000313836429    -0.841152093454     1.325026792686    15.994914619570
         O            1.294331163571    -0.348183093454    -0.838041207314    15.994914619570
         O            0.000593163571     1.566812906546     0.202585792686    15.994914619570
         O           -1.294371836429    -0.347303093454    -0.838179207314    15.994914619570
         H            1.537665863571    -1.248974193454    -0.641135807314     1.007825032230
         H           -1.543609836429    -1.266733093454    -0.636981207314     1.007825032230

  Basis Set: AUG-CC-PVTZ
    Blend: AUG-CC-PVTZ
  Basis Set: (AUG-CC-PVTZ AUX)
    Blend: AUG-CC-PVTZ-JKFIT
	 Reference Energy          =    -641.6723533893268723 [Eh]
	 Singles Energy            =      -0.0000000000000000 [Eh]
	 Same-Spin Energy          =      -0.3319030546669837 [Eh]
	 Opposite-Spin Energy      =      -0.9292388541396736 [Eh]
	 Correlation Energy        =      -1.2611419088066573 [Eh]
	 Total Energy              =    -642.9334952981334936 [Eh]

	 ================> DF-SCS-MP2 Energies <==================
	-----------------------------------------------------------
	 SCS Same-Spin Scale       =       0.3333333333333333 [-]
	 SCS Opposite-Spin Scale   =       1.2000000000000000 [-]
	 SCS Same-Spin Energy      =      -0.1106343515556612 [Eh]
	 SCS Opposite-Spin Energy  =      -1.1150866249676081 [Eh]
	 SCS Correlation Energy    =      -1.2257209765232693 [Eh]
	 SCS Total Energy          =    -642.8980743658501069 [Eh]
	-----------------------------------------------------------

  Dipole Moment: [D]
     X:    -0.0090      Y:    -3.8093      Z:    -2.0808     Total:     4.3406

*** Psi4 exiting successfully. Buy a developer a beer!
