                               Psi4 1.3.2 release

  ==> Input File <==

--------------------------------------------------------------------------
#psi4
#
memory 32 gb

molecule  {
-1 1
  P        0.0000210     0.1146100     0.1301380
  O        0.0844167    -0.9172128     1.2361825
  O        1.2994240    -0.3312660    -0.8383880
  O        0.0002880     1.6062300     0.2570730
  O       -1.2993950    -0.3307730    -0.8386000
  H        1.6095220    -1.1501010    -0.4166970
  H       -1.6099810    -1.1493890    -0.4168420
units angstrom
no_reorient  #important for SAPT in psi4, default
symmetry c1  #important for SAPT in psi4, default
}

set PROPERTIES_ORIGIN ["COM"]
properties('MP2/aug-cc-pvtz', properties = ['dipole'])
--------------------------------------------------------------------------

    Molecular point group: c1
  Charge       = -1
  Multiplicity = 1
  Basis Set: AUG-CC-PVTZ
    Blend: AUG-CC-PVTZ
  Basis Set: (AUG-CC-PVTZ AUX)
    Blend: AUG-CC-PVTZ-JKFIT

    Orbital Energies [Eh]
    ---------------------

    Doubly Occupied:

       1A    -79.886417     2A    -20.404364     3A    -20.392686
       4A    -20.315638     5A    -20.312008     6A     -7.401746
       7A     -5.300415     8A     -5.299924     9A     -5.298313
      10A     -1.219151    11A     -1.166663    12A     -1.097508
      13A     -1.072048    14A     -0.598817    15A     -0.509953
      16A     -0.481221    17A     -0.438668    18A     -0.424852
      19A     -0.362887    20A     -0.353346    21A     -0.332552
      22A     -0.289616    23A     -0.267701    24A     -0.261448
      25A     -0.248291

  @DF-RHF Final Energy:  -641.66866501152583

   => Energetics <=

    Nuclear Repulsion Energy =            264.0110301390738528
    One-Electron Energy =               -1423.8869276056293529
    Two-Electron Energy =                 518.2072324550296116
    Total Energy =                       -641.6686650115258317
  Basis Set: (AUG-CC-PVTZ AUX)
    Blend: AUG-CC-PVTZ-RI
    Molecular point group: c1

    Geometry (in Angstrom), charge = -1, multiplicity = 1:

       Center              X                  Y                   Z               Mass
    ------------   -----------------  -----------------  -----------------  -----------------
         P           -0.013957644393     0.097450577149     0.127539064920    30.973761998420
         O            0.070438055607    -0.934372222851     1.233583564920    15.994914619570
         O            1.285445355607    -0.348425422851    -0.840986935080    15.994914619570
         O           -0.013690644393     1.589070577149     0.254474064920    15.994914619570
         O           -1.313373644393    -0.347932422851    -0.841198935080    15.994914619570
         H            1.595543355607    -1.167260422851    -0.419295935080     1.007825032230
         H           -1.623959644393    -1.166548422851    -0.419440935080     1.007825032230

  Basis Set: AUG-CC-PVTZ
    Blend: AUG-CC-PVTZ
  Basis Set: (AUG-CC-PVTZ AUX)
    Blend: AUG-CC-PVTZ-JKFIT
	 Reference Energy          =    -641.6686650115258317 [Eh]
	 Singles Energy            =      -0.0000000000000000 [Eh]
	 Same-Spin Energy          =      -0.3328421209107167 [Eh]
	 Opposite-Spin Energy      =      -0.9313751828123269 [Eh]
	 Correlation Energy        =      -1.2642173037230435 [Eh]
	 Total Energy              =    -642.9328823152488894 [Eh]

	 ================> DF-SCS-MP2 Energies <==================
	-----------------------------------------------------------
	 SCS Same-Spin Scale       =       0.3333333333333333 [-]
	 SCS Opposite-Spin Scale   =       1.2000000000000000 [-]
	 SCS Same-Spin Energy      =      -0.1109473736369056 [Eh]
	 SCS Opposite-Spin Energy  =      -1.1176502193747921 [Eh]
	 SCS Correlation Energy    =      -1.2285975930116977 [Eh]
	 SCS Total Energy          =    -642.8972626045375591 [Eh]
	-----------------------------------------------------------

  Dipole Moment: [D]
     X:    -0.2677      Y:    -2.9572      Z:    -1.2243     Total:     3.2117

*** Psi4 exiting successfully. Buy a developer a beer!
