                               Psi4 1.3.2 release

  ==> Input File <==

--------------------------------------------------------------------------
#psi4
#
memory 32 gb

molecule  {
-1 1
  P        0.0000210     0.1146100     0.1301380
  O       -0.0002990    -0.8716480     1.2800990
  O        1.2221182    -0.3047394    -0.7807672
  O        0.0002880     1.6062300     0.2570730
  O       -1.2993950    -0.3307730    -0.8386000
  H        1.6095220    -1.1501010    -0.4166970
  H       -1.6099810    -1.1493890    -0.4168420
units angstrom
no_reorient  #important for SAPT in psi4, default
symmetry c1  #important for SAPT in psi4, default
}

set PROPERTIES_ORIGIN ["COM"]
properties('MP2/aug-cc-pvtz', properties = ['dipole'])
--------------------------------------------------------------------------

    Molecular point group: c1
  Charge       = -1
  Multiplicity = 1
  Basis Set: AUG-CC-PVTZ
    Blend: AUG-CC-PVTZ
  Basis Set: (AUG-CC-PVTZ AUX)
    Blend: AUG-CC-PVTZ-JKFIT

    Orbital Energies [Eh]
    ---------------------

    Doubly Occupied:

       1A    -79.873080     2A    -20.406543     3A    -20.394048
       4A    -20.306000     5A    -20.299712     6A     -7.390378
       7A     -5.289287     8A     -5.288475     9A     -5.286889
      10A     -1.235171    11A     -1.171068    12A     -1.090360
      13A     -1.062287    14A     -0.613124    15A     -0.519279
      16A     -0.482581    17A     -0.440305    18A     -0.429787
      19A     -0.363340    20A     -0.344903    21A     -0.336977
      22A     -0.284490    23A     -0.262730    24A     -0.251628
      25A     -0.237449

  @DF-RHF Final Energy:  -641.66947923405598

   => Energetics <=

    Nuclear Repulsion Energy =            267.3839047327504659
    One-Electron Energy =               -1430.7869817044850151
    Two-Electron Energy =                 521.7335977376786786
    Total Energy =                       -641.6694792340559843
  Basis Set: (AUG-CC-PVTZ AUX)
    Blend: AUG-CC-PVTZ-RI
    Molecular point group: c1

    Geometry (in Angstrom), charge = -1, multiplicity = 1:

       Center              X                  Y                   Z               Mass
    ------------   -----------------  -----------------  -----------------  -----------------
         P            0.012767578862     0.085559200019     0.110790627144    30.973761998420
         O            0.012447578862    -0.900698799981     1.260751627144    15.994914619570
         O            1.234864778862    -0.333790199981    -0.800114572856    15.994914619570
         O            0.013034578862     1.577179200019     0.237725627144    15.994914619570
         O           -1.286648421138    -0.359823799981    -0.857947372856    15.994914619570
         H            1.622268578862    -1.179151799981    -0.436044372856     1.007825032230
         H           -1.597234421138    -1.178439799981    -0.436189372856     1.007825032230

  Basis Set: AUG-CC-PVTZ
    Blend: AUG-CC-PVTZ
  Basis Set: (AUG-CC-PVTZ AUX)
    Blend: AUG-CC-PVTZ-JKFIT
	 Reference Energy          =    -641.6694792340559843 [Eh]
	 Singles Energy            =      -0.0000000000000000 [Eh]
	 Same-Spin Energy          =      -0.3320640326434968 [Eh]
	 Opposite-Spin Energy      =      -0.9285875829497771 [Eh]
	 Correlation Energy        =      -1.2606516155932739 [Eh]
	 Total Energy              =    -642.9301308496492311 [Eh]

	 ================> DF-SCS-MP2 Energies <==================
	-----------------------------------------------------------
	 SCS Same-Spin Scale       =       0.3333333333333333 [-]
	 SCS Opposite-Spin Scale   =       1.2000000000000000 [-]
	 SCS Same-Spin Energy      =      -0.1106880108811656 [Eh]
	 SCS Opposite-Spin Energy  =      -1.1143050995397323 [Eh]
	 SCS Correlation Energy    =      -1.2249931104208980 [Eh]
	 SCS Total Energy          =    -642.8944723444768670 [Eh]
	-----------------------------------------------------------

  Dipole Moment: [D]
     X:     0.5053      Y:    -3.2969      Z:    -1.6762     Total:     3.7329

*** Psi4 exiting successfully. Buy a developer a beer!
