                               Psi4 1.3.2 release

  ==> Input File <==

--------------------------------------------------------------------------
#psi4
#
memory 32 gb

molecule  {
-1 1
  P        0.0000210     0.1146100     0.1301380
  O       -0.0002990    -0.8716480     1.2800990
  O        1.4540355    -0.3843193    -0.9536296
  O        0.0002880     1.6062300     0.2570730
  O       -1.2993950    -0.3307730    -0.8386000
  H        1.6095220    -1.1501010    -0.4166970
  H       -1.6099810    -1.1493890    -0.4168420
units angstrom
no_reorient  #important for SAPT in psi4, default
symmetry c1  #important for SAPT in psi4, default
}

set PROPERTIES_ORIGIN ["COM"]
properties('MP2/aug-cc-pvtz', properties = ['dipole'])
--------------------------------------------------------------------------

    Molecular point group: c1
  Charge       = -1
  Multiplicity = 1
  Basis Set: AUG-CC-PVTZ
    Blend: AUG-CC-PVTZ
  Basis Set: (AUG-CC-PVTZ AUX)
    Blend: AUG-CC-PVTZ-JKFIT

    Orbital Energies [Eh]
    ---------------------

    Doubly Occupied:

       1A    -79.906852     2A    -20.415617     3A    -20.390108
       4A    -20.334846     5A    -20.324319     6A     -7.420609
       7A     -5.319093     8A     -5.318438     9A     -5.317013
      10A     -1.215732    11A     -1.149234    12A     -1.110382
      13A     -1.083377    14A     -0.591341    15A     -0.495380
      16A     -0.475785    17A     -0.439952    18A     -0.425085
      19A     -0.372056    20A     -0.354547    21A     -0.322764
      22A     -0.297664    23A     -0.278591    24A     -0.271282
      25A     -0.260977

  @DF-RHF Final Energy:  -641.64422320612630

   => Energetics <=

    Nuclear Repulsion Energy =            257.4619841425570712
    One-Electron Energy =               -1410.4303316497512242
    Two-Electron Energy =                 511.3241243010680250
    Total Energy =                       -641.6442232061262985
  Basis Set: (AUG-CC-PVTZ AUX)
    Blend: AUG-CC-PVTZ-RI
    Molecular point group: c1

    Geometry (in Angstrom), charge = -1, multiplicity = 1:

       Center              X                  Y                   Z               Mass
    ------------   -----------------  -----------------  -----------------  -----------------
         P           -0.025486860328     0.098685794909     0.139304041921    30.973761998420
         O           -0.025806860328    -0.887572205091     1.289265041921    15.994914619570
         O            1.428527639672    -0.400243505091    -0.944463558079    15.994914619570
         O           -0.025219860328     1.590305794909     0.266239041921    15.994914619570
         O           -1.324902860328    -0.346697205091    -0.829433958079    15.994914619570
         H            1.584014139672    -1.166025205091    -0.407530958079     1.007825032230
         H           -1.635488860328    -1.165313205091    -0.407675958079     1.007825032230

  Basis Set: AUG-CC-PVTZ
    Blend: AUG-CC-PVTZ
  Basis Set: (AUG-CC-PVTZ AUX)
    Blend: AUG-CC-PVTZ-JKFIT
	 Reference Energy          =    -641.6442232061262985 [Eh]
	 Singles Energy            =      -0.0000000000000000 [Eh]
	 Same-Spin Energy          =      -0.3349365038363604 [Eh]
	 Opposite-Spin Energy      =      -0.9380139530492493 [Eh]
	 Correlation Energy        =      -1.2729504568856096 [Eh]
	 Total Energy              =    -642.9171736630119085 [Eh]

	 ================> DF-SCS-MP2 Energies <==================
	-----------------------------------------------------------
	 SCS Same-Spin Scale       =       0.3333333333333333 [-]
	 SCS Opposite-Spin Scale   =       1.2000000000000000 [-]
	 SCS Same-Spin Energy      =      -0.1116455012787868 [Eh]
	 SCS Opposite-Spin Energy  =      -1.1256167436590991 [Eh]
	 SCS Correlation Energy    =      -1.2372622449378858 [Eh]
	 SCS Total Energy          =    -642.8814854510642363 [Eh]
	-----------------------------------------------------------

  Dipole Moment: [D]
     X:    -0.9721      Y:    -2.7434      Z:    -0.6861     Total:     2.9903

*** Psi4 exiting successfully. Buy a developer a beer!
