                               Psi4 1.3.2 release

  ==> Input File <==

--------------------------------------------------------------------------
#psi4
#
memory 32 gb

molecule  {
-1 1
  P        0.0000210     0.1146100     0.1301380
  O       -0.0002990    -0.8716480     1.2800990
  O        1.2994240    -0.3312660    -0.8383880
  O        0.0002880     1.6062300     0.2570730
  O       -1.2993950    -0.3307730    -0.8386000
  H        1.5457054    -0.9815889    -0.5034789
  H       -1.6099810    -1.1493890    -0.4168420
units angstrom
no_reorient  #important for SAPT in psi4, default
symmetry c1  #important for SAPT in psi4, default
}

set PROPERTIES_ORIGIN ["COM"]
properties('MP2/aug-cc-pvtz', properties = ['dipole'])
--------------------------------------------------------------------------

    Molecular point group: c1
  Charge       = -1
  Multiplicity = 1
  Basis Set: AUG-CC-PVTZ
    Blend: AUG-CC-PVTZ
  Basis Set: (AUG-CC-PVTZ AUX)
    Blend: AUG-CC-PVTZ-JKFIT

    Orbital Energies [Eh]
    ---------------------

    Doubly Occupied:

       1A    -79.888370     2A    -20.403071     3A    -20.380531
       4A    -20.318369     5A    -20.309151     6A     -7.403688
       7A     -5.302391     8A     -5.301761     9A     -5.300292
      10A     -1.264313    11A     -1.191616    12A     -1.104382
      13A     -1.070785    14A     -0.632013    15A     -0.537045
      16A     -0.489899    17A     -0.444197    18A     -0.428028
      19A     -0.368407    20A     -0.355261    21A     -0.340111
      22A     -0.291168    23A     -0.271976    24A     -0.261342
      25A     -0.247734

  @DF-RHF Final Energy:  -641.62263711441847

   => Energetics <=

    Nuclear Repulsion Energy =            265.2761286536709804
    One-Electron Energy =               -1425.9857287821350837
    Two-Electron Energy =                 519.0869630140455229
    Total Energy =                       -641.6226371144184668
  Basis Set: (AUG-CC-PVTZ AUX)
    Blend: AUG-CC-PVTZ-RI
    Molecular point group: c1

    Geometry (in Angstrom), charge = -1, multiplicity = 1:

       Center              X                  Y                   Z               Mass
    ------------   -----------------  -----------------  -----------------  -----------------
         P            0.000679356328     0.088183335613     0.121197045828    30.973761998420
         O            0.000359356328    -0.898074664387     1.271158045828    15.994914619570
         O            1.300082356328    -0.357692664387    -0.847328954172    15.994914619570
         O            0.000946356328     1.579803335613     0.248132045828    15.994914619570
         O           -1.298736643672    -0.357199664387    -0.847540954172    15.994914619570
         H            1.546363756328    -1.008015564387    -0.512419854172     1.007825032230
         H           -1.609322643672    -1.175815664387    -0.425782954172     1.007825032230

  Basis Set: AUG-CC-PVTZ
    Blend: AUG-CC-PVTZ
  Basis Set: (AUG-CC-PVTZ AUX)
    Blend: AUG-CC-PVTZ-JKFIT
	 Reference Energy          =    -641.6226371144184668 [Eh]
	 Singles Energy            =      -0.0000000000000000 [Eh]
	 Same-Spin Energy          =      -0.3304871004708271 [Eh]
	 Opposite-Spin Energy      =      -0.9261827521841345 [Eh]
	 Correlation Energy        =      -1.2566698526549616 [Eh]
	 Total Energy              =    -642.8793069670733757 [Eh]

	 ================> DF-SCS-MP2 Energies <==================
	-----------------------------------------------------------
	 SCS Same-Spin Scale       =       0.3333333333333333 [-]
	 SCS Opposite-Spin Scale   =       1.2000000000000000 [-]
	 SCS Same-Spin Energy      =      -0.1101623668236090 [Eh]
	 SCS Opposite-Spin Energy  =      -1.1114193026209613 [Eh]
	 SCS Correlation Energy    =      -1.2215816694445705 [Eh]
	 SCS Total Energy          =    -642.8442187838630844 [Eh]
	-----------------------------------------------------------

  Dipole Moment: [D]
     X:    -0.1078      Y:    -2.9697      Z:    -1.3833     Total:     3.2779

*** Psi4 exiting successfully. Buy a developer a beer!
