                               Psi4 1.3.2 release

  ==> Input File <==

--------------------------------------------------------------------------
#psi4
#
memory 32 gb

molecule  {
-1 1
  P        0.0000210     0.1146100     0.1301380
  O        0.0420845    -0.8950455     1.2588283
  O        1.2994240    -0.3312660    -0.8383880
  O        0.0002880     1.6062300     0.2570730
  O       -1.2993950    -0.3307730    -0.8386000
  H        1.6095220    -1.1501010    -0.4166970
  H       -1.6099810    -1.1493890    -0.4168420
units angstrom
no_reorient  #important for SAPT in psi4, default
symmetry c1  #important for SAPT in psi4, default
}

set PROPERTIES_ORIGIN ["COM"]
properties('MP2/aug-cc-pvtz', properties = ['dipole'])
--------------------------------------------------------------------------

    Molecular point group: c1
  Charge       = -1
  Multiplicity = 1
  Basis Set: AUG-CC-PVTZ
    Blend: AUG-CC-PVTZ
  Basis Set: (AUG-CC-PVTZ AUX)
    Blend: AUG-CC-PVTZ-JKFIT

    Orbital Energies [Eh]
    ---------------------

    Doubly Occupied:

       1A    -79.886167     2A    -20.402938     3A    -20.397195
       4A    -20.315749     5A    -20.310089     6A     -7.401502
       7A     -5.300171     8A     -5.299636     9A     -5.298099
      10A     -1.219470    11A     -1.167908    12A     -1.097891
      13A     -1.070783    14A     -0.599394    15A     -0.510967
      16A     -0.482139    17A     -0.439016    18A     -0.424764
      19A     -0.363543    20A     -0.352613    21A     -0.333829
      22A     -0.289510    23A     -0.268551    24A     -0.260331
      25A     -0.247076

  @DF-RHF Final Energy:  -641.66981482296069

   => Energetics <=

    Nuclear Repulsion Energy =            263.8999587905450994
    One-Electron Energy =               -1423.6608882977923258
    Two-Electron Energy =                 518.0911146842865946
    Total Energy =                       -641.6698148229606886
  Basis Set: (AUG-CC-PVTZ AUX)
    Blend: AUG-CC-PVTZ-RI
    Molecular point group: c1

    Geometry (in Angstrom), charge = -1, multiplicity = 1:

       Center              X                  Y                   Z               Mass
    ------------   -----------------  -----------------  -----------------  -----------------
         P           -0.006975006312     0.093794111548     0.123803671403    30.973761998420
         O            0.035088493688    -0.915861388452     1.252493971403    15.994914619570
         O            1.292427993688    -0.352081888452    -0.844722328597    15.994914619570
         O           -0.006708006312     1.585414111548     0.250738671403    15.994914619570
         O           -1.306391006312    -0.351588888452    -0.844934328597    15.994914619570
         H            1.602525993688    -1.170916888452    -0.423031328597     1.007825032230
         H           -1.616977006312    -1.170204888452    -0.423176328597     1.007825032230

  Basis Set: AUG-CC-PVTZ
    Blend: AUG-CC-PVTZ
  Basis Set: (AUG-CC-PVTZ AUX)
    Blend: AUG-CC-PVTZ-JKFIT
	 Reference Energy          =    -641.6698148229606886 [Eh]
	 Singles Energy            =      -0.0000000000000000 [Eh]
	 Same-Spin Energy          =      -0.3327652457217120 [Eh]
	 Opposite-Spin Energy      =      -0.9312466104365626 [Eh]
	 Correlation Energy        =      -1.2640118561582745 [Eh]
	 Total Energy              =    -642.9338266791189653 [Eh]

	 ================> DF-SCS-MP2 Energies <==================
	-----------------------------------------------------------
	 SCS Same-Spin Scale       =       0.3333333333333333 [-]
	 SCS Opposite-Spin Scale   =       1.2000000000000000 [-]
	 SCS Same-Spin Energy      =      -0.1109217485739040 [Eh]
	 SCS Opposite-Spin Energy  =      -1.1174959325238751 [Eh]
	 SCS Correlation Energy    =      -1.2284176810977792 [Eh]
	 SCS Total Energy          =    -642.8982325040584556 [Eh]
	-----------------------------------------------------------

  Dipole Moment: [D]
     X:    -0.1333      Y:    -3.0328      Z:    -1.2857     Total:     3.2968

*** Psi4 exiting successfully. Buy a developer a beer!
