                               Psi4 1.3.2 release

  ==> Input File <==

--------------------------------------------------------------------------
#psi4
#
memory 32 gb

molecule  {
-1 1
  P        0.0000210     0.1146100     0.1301380
  O        0.1266462    -0.9381230     1.2121891
  O        1.2994240    -0.3312660    -0.8383880
  O        0.0002880     1.6062300     0.2570730
  O       -1.2993950    -0.3307730    -0.8386000
  H        1.6095220    -1.1501010    -0.4166970
  H       -1.6099810    -1.1493890    -0.4168420
units angstrom
no_reorient  #important for SAPT in psi4, default
symmetry c1  #important for SAPT in psi4, default
}

set PROPERTIES_ORIGIN ["COM"]
properties('MP2/aug-cc-pvtz', properties = ['dipole'])
--------------------------------------------------------------------------

    Molecular point group: c1
  Charge       = -1
  Multiplicity = 1
  Basis Set: AUG-CC-PVTZ
    Blend: AUG-CC-PVTZ
  Basis Set: (AUG-CC-PVTZ AUX)
    Blend: AUG-CC-PVTZ-JKFIT

    Orbital Energies [Eh]
    ---------------------

    Doubly Occupied:

       1A    -79.886676     2A    -20.405798     3A    -20.387991
       4A    -20.315429     5A    -20.313906     6A     -7.402007
       7A     -5.300679     8A     -5.300221     9A     -5.298541
      10A     -1.218975    11A     -1.165419    12A     -1.097001
      13A     -1.073098    14A     -0.598311    15A     -0.508959
      16A     -0.480212    17A     -0.438274    18A     -0.424980
      19A     -0.362354    20A     -0.354077    21A     -0.331077
      22A     -0.289652    23A     -0.266805    24A     -0.262213
      25A     -0.249269

  @DF-RHF Final Energy:  -641.66680951554611

   => Energetics <=

    Nuclear Repulsion Energy =            264.1398549063898145
    One-Electron Energy =               -1424.1494807344968194
    Two-Electron Energy =                 518.3428163125607853
    Total Energy =                       -641.6668095155461060
  Basis Set: (AUG-CC-PVTZ AUX)
    Blend: AUG-CC-PVTZ-RI
    Molecular point group: c1

    Geometry (in Angstrom), charge = -1, multiplicity = 1:

       Center              X                  Y                   Z               Mass
    ------------   -----------------  -----------------  -----------------  -----------------
         P           -0.020923342251     0.100899685837     0.131496743202    30.973761998420
         O            0.105701857749    -0.951833314163     1.213547843202    15.994914619570
         O            1.278479657749    -0.344976314163    -0.837029256798    15.994914619570
         O           -0.020656342251     1.592519685837     0.258431743202    15.994914619570
         O           -1.320339342251    -0.344483314163    -0.837241256798    15.994914619570
         H            1.588577657749    -1.163811314163    -0.415338256798     1.007825032230
         H           -1.630925342251    -1.163099314163    -0.415483256798     1.007825032230

  Basis Set: AUG-CC-PVTZ
    Blend: AUG-CC-PVTZ
  Basis Set: (AUG-CC-PVTZ AUX)
    Blend: AUG-CC-PVTZ-JKFIT
	 Reference Energy          =    -641.6668095155461060 [Eh]
	 Singles Energy            =      -0.0000000000000000 [Eh]
	 Same-Spin Energy          =      -0.3329515687582829 [Eh]
	 Opposite-Spin Energy      =      -0.9315664682121469 [Eh]
	 Correlation Energy        =      -1.2645180369704299 [Eh]
	 Total Energy              =    -642.9313275525165636 [Eh]

	 ================> DF-SCS-MP2 Energies <==================
	-----------------------------------------------------------
	 SCS Same-Spin Scale       =       0.3333333333333333 [-]
	 SCS Opposite-Spin Scale   =       1.2000000000000000 [-]
	 SCS Same-Spin Energy      =      -0.1109838562527610 [Eh]
	 SCS Opposite-Spin Energy  =      -1.1178797618545764 [Eh]
	 SCS Correlation Energy    =      -1.2288636181073374 [Eh]
	 SCS Total Energy          =    -642.8956731336534176 [Eh]
	-----------------------------------------------------------

  Dipole Moment: [D]
     X:    -0.4034      Y:    -2.8838      Z:    -1.1588     Total:     3.1340

*** Psi4 exiting successfully. Buy a developer a beer!
