                               Psi4 1.3.2 release

  ==> Input File <==

--------------------------------------------------------------------------
#psi4
#
memory 32 gb

molecule  {
-1 1
  P        0.0000210     0.1146100     0.1301380
  O       -0.0426821    -0.8470489     1.2999687
  O        1.2994240    -0.3312660    -0.8383880
  O        0.0002880     1.6062300     0.2570730
  O       -1.2993950    -0.3307730    -0.8386000
  H        1.6095220    -1.1501010    -0.4166970
  H       -1.6099810    -1.1493890    -0.4168420
units angstrom
no_reorient  #important for SAPT in psi4, default
symmetry c1  #important for SAPT in psi4, default
}

set PROPERTIES_ORIGIN ["COM"]
properties('MP2/aug-cc-pvtz', properties = ['dipole'])
--------------------------------------------------------------------------

    Molecular point group: c1
  Charge       = -1
  Multiplicity = 1
  Basis Set: AUG-CC-PVTZ
    Blend: AUG-CC-PVTZ
  Basis Set: (AUG-CC-PVTZ AUX)
    Blend: AUG-CC-PVTZ-JKFIT

    Orbital Energies [Eh]
    ---------------------

    Doubly Occupied:

       1A    -79.885686     2A    -20.405680     3A    -20.400105
       4A    -20.315686     5A    -20.306184     6A     -7.401055
       7A     -5.299727     8A     -5.299085     9A     -5.297701
      10A     -1.220537    11A     -1.170250    12A     -1.098244
      13A     -1.067783    14A     -0.600734    15A     -0.512972
      16A     -0.483764    17A     -0.439574    18A     -0.424708
      19A     -0.365192    20A     -0.351123    21A     -0.335679
      22A     -0.289116    23A     -0.269553    24A     -0.257619
      25A     -0.244115

  @DF-RHF Final Energy:  -641.67013966996774

   => Energetics <=

    Nuclear Repulsion Energy =            263.7287957252215733
    One-Electron Energy =               -1423.3141260366626284
    Two-Electron Energy =                 517.9151906414733730
    Total Energy =                       -641.6701396699677389
  Basis Set: (AUG-CC-PVTZ AUX)
    Blend: AUG-CC-PVTZ-RI
    Molecular point group: c1

    Geometry (in Angstrom), charge = -1, multiplicity = 1:

       Center              X                  Y                   Z               Mass
    ------------   -----------------  -----------------  -----------------  -----------------
         P            0.007007127600     0.085877138489     0.117017619090    30.973761998420
         O           -0.035695972400    -0.875781761511     1.286848319090    15.994914619570
         O            1.306410127600    -0.359998861511    -0.851508380910    15.994914619570
         O            0.007274127600     1.577497138489     0.243952619090    15.994914619570
         O           -1.292408872400    -0.359505861511    -0.851720380910    15.994914619570
         H            1.616508127600    -1.178833861511    -0.429817380910     1.007825032230
         H           -1.602994872400    -1.178121861511    -0.429962380910     1.007825032230

  Basis Set: AUG-CC-PVTZ
    Blend: AUG-CC-PVTZ
  Basis Set: (AUG-CC-PVTZ AUX)
    Blend: AUG-CC-PVTZ-JKFIT
	 Reference Energy          =    -641.6701396699677389 [Eh]
	 Singles Energy            =      -0.0000000000000000 [Eh]
	 Same-Spin Energy          =      -0.3327029375980655 [Eh]
	 Opposite-Spin Energy      =      -0.9311664590846851 [Eh]
	 Correlation Energy        =      -1.2638693966827506 [Eh]
	 Total Energy              =    -642.9340090666504466 [Eh]

	 ================> DF-SCS-MP2 Energies <==================
	-----------------------------------------------------------
	 SCS Same-Spin Scale       =       0.3333333333333333 [-]
	 SCS Opposite-Spin Scale   =       1.2000000000000000 [-]
	 SCS Same-Spin Energy      =      -0.1109009791993552 [Eh]
	 SCS Opposite-Spin Energy  =      -1.1173997509016220 [Eh]
	 SCS Correlation Energy    =      -1.2283007301009772 [Eh]
	 SCS Total Energy          =    -642.8984404000686936 [Eh]
	-----------------------------------------------------------

  Dipole Moment: [D]
     X:     0.1306      Y:    -3.1905      Z:    -1.3962     Total:     3.4851

*** Psi4 exiting successfully. Buy a developer a beer!
