                               Psi4 1.4a3.dev225

  ==> Input File <==

--------------------------------------------------------------------------
#psi4
#
memory 32 gb

molecule  {
-1 1
  P        0.0000270     0.0927860     0.1323680
  O       -0.0003570    -0.8146400     1.3390660
  O        1.3332299    -0.3341412    -0.8527774
  O        0.0005500     1.5933250     0.2166250
  O       -1.2944150    -0.3207910    -0.8241400
  H        1.5427260    -1.2413540    -0.6229670
  H       -1.5436530    -1.2402210    -0.6229420
units angstrom
no_reorient  #important for SAPT in psi4, default
symmetry c1  #important for SAPT in psi4, default
}

set PROPERTIES_ORIGIN ["COM"]
properties('MP2/aug-cc-pvtz', properties = ['dipole'])
--------------------------------------------------------------------------

    Molecular point group: c1
  Charge       = -1
  Multiplicity = 1
  Basis Set: AUG-CC-PVTZ
    Blend: AUG-CC-PVTZ
  Basis Set: (AUG-CC-PVTZ AUX)
    Blend: AUG-CC-PVTZ-JKFIT

    Orbital Energies [Eh]
    ---------------------

    Doubly Occupied:

       1A    -79.886205     2A    -20.408989     3A    -20.401984
       4A    -20.315723     5A    -20.300955     6A     -7.401082
       7A     -5.299757     8A     -5.299135     9A     -5.297711
      10A     -1.219920    11A     -1.170751    12A     -1.098135
      13A     -1.063035    14A     -0.606119    15A     -0.527759
      16A     -0.479544    17A     -0.428668    18A     -0.423830
      19A     -0.364983    20A     -0.350452    21A     -0.335188
      22A     -0.287201    23A     -0.268886    24A     -0.254766
      25A     -0.240486

  @DF-RHF Final Energy:  -641.66866577195469

   => Energetics <=

    Nuclear Repulsion Energy =            262.8576501198311917
    One-Electron Energy =               -1421.5901057739065436
    Two-Electron Energy =                 517.0637898821205454
    Total Energy =                       -641.6686657719546929
  Basis Set: (AUG-CC-PVTZ AUX)
    Blend: AUG-CC-PVTZ-RI
    Molecular point group: c1

    Geometry (in Angstrom), charge = -1, multiplicity = 1:

       Center              X                  Y                   Z               Mass
    ------------   -----------------  -----------------  -----------------  -----------------
         P           -0.006406289133     0.068527197340     0.123032335262    30.973761998420
         O           -0.006790289133    -0.838898802660     1.329730335262    15.994914619570
         O            1.326796610867    -0.358400002660    -0.862113064738    15.994914619570
         O           -0.005883289133     1.569066197340     0.207289335262    15.994914619570
         O           -1.300848289133    -0.345049802660    -0.833475664738    15.994914619570
         H            1.536292710867    -1.265612802660    -0.632302664738     1.007825032230
         H           -1.550086289133    -1.264479802660    -0.632277664738     1.007825032230

  Basis Set: AUG-CC-PVTZ
    Blend: AUG-CC-PVTZ
  Basis Set: (AUG-CC-PVTZ AUX)
    Blend: AUG-CC-PVTZ-JKFIT
	 Reference Energy          =    -641.6686657719546929 [Eh]
	 Singles Energy            =      -0.0000000000000000 [Eh]
	 Same-Spin Energy          =      -0.3324650322633473 [Eh]
	 Opposite-Spin Energy      =      -0.9310979035373902 [Eh]
	 Correlation Energy        =      -1.2635629358007374 [Eh]
	 Total Energy              =    -642.9322287077554847 [Eh]

	 ================> DF-SCS-MP2 Energies <==================
	-----------------------------------------------------------
	 SCS Same-Spin Scale       =       0.3333333333333333 [-]
	 SCS Opposite-Spin Scale   =       1.2000000000000000 [-]
	 SCS Same-Spin Energy      =      -0.1108216774211158 [Eh]
	 SCS Opposite-Spin Energy  =      -1.1173174842448681 [Eh]
	 SCS Correlation Energy    =      -1.2281391616659838 [Eh]
	 SCS Total Energy          =    -642.8968049336207287 [Eh]
	-----------------------------------------------------------

  Dipole Moment: [D]
     X:    -0.2504      Y:    -3.7312      Z:    -1.9055     Total:     4.1971

*** Psi4 exiting successfully. Buy a developer a beer!
