                               Psi4 1.3.2 release

  ==> Input File <==

--------------------------------------------------------------------------
#psi4
#
memory 32 gb

molecule  {
0 1
  S        1.0055894     0.1595612    -0.4175470
  O        1.4426300    -1.2834400    -1.0972280
  O        1.4426290     1.2834490    -1.0972210
  C        1.7922650    -0.0000010     1.1894320
  C       -0.6626530     0.0000010    -0.1634910
  C        3.3143010    -0.0000060     1.1103310
  C       -1.3293790     1.2205490    -0.0344210
  C       -1.3293780    -1.2205490    -0.0344260
  C       -2.6989260     1.2120350     0.2329170
  C       -2.6989250    -1.2120380     0.2329110
  C       -3.3803590    -0.0000020     0.3738520
  H        1.4045370     0.8911630     1.6920120
  H        1.4045310    -0.8911640     1.6920110
  H        3.7325860    -0.0000050     2.1196780
  H        3.6690290    -0.8877700     0.5832550
  H        3.6690340     0.8877530     0.5832510
  H       -0.7855660     2.1508460    -0.1756550
  H       -0.7855630    -2.1508450    -0.1756650
  H       -3.2357400     2.1525280     0.3278780
  H       -3.2357370    -2.1525330     0.3278690
  H       -4.4476770    -0.0000030     0.5806570
units angstrom
no_reorient  #important for SAPT in psi4, default
symmetry c1  #important for SAPT in psi4, default
}

set PROPERTIES_ORIGIN ["COM"]
properties('MP2/aug-cc-pvtz', properties = ['dipole'])
--------------------------------------------------------------------------

    Molecular point group: c1
  Charge       = 0
  Multiplicity = 1
  Basis Set: AUG-CC-PVTZ
    Blend: AUG-CC-PVTZ
  Basis Set: (AUG-CC-PVTZ AUX)
    Blend: AUG-CC-PVTZ-JKFIT

    Orbital Energies [Eh]
    ---------------------

    Doubly Occupied:

       1A    -92.167619     2A    -20.558604     3A    -20.500048
       4A    -11.283961     5A    -11.278919     6A    -11.278580
       7A    -11.278060     8A    -11.275316     9A    -11.266504
      10A    -11.266393    11A    -11.235646    12A     -9.141671
      13A     -6.826224    14A     -6.825463    15A     -6.824861
      16A     -1.462257    17A     -1.246040    18A     -1.189874
      19A     -1.090158    20A     -1.061027    21A     -1.049441
      22A     -0.944922    23A     -0.873801    24A     -0.862394
      25A     -0.798833    26A     -0.739540    27A     -0.693238
      28A     -0.673701    29A     -0.664414    30A     -0.647329
      31A     -0.642953    32A     -0.621028    33A     -0.604476
      34A     -0.573979    35A     -0.553006    36A     -0.546624
      37A     -0.533365    38A     -0.529785    39A     -0.523031
      40A     -0.487663    41A     -0.459032    42A     -0.420196
      43A     -0.410378    44A     -0.377373    45A     -0.367593

  @DF-RHF Final Energy:  -856.10851523369524

   => Energetics <=

    Nuclear Repulsion Energy =            729.0895804326154348
    One-Electron Energy =               -2621.0855475678440598
    Two-Electron Energy =                1035.8874519015332680
    Total Energy =                       -856.1085152336952433
  Basis Set: (AUG-CC-PVTZ AUX)
    Blend: AUG-CC-PVTZ-RI
    Molecular point group: c1

    Geometry (in Angstrom), charge = 0, multiplicity = 1:

       Center              X                  Y                   Z               Mass
    ------------   -----------------  -----------------  -----------------  -----------------
         S            1.030384099290     0.129559557797    -0.382554115241    31.972071174400
         O            1.467424699290    -1.313441642203    -1.062235115241    15.994914619570
         O            1.467423699290     1.253447357797    -1.062228115241    15.994914619570
         C            1.817059699290    -0.030002642203     1.224424884759    12.000000000000
         C           -0.637858300710    -0.030000642203    -0.128498115241    12.000000000000
         C            3.339095699290    -0.030007642203     1.145323884759    12.000000000000
         C           -1.304584300710     1.190547357797     0.000571884759    12.000000000000
         C           -1.304583300710    -1.250550642203     0.000566884759    12.000000000000
         C           -2.674131300710     1.182033357797     0.267909884759    12.000000000000
         C           -2.674130300710    -1.242039642203     0.267903884759    12.000000000000
         C           -3.355564300710    -0.030003642203     0.408844884759    12.000000000000
         H            1.429331699290     0.861161357797     1.727004884759     1.007825032230
         H            1.429325699290    -0.921165642203     1.727003884759     1.007825032230
         H            3.757380699290    -0.030006642203     2.154670884759     1.007825032230
         H            3.693823699290    -0.917771642203     0.618247884759     1.007825032230
         H            3.693828699290     0.857751357797     0.618243884759     1.007825032230
         H           -0.760771300710     2.120844357797    -0.140662115241     1.007825032230
         H           -0.760768300710    -2.180846642203    -0.140672115241     1.007825032230
         H           -3.210945300710     2.122526357797     0.362870884759     1.007825032230
         H           -3.210942300710    -2.182534642203     0.362861884759     1.007825032230
         H           -4.422882300710    -0.030004642203     0.615649884759     1.007825032230

  Basis Set: AUG-CC-PVTZ
    Blend: AUG-CC-PVTZ
  Basis Set: (AUG-CC-PVTZ AUX)
    Blend: AUG-CC-PVTZ-JKFIT
	 Reference Energy          =    -856.1085152336952433 [Eh]
	 Singles Energy            =      -0.0000000000000000 [Eh]
	 Same-Spin Energy          =      -0.5498340149300209 [Eh]
	 Opposite-Spin Energy      =      -1.6776560618001899 [Eh]
	 Correlation Energy        =      -2.2274900767302110 [Eh]
	 Total Energy              =    -858.3360053104254348 [Eh]

	 ================> DF-SCS-MP2 Energies <==================
	-----------------------------------------------------------
	 SCS Same-Spin Scale       =       0.3333333333333333 [-]
	 SCS Opposite-Spin Scale   =       1.2000000000000000 [-]
	 SCS Same-Spin Energy      =      -0.1832780049766736 [Eh]
	 SCS Opposite-Spin Energy  =      -2.0131872741602277 [Eh]
	 SCS Correlation Energy    =      -2.1964652791369015 [Eh]
	 SCS Total Energy          =    -858.3049805128321168 [Eh]
	-----------------------------------------------------------

  Dipole Moment: [D]
     X:    -3.6527      Y:     1.2513      Z:     4.5876     Total:     5.9961

*** Psi4 exiting successfully. Buy a developer a beer!
