                               Psi4 1.3.2 release

  ==> Input File <==

--------------------------------------------------------------------------
#psi4
#
memory 32 gb

molecule  {
0 1
  S        1.1219089     0.0000019    -0.4770981
  O        1.4426300    -1.2834400    -1.0972280
  O        1.4426290     1.2834490    -1.0972210
  C        1.7922650    -0.0000010     1.1894320
  C       -0.6626530     0.0000010    -0.1634910
  C        3.3143010    -0.0000060     1.1103310
  C       -1.3293790     1.2205490    -0.0344210
  C       -1.3293780    -1.2205490    -0.0344260
  C       -2.6989260     1.2120350     0.2329170
  C       -2.6989250    -1.2120380     0.2329110
  C       -3.3803590    -0.0000020     0.3738520
  H        1.4045370     0.8911630     1.6920120
  H        1.4045310    -0.8911640     1.6920110
  H        3.7325860    -0.0000050     2.1196780
  H        3.6690290    -0.8877700     0.5832550
  H        3.6690340     0.8877530     0.5832510
  H       -0.7855660     2.1508460    -0.1756550
  H       -0.7855630    -2.1508450    -0.1756650
  H       -3.2357400     2.1525280     0.3278780
  H       -3.2357370    -2.1525330     0.3278690
  H       -4.4476770    -0.0000030     0.5806570
units angstrom
no_reorient  #important for SAPT in psi4, default
symmetry c1  #important for SAPT in psi4, default
}

set PROPERTIES_ORIGIN ["COM"]
properties('MP2/aug-cc-pvtz', properties = ['dipole'])
--------------------------------------------------------------------------

    Molecular point group: c1
  Charge       = 0
  Multiplicity = 1
  Basis Set: AUG-CC-PVTZ
    Blend: AUG-CC-PVTZ
  Basis Set: (AUG-CC-PVTZ AUX)
    Blend: AUG-CC-PVTZ-JKFIT

    Orbital Energies [Eh]
    ---------------------

    Doubly Occupied:

       1A    -92.178283     2A    -20.543108     3A    -20.543089
       4A    -11.278207     5A    -11.277856     6A    -11.265895
       7A    -11.265822     8A    -11.263498     9A    -11.258183
      10A    -11.258040    11A    -11.238515    12A     -9.147713
      13A     -6.832272    14A     -6.831821    15A     -6.831788
      16A     -1.439886    17A     -1.332410    18A     -1.177810
      19A     -1.084913    20A     -1.047170    21A     -1.039569
      22A     -0.932676    23A     -0.858147    24A     -0.851323
      25A     -0.795492    26A     -0.734287    27A     -0.686235
      28A     -0.667541    29A     -0.657712    30A     -0.647266
      31A     -0.636237    32A     -0.615280    33A     -0.612091
      34A     -0.572299    35A     -0.550878    36A     -0.542630
      37A     -0.527772    38A     -0.523561    39A     -0.519323
      40A     -0.495955    41A     -0.484858    42A     -0.468574
      43A     -0.429909    44A     -0.366007    45A     -0.359035

  @DF-RHF Final Energy:  -856.15802698488005

   => Energetics <=

    Nuclear Repulsion Energy =            727.6874635822071014
    One-Electron Energy =               -2618.3491091060714098
    Two-Electron Energy =                1034.5036185389842558
    Total Energy =                       -856.1580269848800526
  Basis Set: (AUG-CC-PVTZ AUX)
    Blend: AUG-CC-PVTZ-RI
    Molecular point group: c1

    Geometry (in Angstrom), charge = 0, multiplicity = 1:

       Center              X                  Y                   Z               Mass
    ------------   -----------------  -----------------  -----------------  -----------------
         S            1.124832439350     0.000001650257    -0.430908024463    31.972071174400
         O            1.445553539350    -1.283440249743    -1.051037924463    15.994914619570
         O            1.445552539350     1.283448750257    -1.051030924463    15.994914619570
         C            1.795188539350    -0.000001249743     1.235622075537    12.000000000000
         C           -0.659729460650     0.000000750257    -0.117300924463    12.000000000000
         C            3.317224539350    -0.000006249743     1.156521075537    12.000000000000
         C           -1.326455460650     1.220548750257     0.011769075537    12.000000000000
         C           -1.326454460650    -1.220549249743     0.011764075537    12.000000000000
         C           -2.696002460650     1.212034750257     0.279107075537    12.000000000000
         C           -2.696001460650    -1.212038249743     0.279101075537    12.000000000000
         C           -3.377435460650    -0.000002249743     0.420042075537    12.000000000000
         H            1.407460539350     0.891162750257     1.738202075537     1.007825032230
         H            1.407454539350    -0.891164249743     1.738201075537     1.007825032230
         H            3.735509539350    -0.000005249743     2.165868075537     1.007825032230
         H            3.671952539350    -0.887770249743     0.629445075537     1.007825032230
         H            3.671957539350     0.887752750257     0.629441075537     1.007825032230
         H           -0.782642460650     2.150845750257    -0.129464924463     1.007825032230
         H           -0.782639460650    -2.150845249743    -0.129474924463     1.007825032230
         H           -3.232816460650     2.152527750257     0.374068075537     1.007825032230
         H           -3.232813460650    -2.152533249743     0.374059075537     1.007825032230
         H           -4.444753460650    -0.000003249743     0.626847075537     1.007825032230

  Basis Set: AUG-CC-PVTZ
    Blend: AUG-CC-PVTZ
  Basis Set: (AUG-CC-PVTZ AUX)
    Blend: AUG-CC-PVTZ-JKFIT
	 Reference Energy          =    -856.1580269848800526 [Eh]
	 Singles Energy            =      -0.0000000000000000 [Eh]
	 Same-Spin Energy          =      -0.5486096429598348 [Eh]
	 Opposite-Spin Energy      =      -1.6746711203441496 [Eh]
	 Correlation Energy        =      -2.2232807633039844 [Eh]
	 Total Energy              =    -858.3813077481839855 [Eh]

	 ================> DF-SCS-MP2 Energies <==================
	-----------------------------------------------------------
	 SCS Same-Spin Scale       =       0.3333333333333333 [-]
	 SCS Opposite-Spin Scale   =       1.2000000000000000 [-]
	 SCS Same-Spin Energy      =      -0.1828698809866116 [Eh]
	 SCS Opposite-Spin Energy  =      -2.0096053444129796 [Eh]
	 SCS Correlation Energy    =      -2.1924752253995914 [Eh]
	 SCS Total Energy          =    -858.3505022102796147 [Eh]
	-----------------------------------------------------------

  Dipole Moment: [D]
     X:    -2.3436      Y:    -0.0000      Z:     4.0270     Total:     4.6593

*** Psi4 exiting successfully. Buy a developer a beer!
