                               Psi4 1.3.2 release

  ==> Input File <==

--------------------------------------------------------------------------
#psi4
#
memory 32 gb

molecule  {
0 1
  S        1.0641562     0.0000021    -0.4526879
  O        1.4426300    -1.2834400    -1.0972280
  O        1.4426290     1.2834490    -1.0972210
  C        1.7922650    -0.0000010     1.1894320
  C       -0.6626530     0.0000010    -0.1634910
  C        3.3143010    -0.0000060     1.1103310
  C       -1.3293790     1.2205490    -0.0344210
  C       -1.3293780    -1.2205490    -0.0344260
  C       -2.6989260     1.2120350     0.2329170
  C       -2.6989250    -1.2120380     0.2329110
  C       -3.3803590    -0.0000020     0.3738520
  H        1.4045370     0.8911630     1.6920120
  H        1.4045310    -0.8911640     1.6920110
  H        3.7325860    -0.0000050     2.1196780
  H        3.6690290    -0.8877700     0.5832550
  H        3.6690340     0.8877530     0.5832510
  H       -0.7855660     2.1508460    -0.1756550
  H       -0.7855630    -2.1508450    -0.1756650
  H       -3.2357400     2.1525280     0.3278780
  H       -3.2357370    -2.1525330     0.3278690
  H       -4.4476770    -0.0000030     0.5806570
units angstrom
no_reorient  #important for SAPT in psi4, default
symmetry c1  #important for SAPT in psi4, default
}

set PROPERTIES_ORIGIN ["COM"]
properties('MP2/aug-cc-pvtz', properties = ['dipole'])
--------------------------------------------------------------------------

    Molecular point group: c1
  Charge       = 0
  Multiplicity = 1
  Basis Set: AUG-CC-PVTZ
    Blend: AUG-CC-PVTZ
  Basis Set: (AUG-CC-PVTZ AUX)
    Blend: AUG-CC-PVTZ-JKFIT

    Orbital Energies [Eh]
    ---------------------

    Doubly Occupied:

       1A    -92.176608     2A    -20.536559     3A    -20.536540
       4A    -11.281391     5A    -11.277541     6A    -11.272428
       7A    -11.272333     8A    -11.269585     9A    -11.262424
      10A    -11.262316    11A    -11.236876    12A     -9.146489
      13A     -6.831034    14A     -6.830577    15A     -6.830298
      16A     -1.422224    17A     -1.312465    18A     -1.184923
      19A     -1.086240    20A     -1.055084    21A     -1.044881
      22A     -0.938307    23A     -0.865747    24A     -0.857374
      25A     -0.796554    26A     -0.735722    27A     -0.686454
      28A     -0.668325    29A     -0.652577    30A     -0.649577
      31A     -0.637906    32A     -0.616809    33A     -0.604867
      34A     -0.572696    35A     -0.547768    36A     -0.543128
      37A     -0.527705    38A     -0.525873    39A     -0.523158
      40A     -0.484170    41A     -0.480772    42A     -0.456174
      43A     -0.433030    44A     -0.372584    45A     -0.363600

  @DF-RHF Final Energy:  -856.15516953786698

   => Energetics <=

    Nuclear Repulsion Energy =            728.2645118881001736
    One-Electron Energy =               -2619.4999868999952923
    Two-Electron Energy =                1035.0803054740281368
    Total Energy =                       -856.1551695378670956
  Basis Set: (AUG-CC-PVTZ AUX)
    Blend: AUG-CC-PVTZ-RI
    Molecular point group: c1

    Geometry (in Angstrom), charge = 0, multiplicity = 1:

       Center              X                  Y                   Z               Mass
    ------------   -----------------  -----------------  -----------------  -----------------
         S            1.077938783093     0.000001812651    -0.411087591341    31.972071174400
         O            1.456412583093    -1.283440287349    -1.055627691341    15.994914619570
         O            1.456411583093     1.283448712651    -1.055620691341    15.994914619570
         C            1.806047583093    -0.000001287349     1.231032308659    12.000000000000
         C           -0.648870416907     0.000000712651    -0.121890691341    12.000000000000
         C            3.328083583093    -0.000006287349     1.151931308659    12.000000000000
         C           -1.315596416907     1.220548712651     0.007179308659    12.000000000000
         C           -1.315595416907    -1.220549287349     0.007174308659    12.000000000000
         C           -2.685143416907     1.212034712651     0.274517308659    12.000000000000
         C           -2.685142416907    -1.212038287349     0.274511308659    12.000000000000
         C           -3.366576416907    -0.000002287349     0.415452308659    12.000000000000
         H            1.418319583093     0.891162712651     1.733612308659     1.007825032230
         H            1.418313583093    -0.891164287349     1.733611308659     1.007825032230
         H            3.746368583093    -0.000005287349     2.161278308659     1.007825032230
         H            3.682811583093    -0.887770287349     0.624855308659     1.007825032230
         H            3.682816583093     0.887752712651     0.624851308659     1.007825032230
         H           -0.771783416907     2.150845712651    -0.134054691341     1.007825032230
         H           -0.771780416907    -2.150845287349    -0.134064691341     1.007825032230
         H           -3.221957416907     2.152527712651     0.369478308659     1.007825032230
         H           -3.221954416907    -2.152533287349     0.369469308659     1.007825032230
         H           -4.433894416907    -0.000003287349     0.622257308659     1.007825032230

  Basis Set: AUG-CC-PVTZ
    Blend: AUG-CC-PVTZ
  Basis Set: (AUG-CC-PVTZ AUX)
    Blend: AUG-CC-PVTZ-JKFIT
	 Reference Energy          =    -856.1551695378669820 [Eh]
	 Singles Energy            =      -0.0000000000000000 [Eh]
	 Same-Spin Energy          =      -0.5493714724122811 [Eh]
	 Opposite-Spin Energy      =      -1.6758701122664814 [Eh]
	 Correlation Energy        =      -2.2252415846787628 [Eh]
	 Total Energy              =    -858.3804111225457518 [Eh]

	 ================> DF-SCS-MP2 Energies <==================
	-----------------------------------------------------------
	 SCS Same-Spin Scale       =       0.3333333333333333 [-]
	 SCS Opposite-Spin Scale   =       1.2000000000000000 [-]
	 SCS Same-Spin Energy      =      -0.1831238241374270 [Eh]
	 SCS Opposite-Spin Energy  =      -2.0110441347197776 [Eh]
	 SCS Correlation Energy    =      -2.1941679588572045 [Eh]
	 SCS Total Energy          =    -858.3493374967241607 [Eh]
	-----------------------------------------------------------

  Dipole Moment: [D]
     X:    -2.9884      Y:    -0.0000      Z:     4.2508     Total:     5.1961

*** Psi4 exiting successfully. Buy a developer a beer!
