                               Psi4 1.3.2 release

  ==> Input File <==

--------------------------------------------------------------------------
#psi4
#
memory 32 gb

molecule  {
0 1
  S        1.2697074     0.0000014    -0.5291819
  O        1.4426300    -1.2834400    -1.0972280
  O        1.4426290     1.2834490    -1.0972210
  C        1.7922650    -0.0000010     1.1894320
  C       -0.6626530     0.0000010    -0.1634910
  C        3.3143010    -0.0000060     1.1103310
  C       -1.3293790     1.2205490    -0.0344210
  C       -1.3293780    -1.2205490    -0.0344260
  C       -2.6989260     1.2120350     0.2329170
  C       -2.6989250    -1.2120380     0.2329110
  C       -3.3803590    -0.0000020     0.3738520
  H        1.4045370     0.8911630     1.6920120
  H        1.4045310    -0.8911640     1.6920110
  H        3.7325860    -0.0000050     2.1196780
  H        3.6690290    -0.8877700     0.5832550
  H        3.6690340     0.8877530     0.5832510
  H       -0.7855660     2.1508460    -0.1756550
  H       -0.7855630    -2.1508450    -0.1756650
  H       -3.2357400     2.1525280     0.3278780
  H       -3.2357370    -2.1525330     0.3278690
  H       -4.4476770    -0.0000030     0.5806570
units angstrom
no_reorient  #important for SAPT in psi4, default
symmetry c1  #important for SAPT in psi4, default
}

set PROPERTIES_ORIGIN ["COM"]
properties('MP2/aug-cc-pvtz', properties = ['dipole'])
--------------------------------------------------------------------------

    Molecular point group: c1
  Charge       = 0
  Multiplicity = 1
  Basis Set: AUG-CC-PVTZ
    Blend: AUG-CC-PVTZ
  Basis Set: (AUG-CC-PVTZ AUX)
    Blend: AUG-CC-PVTZ-JKFIT

    Orbital Energies [Eh]
    ---------------------

    Doubly Occupied:

       1A    -92.183150     2A    -20.560476     3A    -20.560456
       4A    -11.282153     5A    -11.263365     6A    -11.249316
       7A    -11.249296     8A    -11.248513     9A    -11.246793
      10A    -11.246402    11A    -11.244142    12A     -9.152942
      13A     -6.837545    14A     -6.837496    15A     -6.836755
      16A     -1.479396    17A     -1.376396    18A     -1.160622
      19A     -1.089995    20A     -1.025741    21A     -1.024683
      22A     -0.923801    23A     -0.838127    24A     -0.835982
      25A     -0.797797    26A     -0.728557    27A     -0.694556
      28A     -0.676201    29A     -0.664720    30A     -0.640794
      31A     -0.629904    32A     -0.629166    33A     -0.599819
      34A     -0.577745    35A     -0.558614    36A     -0.538456
      37A     -0.536644    38A     -0.523068    39A     -0.511621
      40A     -0.506054    41A     -0.496329    42A     -0.494367
      43A     -0.404776    44A     -0.348631    45A     -0.347028

  @DF-RHF Final Energy:  -856.12989996710894

   => Energetics <=

    Nuclear Repulsion Energy =            725.9991670023736106
    One-Electron Energy =               -2614.9413575933813263
    Two-Electron Energy =                1032.8122906238986616
    Total Energy =                       -856.1298999671089405
  Basis Set: (AUG-CC-PVTZ AUX)
    Blend: AUG-CC-PVTZ-RI
    Molecular point group: c1

    Geometry (in Angstrom), charge = 0, multiplicity = 1:

       Center              X                  Y                   Z               Mass
    ------------   -----------------  -----------------  -----------------  -----------------
         S            1.244840890112     0.000001244270    -0.473198684705    31.972071174400
         O            1.417763490112    -1.283440155730    -1.041244784705    15.994914619570
         O            1.417762490112     1.283448844270    -1.041237784705    15.994914619570
         C            1.767398490112    -0.000001155730     1.245415215295    12.000000000000
         C           -0.687519509888     0.000000844270    -0.107507784705    12.000000000000
         C            3.289434490112    -0.000006155730     1.166314215295    12.000000000000
         C           -1.354245509888     1.220548844270     0.021562215295    12.000000000000
         C           -1.354244509888    -1.220549155730     0.021557215295    12.000000000000
         C           -2.723792509888     1.212034844270     0.288900215295    12.000000000000
         C           -2.723791509888    -1.212038155730     0.288894215295    12.000000000000
         C           -3.405225509888    -0.000002155730     0.429835215295    12.000000000000
         H            1.379670490112     0.891162844270     1.747995215295     1.007825032230
         H            1.379664490112    -0.891164155730     1.747994215295     1.007825032230
         H            3.707719490112    -0.000005155730     2.175661215295     1.007825032230
         H            3.644162490112    -0.887770155730     0.639238215295     1.007825032230
         H            3.644167490112     0.887752844270     0.639234215295     1.007825032230
         H           -0.810432509888     2.150845844270    -0.119671784705     1.007825032230
         H           -0.810429509888    -2.150845155730    -0.119681784705     1.007825032230
         H           -3.260606509888     2.152527844270     0.383861215295     1.007825032230
         H           -3.260603509888    -2.152533155730     0.383852215295     1.007825032230
         H           -4.472543509888    -0.000003155730     0.636640215295     1.007825032230

  Basis Set: AUG-CC-PVTZ
    Blend: AUG-CC-PVTZ
  Basis Set: (AUG-CC-PVTZ AUX)
    Blend: AUG-CC-PVTZ-JKFIT
	 Reference Energy          =    -856.1298999671089405 [Eh]
	 Singles Energy            =      -0.0000000000000000 [Eh]
	 Same-Spin Energy          =      -0.5484103817843818 [Eh]
	 Opposite-Spin Energy      =      -1.6751686985110741 [Eh]
	 Correlation Energy        =      -2.2235790802954560 [Eh]
	 Total Energy              =    -858.3534790474044485 [Eh]

	 ================> DF-SCS-MP2 Energies <==================
	-----------------------------------------------------------
	 SCS Same-Spin Scale       =       0.3333333333333333 [-]
	 SCS Opposite-Spin Scale   =       1.2000000000000000 [-]
	 SCS Same-Spin Energy      =      -0.1828034605947939 [Eh]
	 SCS Opposite-Spin Energy  =      -2.0102024382132888 [Eh]
	 SCS Correlation Energy    =      -2.1930058988080829 [Eh]
	 SCS Total Energy          =    -858.3229058659170505 [Eh]
	-----------------------------------------------------------

  Dipole Moment: [D]
     X:    -0.6455      Y:    -0.0000      Z:     3.5393     Total:     3.5977

*** Psi4 exiting successfully. Buy a developer a beer!
