                               Psi4 1.3.2 release

  ==> Input File <==

--------------------------------------------------------------------------
#psi4
#
memory 32 gb

molecule  {
0 1
  S        1.0929260     0.0000020    -0.4651450
  O        1.4426300    -1.2834400    -1.0972280
  O        1.4426290     1.2834490    -1.0972210
  C        1.7144007    -0.0000007     1.0052116
  C       -0.6626530     0.0000010    -0.1634910
  C        3.3143010    -0.0000060     1.1103310
  C       -1.3293790     1.2205490    -0.0344210
  C       -1.3293780    -1.2205490    -0.0344260
  C       -2.6989260     1.2120350     0.2329170
  C       -2.6989250    -1.2120380     0.2329110
  C       -3.3803590    -0.0000020     0.3738520
  H        1.4045370     0.8911630     1.6920120
  H        1.4045310    -0.8911640     1.6920110
  H        3.7325860    -0.0000050     2.1196780
  H        3.6690290    -0.8877700     0.5832550
  H        3.6690340     0.8877530     0.5832510
  H       -0.7855660     2.1508460    -0.1756550
  H       -0.7855630    -2.1508450    -0.1756650
  H       -3.2357400     2.1525280     0.3278780
  H       -3.2357370    -2.1525330     0.3278690
  H       -4.4476770    -0.0000030     0.5806570
units angstrom
no_reorient  #important for SAPT in psi4, default
symmetry c1  #important for SAPT in psi4, default
}

set PROPERTIES_ORIGIN ["COM"]
properties('MP2/aug-cc-pvtz', properties = ['dipole'])
--------------------------------------------------------------------------

    Molecular point group: c1
  Charge       = 0
  Multiplicity = 1
  Basis Set: AUG-CC-PVTZ
    Blend: AUG-CC-PVTZ
  Basis Set: (AUG-CC-PVTZ AUX)
    Blend: AUG-CC-PVTZ-JKFIT

    Orbital Energies [Eh]
    ---------------------

    Doubly Occupied:

       1A    -92.176777     2A    -20.537551     3A    -20.537532
       4A    -11.279409     5A    -11.278166     6A    -11.267894
       7A    -11.267809     8A    -11.265415     9A    -11.259248
      10A    -11.259123    11A    -11.248320    12A     -9.149080
      13A     -6.834126    14A     -6.833293    15A     -6.832766
      16A     -1.438211    17A     -1.323054    18A     -1.180687
      19A     -1.101494    20A     -1.048257    21A     -1.041105
      22A     -0.950678    23A     -0.862742    24A     -0.853293
      25A     -0.789361    26A     -0.740587    27A     -0.693895
      28A     -0.666626    29A     -0.659066    30A     -0.642122
      31A     -0.637683    32A     -0.613354    33A     -0.601901
      34A     -0.577666    35A     -0.543226    36A     -0.536466
      37A     -0.522008    38A     -0.517123    39A     -0.509998
      40A     -0.488860    41A     -0.486432    42A     -0.455882
      43A     -0.448914    44A     -0.367562    45A     -0.360220

  @DF-RHF Final Energy:  -856.11865737355402

   => Energetics <=

    Nuclear Repulsion Energy =            732.8474466505050486
    One-Electron Energy =               -2628.5622372538450691
    Two-Electron Energy =                1039.5961332297861190
    Total Energy =                       -856.1186573735540151
  Basis Set: (AUG-CC-PVTZ AUX)
    Blend: AUG-CC-PVTZ-RI
    Molecular point group: c1

    Geometry (in Angstrom), charge = 0, multiplicity = 1:

       Center              X                  Y                   Z               Mass
    ------------   -----------------  -----------------  -----------------  -----------------
         S            1.106794101171     0.000001710282    -0.408201702779    31.972071174400
         O            1.456498101171    -1.283440289718    -1.040284702779    15.994914619570
         O            1.456497101171     1.283448710282    -1.040277702779    15.994914619570
         C            1.728268801171    -0.000000989718     1.062154897221    12.000000000000
         C           -0.648784898829     0.000000710282    -0.106547702779    12.000000000000
         C            3.328169101171    -0.000006289718     1.167274297221    12.000000000000
         C           -1.315510898829     1.220548710282     0.022522297221    12.000000000000
         C           -1.315509898829    -1.220549289718     0.022517297221    12.000000000000
         C           -2.685057898829     1.212034710282     0.289860297221    12.000000000000
         C           -2.685056898829    -1.212038289718     0.289854297221    12.000000000000
         C           -3.366490898829    -0.000002289718     0.430795297221    12.000000000000
         H            1.418405101171     0.891162710282     1.748955297221     1.007825032230
         H            1.418399101171    -0.891164289718     1.748954297221     1.007825032230
         H            3.746454101171    -0.000005289718     2.176621297221     1.007825032230
         H            3.682897101171    -0.887770289718     0.640198297221     1.007825032230
         H            3.682902101171     0.887752710282     0.640194297221     1.007825032230
         H           -0.771697898829     2.150845710282    -0.118711702779     1.007825032230
         H           -0.771694898829    -2.150845289718    -0.118721702779     1.007825032230
         H           -3.221871898829     2.152527710282     0.384821297221     1.007825032230
         H           -3.221868898829    -2.152533289718     0.384812297221     1.007825032230
         H           -4.433808898829    -0.000003289718     0.637600297221     1.007825032230

  Basis Set: AUG-CC-PVTZ
    Blend: AUG-CC-PVTZ
  Basis Set: (AUG-CC-PVTZ AUX)
    Blend: AUG-CC-PVTZ-JKFIT
	 Reference Energy          =    -856.1186573735540151 [Eh]
	 Singles Energy            =      -0.0000000000000000 [Eh]
	 Same-Spin Energy          =      -0.5508743314182940 [Eh]
	 Opposite-Spin Energy      =      -1.6775721827941681 [Eh]
	 Correlation Energy        =      -2.2284465142124619 [Eh]
	 Total Energy              =    -858.3471038877664796 [Eh]

	 ================> DF-SCS-MP2 Energies <==================
	-----------------------------------------------------------
	 SCS Same-Spin Scale       =       0.3333333333333333 [-]
	 SCS Opposite-Spin Scale   =       1.2000000000000000 [-]
	 SCS Same-Spin Energy      =      -0.1836247771394313 [Eh]
	 SCS Opposite-Spin Energy  =      -2.0130866193530017 [Eh]
	 SCS Correlation Energy    =      -2.1967113964924332 [Eh]
	 SCS Total Energy          =    -858.3153687700464616 [Eh]
	-----------------------------------------------------------

  Dipole Moment: [D]
     X:    -2.4385      Y:    -0.0000      Z:     4.4205     Total:     5.0485

*** Psi4 exiting successfully. Buy a developer a beer!
