                               Psi4 1.3.2 release

  ==> Input File <==

--------------------------------------------------------------------------
#psi4
#
memory 32 gb

molecule  {
0 1
  S        1.1879248    -0.1595572    -0.4946151
  O        1.4426300    -1.2834400    -1.0972280
  O        1.4426290     1.2834490    -1.0972210
  C        1.7922650    -0.0000010     1.1894320
  C       -0.6626530     0.0000010    -0.1634910
  C        3.3143010    -0.0000060     1.1103310
  C       -1.3293790     1.2205490    -0.0344210
  C       -1.3293780    -1.2205490    -0.0344260
  C       -2.6989260     1.2120350     0.2329170
  C       -2.6989250    -1.2120380     0.2329110
  C       -3.3803590    -0.0000020     0.3738520
  H        1.4045370     0.8911630     1.6920120
  H        1.4045310    -0.8911640     1.6920110
  H        3.7325860    -0.0000050     2.1196780
  H        3.6690290    -0.8877700     0.5832550
  H        3.6690340     0.8877530     0.5832510
  H       -0.7855660     2.1508460    -0.1756550
  H       -0.7855630    -2.1508450    -0.1756650
  H       -3.2357400     2.1525280     0.3278780
  H       -3.2357370    -2.1525330     0.3278690
  H       -4.4476770    -0.0000030     0.5806570
units angstrom
no_reorient  #important for SAPT in psi4, default
symmetry c1  #important for SAPT in psi4, default
}

set PROPERTIES_ORIGIN ["COM"]
properties('MP2/aug-cc-pvtz', properties = ['dipole'])
--------------------------------------------------------------------------

    Molecular point group: c1
  Charge       = 0
  Multiplicity = 1
  Basis Set: AUG-CC-PVTZ
    Blend: AUG-CC-PVTZ
  Basis Set: (AUG-CC-PVTZ AUX)
    Blend: AUG-CC-PVTZ-JKFIT

    Orbital Energies [Eh]
    ---------------------

    Doubly Occupied:

       1A    -92.171198     2A    -20.579519     3A    -20.518906
       4A    -11.279769     5A    -11.273174     6A    -11.258728
       7A    -11.257630     8A    -11.256414     9A    -11.253168
      10A    -11.252824    11A    -11.240957    12A     -9.145989
      13A     -6.831738    14A     -6.829466    15A     -6.828591
      16A     -1.535029    17A     -1.288861    18A     -1.169541
      19A     -1.086172    20A     -1.037866    21A     -1.032368
      22A     -0.928354    23A     -0.850912    24A     -0.843106
      25A     -0.797790    26A     -0.739379    27A     -0.705463
      28A     -0.679882    29A     -0.677348    30A     -0.642995
      31A     -0.636480    32A     -0.629887    33A     -0.605999
      34A     -0.582474    35A     -0.556860    36A     -0.550272
      37A     -0.530869    38A     -0.521020    39A     -0.514257
      40A     -0.493680    41A     -0.482029    42A     -0.446381
      43A     -0.411121    44A     -0.358061    45A     -0.353168

  @DF-RHF Final Energy:  -856.09664441020948

   => Energetics <=

    Nuclear Repulsion Energy =            727.4996968191087490
    One-Electron Energy =               -2617.8612967468629904
    Two-Electron Energy =                1034.2649555175448768
    Total Energy =                       -856.0966444102093647
  Basis Set: (AUG-CC-PVTZ AUX)
    Blend: AUG-CC-PVTZ-RI
    Molecular point group: c1

    Geometry (in Angstrom), charge = 0, multiplicity = 1:

       Center              X                  Y                   Z               Mass
    ------------   -----------------  -----------------  -----------------  -----------------
         S            1.178435594218    -0.129556094889    -0.445131362535    31.972071174400
         O            1.433140794218    -1.253438894889    -1.047744262535    15.994914619570
         O            1.433139794218     1.313450105111    -1.047737262535    15.994914619570
         C            1.782775794218     0.030000105111     1.238915737465    12.000000000000
         C           -0.672142205782     0.030002105111    -0.114007262535    12.000000000000
         C            3.304811794218     0.029995105111     1.159814737465    12.000000000000
         C           -1.338868205782     1.250550105111     0.015062737465    12.000000000000
         C           -1.338867205782    -1.190547894889     0.015057737465    12.000000000000
         C           -2.708415205782     1.242036105111     0.282400737465    12.000000000000
         C           -2.708414205782    -1.182036894889     0.282394737465    12.000000000000
         C           -3.389848205782     0.029999105111     0.423335737465    12.000000000000
         H            1.395047794218     0.921164105111     1.741495737465     1.007825032230
         H            1.395041794218    -0.861162894889     1.741494737465     1.007825032230
         H            3.723096794218     0.029996105111     2.169161737465     1.007825032230
         H            3.659539794218    -0.857768894889     0.632738737465     1.007825032230
         H            3.659544794218     0.917754105111     0.632734737465     1.007825032230
         H           -0.795055205782     2.180847105111    -0.126171262535     1.007825032230
         H           -0.795052205782    -2.120843894889    -0.126181262535     1.007825032230
         H           -3.245229205782     2.182529105111     0.377361737465     1.007825032230
         H           -3.245226205782    -2.122531894889     0.377352737465     1.007825032230
         H           -4.457166205782     0.029998105111     0.630140737465     1.007825032230

  Basis Set: AUG-CC-PVTZ
    Blend: AUG-CC-PVTZ
  Basis Set: (AUG-CC-PVTZ AUX)
    Blend: AUG-CC-PVTZ-JKFIT
	 Reference Energy          =    -856.0966444102094783 [Eh]
	 Singles Energy            =      -0.0000000000000000 [Eh]
	 Same-Spin Energy          =      -0.5473755014948792 [Eh]
	 Opposite-Spin Energy      =      -1.6735875505653826 [Eh]
	 Correlation Energy        =      -2.2209630520602617 [Eh]
	 Total Energy              =    -858.3176074622697342 [Eh]

	 ================> DF-SCS-MP2 Energies <==================
	-----------------------------------------------------------
	 SCS Same-Spin Scale       =       0.3333333333333333 [-]
	 SCS Opposite-Spin Scale   =       1.2000000000000000 [-]
	 SCS Same-Spin Energy      =      -0.1824585004982931 [Eh]
	 SCS Opposite-Spin Energy  =      -2.0083050606784592 [Eh]
	 SCS Correlation Energy    =      -2.1907635611767522 [Eh]
	 SCS Total Energy          =    -858.2874079713861875 [Eh]
	-----------------------------------------------------------

  Dipole Moment: [D]
     X:    -1.6197      Y:    -1.2358      Z:     3.8883     Total:     4.3897

*** Psi4 exiting successfully. Buy a developer a beer!
