                               Psi4 1.3.2 release

  ==> Input File <==

--------------------------------------------------------------------------
#psi4
#
memory 32 gb

molecule  {
0 1
  S        1.0929260     0.0000020    -0.4651450
  O        1.5152196    -1.3190444    -0.9659741
  O        1.4426290     1.2834490    -1.0972210
  C        1.7922650    -0.0000010     1.1894320
  C       -0.6626530     0.0000010    -0.1634910
  C        3.3143010    -0.0000060     1.1103310
  C       -1.3293790     1.2205490    -0.0344210
  C       -1.3293780    -1.2205490    -0.0344260
  C       -2.6989260     1.2120350     0.2329170
  C       -2.6989250    -1.2120380     0.2329110
  C       -3.3803590    -0.0000020     0.3738520
  H        1.4045370     0.8911630     1.6920120
  H        1.4045310    -0.8911640     1.6920110
  H        3.7325860    -0.0000050     2.1196780
  H        3.6690290    -0.8877700     0.5832550
  H        3.6690340     0.8877530     0.5832510
  H       -0.7855660     2.1508460    -0.1756550
  H       -0.7855630    -2.1508450    -0.1756650
  H       -3.2357400     2.1525280     0.3278780
  H       -3.2357370    -2.1525330     0.3278690
  H       -4.4476770    -0.0000030     0.5806570
units angstrom
no_reorient  #important for SAPT in psi4, default
symmetry c1  #important for SAPT in psi4, default
}

set PROPERTIES_ORIGIN ["COM"]
properties('MP2/aug-cc-pvtz', properties = ['dipole'])
--------------------------------------------------------------------------

    Molecular point group: c1
  Charge       = 0
  Multiplicity = 1
  Basis Set: AUG-CC-PVTZ
    Blend: AUG-CC-PVTZ
  Basis Set: (AUG-CC-PVTZ AUX)
    Blend: AUG-CC-PVTZ-JKFIT

    Orbital Energies [Eh]
    ---------------------

    Doubly Occupied:

       1A    -92.177813     2A    -20.544331     3A    -20.540099
       4A    -11.282861     5A    -11.271237     6A    -11.270943
       7A    -11.269957     8A    -11.268257     9A    -11.261835
      10A    -11.261645    11A    -11.232896    12A     -9.147363
      13A     -6.831895    14A     -6.831572    15A     -6.831240
      16A     -1.432185    17A     -1.327018    18A     -1.183141
      19A     -1.079720    20A     -1.051518    21A     -1.043903
      22A     -0.933034    23A     -0.861179    24A     -0.856043
      25A     -0.795978    26A     -0.735634    27A     -0.686083
      28A     -0.666749    29A     -0.655371    30A     -0.647028
      31A     -0.638399    32A     -0.616039    33A     -0.612089
      34A     -0.568937    35A     -0.545556    36A     -0.543590
      37A     -0.526013    38A     -0.524112    39A     -0.521095
      40A     -0.493241    41A     -0.482722    42A     -0.465431
      43A     -0.428940    44A     -0.371156    45A     -0.362874

  @DF-RHF Final Energy:  -856.15421055678792

   => Energetics <=

    Nuclear Repulsion Energy =            728.2916611801915678
    One-Electron Energy =               -2619.5343009482135130
    Two-Electron Energy =                1035.0884292112341427
    Total Energy =                       -856.1542105567878025
  Basis Set: (AUG-CC-PVTZ AUX)
    Blend: AUG-CC-PVTZ-RI
    Molecular point group: c1

    Geometry (in Angstrom), charge = 0, multiplicity = 1:

       Center              X                  Y                   Z               Mass
    ------------   -----------------  -----------------  -----------------  -----------------
         S            1.094470917233     0.003350877733    -0.433548891107    31.972071174400
         O            1.516764517233    -1.315695522267    -0.934377991107    15.994914619570
         O            1.444173917233     1.286797877733    -1.065624891107    15.994914619570
         C            1.793809917233     0.003347877733     1.221028108893    12.000000000000
         C           -0.661108082767     0.003349877733    -0.131894891107    12.000000000000
         C            3.315845917233     0.003342877733     1.141927108893    12.000000000000
         C           -1.327834082767     1.223897877733    -0.002824891107    12.000000000000
         C           -1.327833082767    -1.217200122267    -0.002829891107    12.000000000000
         C           -2.697381082767     1.215383877733     0.264513108893    12.000000000000
         C           -2.697380082767    -1.208689122267     0.264507108893    12.000000000000
         C           -3.378814082767     0.003346877733     0.405448108893    12.000000000000
         H            1.406081917233     0.894511877733     1.723608108893     1.007825032230
         H            1.406075917233    -0.887815122267     1.723607108893     1.007825032230
         H            3.734130917233     0.003343877733     2.151274108893     1.007825032230
         H            3.670573917233    -0.884421122267     0.614851108893     1.007825032230
         H            3.670578917233     0.891101877733     0.614847108893     1.007825032230
         H           -0.784021082767     2.154194877733    -0.144058891107     1.007825032230
         H           -0.784018082767    -2.147496122267    -0.144068891107     1.007825032230
         H           -3.234195082767     2.155876877733     0.359474108893     1.007825032230
         H           -3.234192082767    -2.149184122267     0.359465108893     1.007825032230
         H           -4.446132082767     0.003345877733     0.612253108893     1.007825032230

  Basis Set: AUG-CC-PVTZ
    Blend: AUG-CC-PVTZ
  Basis Set: (AUG-CC-PVTZ AUX)
    Blend: AUG-CC-PVTZ-JKFIT
	 Reference Energy          =    -856.1542105567879162 [Eh]
	 Singles Energy            =      -0.0000000000000000 [Eh]
	 Same-Spin Energy          =      -0.5492987859550907 [Eh]
	 Opposite-Spin Energy      =      -1.6758538939461916 [Eh]
	 Correlation Energy        =      -2.2251526799012824 [Eh]
	 Total Energy              =    -858.3793632366891870 [Eh]

	 ================> DF-SCS-MP2 Energies <==================
	-----------------------------------------------------------
	 SCS Same-Spin Scale       =       0.3333333333333333 [-]
	 SCS Opposite-Spin Scale   =       1.2000000000000000 [-]
	 SCS Same-Spin Energy      =      -0.1830995953183636 [Eh]
	 SCS Opposite-Spin Energy  =      -2.0110246727354300 [Eh]
	 SCS Correlation Energy    =      -2.1941242680537933 [Eh]
	 SCS Total Energy          =    -858.3483348248416860 [Eh]
	-----------------------------------------------------------

  Dipole Moment: [D]
     X:    -2.9652      Y:     0.0774      Z:     3.7840     Total:     4.8080

*** Psi4 exiting successfully. Buy a developer a beer!
