                               Psi4 1.3.2 release

  ==> Input File <==

--------------------------------------------------------------------------
#psi4
#
memory 32 gb

molecule  {
0 1
  S        1.0337893     0.1064829    -0.4353990
  O        1.4426300    -1.2834400    -1.0972280
  O        1.4426290     1.2834490    -1.0972210
  C        1.7922650    -0.0000010     1.1894320
  C       -0.6626530     0.0000010    -0.1634910
  C        3.3143010    -0.0000060     1.1103310
  C       -1.3293790     1.2205490    -0.0344210
  C       -1.3293780    -1.2205490    -0.0344260
  C       -2.6989260     1.2120350     0.2329170
  C       -2.6989250    -1.2120380     0.2329110
  C       -3.3803590    -0.0000020     0.3738520
  H        1.4045370     0.8911630     1.6920120
  H        1.4045310    -0.8911640     1.6920110
  H        3.7325860    -0.0000050     2.1196780
  H        3.6690290    -0.8877700     0.5832550
  H        3.6690340     0.8877530     0.5832510
  H       -0.7855660     2.1508460    -0.1756550
  H       -0.7855630    -2.1508450    -0.1756650
  H       -3.2357400     2.1525280     0.3278780
  H       -3.2357370    -2.1525330     0.3278690
  H       -4.4476770    -0.0000030     0.5806570
units angstrom
no_reorient  #important for SAPT in psi4, default
symmetry c1  #important for SAPT in psi4, default
}

set PROPERTIES_ORIGIN ["COM"]
properties('MP2/aug-cc-pvtz', properties = ['dipole'])
--------------------------------------------------------------------------

    Molecular point group: c1
  Charge       = 0
  Multiplicity = 1
  Basis Set: AUG-CC-PVTZ
    Blend: AUG-CC-PVTZ
  Basis Set: (AUG-CC-PVTZ AUX)
    Blend: AUG-CC-PVTZ-JKFIT

    Orbital Energies [Eh]
    ---------------------

    Doubly Occupied:

       1A    -92.172285     2A    -20.552886     3A    -20.512666
       4A    -11.282791     5A    -11.277940     6A    -11.275905
       7A    -11.275303     8A    -11.272602     9A    -11.264568
      10A    -11.264445    11A    -11.236197    12A     -9.144188
      13A     -6.828675    14A     -6.828247    15A     -6.827625
      16A     -1.445470    17A     -1.274434    18A     -1.188062
      19A     -1.087960    20A     -1.058526    21A     -1.047304
      22A     -0.941693    23A     -0.869999    24A     -0.860025
      25A     -0.797712    26A     -0.737714    27A     -0.689902
      28A     -0.670828    29A     -0.659019    30A     -0.648403
      31A     -0.640644    32A     -0.619016    33A     -0.603295
      34A     -0.573293    35A     -0.549767    36A     -0.546008
      37A     -0.530940    38A     -0.527200    39A     -0.523335
      40A     -0.486068    41A     -0.471241    42A     -0.436261
      43A     -0.422194    44A     -0.375396    45A     -0.365741

  @DF-RHF Final Energy:  -856.13367804342352

   => Energetics <=

    Nuclear Repulsion Energy =            728.6952299999335310
    One-Electron Energy =               -2620.3302739551381819
    Two-Electron Energy =                1035.5013659117812495
    Total Energy =                       -856.1336780434235152
  Basis Set: (AUG-CC-PVTZ AUX)
    Blend: AUG-CC-PVTZ-RI
    Molecular point group: c1

    Geometry (in Angstrom), charge = 0, multiplicity = 1:

       Center              X                  Y                   Z               Mass
    ------------   -----------------  -----------------  -----------------  -----------------
         S            1.053281668012     0.086461390007    -0.397049464402    31.972071174400
         O            1.462122368012    -1.303461509993    -1.058878464402    15.994914619570
         O            1.462121368012     1.263427490007    -1.058871464402    15.994914619570
         C            1.811757368012    -0.020022509993     1.227781535598    12.000000000000
         C           -0.643160631988    -0.020020509993    -0.125141464402    12.000000000000
         C            3.333793368012    -0.020027509993     1.148680535598    12.000000000000
         C           -1.309886631988     1.200527490007     0.003928535598    12.000000000000
         C           -1.309885631988    -1.240570509993     0.003923535598    12.000000000000
         C           -2.679433631988     1.192013490007     0.271266535598    12.000000000000
         C           -2.679432631988    -1.232059509993     0.271260535598    12.000000000000
         C           -3.360866631988    -0.020023509993     0.412201535598    12.000000000000
         H            1.424029368012     0.871141490007     1.730361535598     1.007825032230
         H            1.424023368012    -0.911185509993     1.730360535598     1.007825032230
         H            3.752078368012    -0.020026509993     2.158027535598     1.007825032230
         H            3.688521368012    -0.907791509993     0.621604535598     1.007825032230
         H            3.688526368012     0.867731490007     0.621600535598     1.007825032230
         H           -0.766073631988     2.130824490007    -0.137305464402     1.007825032230
         H           -0.766070631988    -2.170866509993    -0.137315464402     1.007825032230
         H           -3.216247631988     2.132506490007     0.366227535598     1.007825032230
         H           -3.216244631988    -2.172554509993     0.366218535598     1.007825032230
         H           -4.428184631988    -0.020024509993     0.619006535598     1.007825032230

  Basis Set: AUG-CC-PVTZ
    Blend: AUG-CC-PVTZ
  Basis Set: (AUG-CC-PVTZ AUX)
    Blend: AUG-CC-PVTZ-JKFIT
	 Reference Energy          =    -856.1336780434235152 [Eh]
	 Singles Energy            =      -0.0000000000000000 [Eh]
	 Same-Spin Energy          =      -0.5495794081870033 [Eh]
	 Opposite-Spin Energy      =      -1.6766433420777411 [Eh]
	 Correlation Energy        =      -2.2262227502647445 [Eh]
	 Total Energy              =    -858.3599007936882117 [Eh]

	 ================> DF-SCS-MP2 Energies <==================
	-----------------------------------------------------------
	 SCS Same-Spin Scale       =       0.3333333333333333 [-]
	 SCS Opposite-Spin Scale   =       1.2000000000000000 [-]
	 SCS Same-Spin Energy      =      -0.1831931360623344 [Eh]
	 SCS Opposite-Spin Energy  =      -2.0119720104932894 [Eh]
	 SCS Correlation Energy    =      -2.1951651465556239 [Eh]
	 SCS Total Energy          =    -858.3288431899791249 [Eh]
	-----------------------------------------------------------

  Dipole Moment: [D]
     X:    -3.3330      Y:     0.8340      Z:     4.4174     Total:     5.5962

*** Psi4 exiting successfully. Buy a developer a beer!
