                               Psi4 1.3.2 release

  ==> Input File <==

--------------------------------------------------------------------------
#psi4
#
memory 32 gb

molecule  {
0 1
  S        1.0929260     0.0000020    -0.4651450
  O        1.4426300    -1.2834400    -1.0972280
  O        1.4426290     1.2834490    -1.0972210
  C        1.6154836    -0.0000012     1.2534689
  C       -0.6626530     0.0000010    -0.1634910
  C        3.3143010    -0.0000060     1.1103310
  C       -1.3293790     1.2205490    -0.0344210
  C       -1.3293780    -1.2205490    -0.0344260
  C       -2.6989260     1.2120350     0.2329170
  C       -2.6989250    -1.2120380     0.2329110
  C       -3.3803590    -0.0000020     0.3738520
  H        1.4045370     0.8911630     1.6920120
  H        1.4045310    -0.8911640     1.6920110
  H        3.7325860    -0.0000050     2.1196780
  H        3.6690290    -0.8877700     0.5832550
  H        3.6690340     0.8877530     0.5832510
  H       -0.7855660     2.1508460    -0.1756550
  H       -0.7855630    -2.1508450    -0.1756650
  H       -3.2357400     2.1525280     0.3278780
  H       -3.2357370    -2.1525330     0.3278690
  H       -4.4476770    -0.0000030     0.5806570
units angstrom
no_reorient  #important for SAPT in psi4, default
symmetry c1  #important for SAPT in psi4, default
}

set PROPERTIES_ORIGIN ["COM"]
properties('MP2/aug-cc-pvtz', properties = ['dipole'])
--------------------------------------------------------------------------

    Molecular point group: c1
  Charge       = 0
  Multiplicity = 1
  Basis Set: AUG-CC-PVTZ
    Blend: AUG-CC-PVTZ
  Basis Set: (AUG-CC-PVTZ AUX)
    Blend: AUG-CC-PVTZ-JKFIT

    Orbital Energies [Eh]
    ---------------------

    Doubly Occupied:

       1A    -92.181007     2A    -20.545218     3A    -20.545199
       4A    -11.275691     5A    -11.274194     6A    -11.265493
       7A    -11.265408     8A    -11.262950     9A    -11.258325
      10A    -11.258163    11A    -11.247786    12A     -9.150100
      13A     -6.834922    14A     -6.834158    15A     -6.834063
      16A     -1.434090    17A     -1.326262    18A     -1.178815
      19A     -1.079202    20A     -1.041148    21A     -1.039589
      22A     -0.930979    23A     -0.868065    24A     -0.851866
      25A     -0.801623    26A     -0.733383    27A     -0.687434
      28A     -0.683701    29A     -0.659401    30A     -0.652339
      31A     -0.635285    32A     -0.614180    33A     -0.612040
      34A     -0.561113    35A     -0.549368    36A     -0.541989
      37A     -0.535707    38A     -0.519482    39A     -0.496083
      40A     -0.493377    41A     -0.489585    42A     -0.468624
      43A     -0.432533    44A     -0.363273    45A     -0.359214

  @DF-RHF Final Energy:  -856.12938909728609

   => Energetics <=

    Nuclear Repulsion Energy =            727.7130795222423103
    One-Electron Energy =               -2618.3400820228466728
    Two-Electron Energy =                1034.4976134033181552
    Total Energy =                       -856.1293890972860936
  Basis Set: (AUG-CC-PVTZ AUX)
    Blend: AUG-CC-PVTZ-RI
    Molecular point group: c1

    Geometry (in Angstrom), charge = 0, multiplicity = 1:

       Center              X                  Y                   Z               Mass
    ------------   -----------------  -----------------  -----------------  -----------------
         S            1.113774835984     0.000001745568    -0.425721609619    31.972071174400
         O            1.463478835984    -1.283440254432    -1.057804609619    15.994914619570
         O            1.463477835984     1.283448745568    -1.057797609619    15.994914619570
         C            1.636332435984    -0.000001454432     1.292892290381    12.000000000000
         C           -0.641804164016     0.000000745568    -0.124067609619    12.000000000000
         C            3.335149835984    -0.000006254432     1.149754390381    12.000000000000
         C           -1.308530164016     1.220548745568     0.005002390381    12.000000000000
         C           -1.308529164016    -1.220549254432     0.004997390381    12.000000000000
         C           -2.678077164016     1.212034745568     0.272340390381    12.000000000000
         C           -2.678076164016    -1.212038254432     0.272334390381    12.000000000000
         C           -3.359510164016    -0.000002254432     0.413275390381    12.000000000000
         H            1.425385835984     0.891162745568     1.731435390381     1.007825032230
         H            1.425379835984    -0.891164254432     1.731434390381     1.007825032230
         H            3.753434835984    -0.000005254432     2.159101390381     1.007825032230
         H            3.689877835984    -0.887770254432     0.622678390381     1.007825032230
         H            3.689882835984     0.887752745568     0.622674390381     1.007825032230
         H           -0.764717164016     2.150845745568    -0.136231609619     1.007825032230
         H           -0.764714164016    -2.150845254432    -0.136241609619     1.007825032230
         H           -3.214891164016     2.152527745568     0.367301390381     1.007825032230
         H           -3.214888164016    -2.152533254432     0.367292390381     1.007825032230
         H           -4.426828164016    -0.000003254432     0.620080390381     1.007825032230

  Basis Set: AUG-CC-PVTZ
    Blend: AUG-CC-PVTZ
  Basis Set: (AUG-CC-PVTZ AUX)
    Blend: AUG-CC-PVTZ-JKFIT
	 Reference Energy          =    -856.1293890972860936 [Eh]
	 Singles Energy            =      -0.0000000000000000 [Eh]
	 Same-Spin Energy          =      -0.5493714996214503 [Eh]
	 Opposite-Spin Energy      =      -1.6773358088265804 [Eh]
	 Correlation Energy        =      -2.2267073084480309 [Eh]
	 Total Energy              =    -858.3560964057340925 [Eh]

	 ================> DF-SCS-MP2 Energies <==================
	-----------------------------------------------------------
	 SCS Same-Spin Scale       =       0.3333333333333333 [-]
	 SCS Opposite-Spin Scale   =       1.2000000000000000 [-]
	 SCS Same-Spin Energy      =      -0.1831238332071501 [Eh]
	 SCS Opposite-Spin Energy  =      -2.0128029705918964 [Eh]
	 SCS Correlation Energy    =      -2.1959268037990465 [Eh]
	 SCS Total Energy          =    -858.3253159010851050 [Eh]
	-----------------------------------------------------------

  Dipole Moment: [D]
     X:    -2.3980      Y:    -0.0000      Z:     4.0643     Total:     4.7190

*** Psi4 exiting successfully. Buy a developer a beer!
