                               Psi4 1.3.2 release

  ==> Input File <==

--------------------------------------------------------------------------
#psi4
#
memory 32 gb

molecule  {
0 1
  S        1.0356081     0.0000022    -0.4397305
  O        1.4426300    -1.2834400    -1.0972280
  O        1.4426290     1.2834490    -1.0972210
  C        1.7922650    -0.0000010     1.1894320
  C       -0.6626530     0.0000010    -0.1634910
  C        3.3143010    -0.0000060     1.1103310
  C       -1.3293790     1.2205490    -0.0344210
  C       -1.3293780    -1.2205490    -0.0344260
  C       -2.6989260     1.2120350     0.2329170
  C       -2.6989250    -1.2120380     0.2329110
  C       -3.3803590    -0.0000020     0.3738520
  H        1.4045370     0.8911630     1.6920120
  H        1.4045310    -0.8911640     1.6920110
  H        3.7325860    -0.0000050     2.1196780
  H        3.6690290    -0.8877700     0.5832550
  H        3.6690340     0.8877530     0.5832510
  H       -0.7855660     2.1508460    -0.1756550
  H       -0.7855630    -2.1508450    -0.1756650
  H       -3.2357400     2.1525280     0.3278780
  H       -3.2357370    -2.1525330     0.3278690
  H       -4.4476770    -0.0000030     0.5806570
units angstrom
no_reorient  #important for SAPT in psi4, default
symmetry c1  #important for SAPT in psi4, default
}

set PROPERTIES_ORIGIN ["COM"]
properties('MP2/aug-cc-pvtz', properties = ['dipole'])
--------------------------------------------------------------------------

    Molecular point group: c1
  Charge       = 0
  Multiplicity = 1
  Basis Set: AUG-CC-PVTZ
    Blend: AUG-CC-PVTZ
  Basis Set: (AUG-CC-PVTZ AUX)
    Blend: AUG-CC-PVTZ-JKFIT

    Orbital Energies [Eh]
    ---------------------

    Doubly Occupied:

       1A    -92.175509     2A    -20.533302     3A    -20.533283
       4A    -11.282480     5A    -11.277574     6A    -11.275715
       7A    -11.275593     8A    -11.272683     9A    -11.264519
      10A    -11.264422    11A    -11.236127    12A     -9.145798
      13A     -6.830333    14A     -6.829841    15A     -6.829467
      16A     -1.413151    17A     -1.302110    18A     -1.188582
      19A     -1.088153    20A     -1.058206    21A     -1.047529
      22A     -0.941479    23A     -0.869272    24A     -0.860428
      25A     -0.797437    26A     -0.736291    27A     -0.687023
      28A     -0.669854    29A     -0.650202    30A     -0.649963
      31A     -0.638196    32A     -0.619156    33A     -0.599179
      34A     -0.573327    35A     -0.546661    36A     -0.542843
      37A     -0.529704    38A     -0.527307    39A     -0.522635
      40A     -0.478546    41A     -0.478128    42A     -0.449813
      43A     -0.433047    44A     -0.375791    45A     -0.365866

  @DF-RHF Final Energy:  -856.15034634775520

   => Energetics <=

    Nuclear Repulsion Energy =            728.5451837834543767
    One-Electron Energy =               -2620.0580090489802387
    Two-Electron Energy =                1035.3624789177706589
    Total Energy =                       -856.1503463477552032
  Basis Set: (AUG-CC-PVTZ AUX)
    Blend: AUG-CC-PVTZ-RI
    Molecular point group: c1

    Geometry (in Angstrom), charge = 0, multiplicity = 1:

       Center              X                  Y                   Z               Mass
    ------------   -----------------  -----------------  -----------------  -----------------
         S            1.054758485234     0.000001893849    -0.400566527190    31.972071174400
         O            1.461780385234    -1.283440306151    -1.058064027190    15.994914619570
         O            1.461779385234     1.283448693849    -1.058057027190    15.994914619570
         C            1.811415385234    -0.000001306151     1.228595972810    12.000000000000
         C           -0.643502614766     0.000000693849    -0.124327027190    12.000000000000
         C            3.333451385234    -0.000006306151     1.149494972810    12.000000000000
         C           -1.310228614766     1.220548693849     0.004742972810    12.000000000000
         C           -1.310227614766    -1.220549306151     0.004737972810    12.000000000000
         C           -2.679775614766     1.212034693849     0.272080972810    12.000000000000
         C           -2.679774614766    -1.212038306151     0.272074972810    12.000000000000
         C           -3.361208614766    -0.000002306151     0.413015972810    12.000000000000
         H            1.423687385234     0.891162693849     1.731175972810     1.007825032230
         H            1.423681385234    -0.891164306151     1.731174972810     1.007825032230
         H            3.751736385234    -0.000005306151     2.158841972810     1.007825032230
         H            3.688179385234    -0.887770306151     0.622418972810     1.007825032230
         H            3.688184385234     0.887752693849     0.622414972810     1.007825032230
         H           -0.766415614766     2.150845693849    -0.136491027190     1.007825032230
         H           -0.766412614766    -2.150845306151    -0.136501027190     1.007825032230
         H           -3.216589614766     2.152527693849     0.367041972810     1.007825032230
         H           -3.216586614766    -2.152533306151     0.367032972810     1.007825032230
         H           -4.428526614766    -0.000003306151     0.619820972810     1.007825032230

  Basis Set: AUG-CC-PVTZ
    Blend: AUG-CC-PVTZ
  Basis Set: (AUG-CC-PVTZ AUX)
    Blend: AUG-CC-PVTZ-JKFIT
	 Reference Energy          =    -856.1503463477552032 [Eh]
	 Singles Energy            =      -0.0000000000000000 [Eh]
	 Same-Spin Energy          =      -0.5498741168176507 [Eh]
	 Opposite-Spin Energy      =      -1.6767319945256647 [Eh]
	 Correlation Energy        =      -2.2266061113433153 [Eh]
	 Total Energy              =    -858.3769524590985611 [Eh]

	 ================> DF-SCS-MP2 Energies <==================
	-----------------------------------------------------------
	 SCS Same-Spin Scale       =       0.3333333333333333 [-]
	 SCS Opposite-Spin Scale   =       1.2000000000000000 [-]
	 SCS Same-Spin Energy      =      -0.1832913722725502 [Eh]
	 SCS Opposite-Spin Energy  =      -2.0120783934307975 [Eh]
	 SCS Correlation Energy    =      -2.1953697657033477 [Eh]
	 SCS Total Energy          =    -858.3457161134585931 [Eh]
	-----------------------------------------------------------

  Dipole Moment: [D]
     X:    -3.3070      Y:    -0.0000      Z:     4.3683     Total:     5.4789

*** Psi4 exiting successfully. Buy a developer a beer!
