                               Psi4 1.3.2 release

  ==> Input File <==

--------------------------------------------------------------------------
#psi4
#
memory 32 gb

molecule  {
0 1
  S        1.0929260     0.0000020    -0.4651450
  O        1.4426300    -1.2834400    -1.0972280
  O        1.4426290     1.2834490    -1.0972210
  C        1.8495829    -0.0000009     1.1640175
  C       -0.6626530     0.0000010    -0.1634910
  C        3.3143010    -0.0000060     1.1103310
  C       -1.3293790     1.2205490    -0.0344210
  C       -1.3293780    -1.2205490    -0.0344260
  C       -2.6989260     1.2120350     0.2329170
  C       -2.6989250    -1.2120380     0.2329110
  C       -3.3803590    -0.0000020     0.3738520
  H        1.4045370     0.8911630     1.6920120
  H        1.4045310    -0.8911640     1.6920110
  H        3.7325860    -0.0000050     2.1196780
  H        3.6690290    -0.8877700     0.5832550
  H        3.6690340     0.8877530     0.5832510
  H       -0.7855660     2.1508460    -0.1756550
  H       -0.7855630    -2.1508450    -0.1756650
  H       -3.2357400     2.1525280     0.3278780
  H       -3.2357370    -2.1525330     0.3278690
  H       -4.4476770    -0.0000030     0.5806570
units angstrom
no_reorient  #important for SAPT in psi4, default
symmetry c1  #important for SAPT in psi4, default
}

set PROPERTIES_ORIGIN ["COM"]
properties('MP2/aug-cc-pvtz', properties = ['dipole'])
--------------------------------------------------------------------------

    Molecular point group: c1
  Charge       = 0
  Multiplicity = 1
  Basis Set: AUG-CC-PVTZ
    Blend: AUG-CC-PVTZ
  Basis Set: (AUG-CC-PVTZ AUX)
    Blend: AUG-CC-PVTZ-JKFIT

    Orbital Energies [Eh]
    ---------------------

    Doubly Occupied:

       1A    -92.176883     2A    -20.538083     3A    -20.538064
       4A    -11.281566     5A    -11.280257     6A    -11.270369
       7A    -11.270289     8A    -11.267695     9A    -11.260976
      10A    -11.260860    11A    -11.234071    12A     -9.146545
      13A     -6.831025    14A     -6.830706    15A     -6.830455
      16A     -1.430294    17A     -1.321431    18A     -1.182217
      19A     -1.090757    20A     -1.054734    21A     -1.043106
      22A     -0.936946    23A     -0.860262    24A     -0.855184
      25A     -0.793210    26A     -0.735358    27A     -0.687038
      28A     -0.665271    29A     -0.654353    30A     -0.646818
      31A     -0.638044    32A     -0.615255    33A     -0.609590
      34A     -0.584570    35A     -0.550759    36A     -0.543685
      37A     -0.528985    38A     -0.522984    39A     -0.514544
      40A     -0.488672    41A     -0.480703    42A     -0.459615
      43A     -0.430725    44A     -0.370932    45A     -0.362021

  @DF-RHF Final Energy:  -856.15314830081502

   => Energetics <=

    Nuclear Repulsion Energy =            728.1499899297469938
    One-Electron Energy =               -2619.2544694504103973
    Two-Electron Energy =                1034.9513312198484982
    Total Energy =                       -856.1531483008150190
  Basis Set: (AUG-CC-PVTZ AUX)
    Blend: AUG-CC-PVTZ-RI
    Molecular point group: c1

    Geometry (in Angstrom), charge = 0, multiplicity = 1:

       Center              X                  Y                   Z               Mass
    ------------   -----------------  -----------------  -----------------  -----------------
         S            1.097254081399     0.000001724397    -0.419408884093    31.972071174400
         O            1.446958081399    -1.283440275603    -1.051491884093    15.994914619570
         O            1.446957081399     1.283448724397    -1.051484884093    15.994914619570
         C            1.853910981399    -0.000001175603     1.209753615907    12.000000000000
         C           -0.658324918601     0.000000724397    -0.117754884093    12.000000000000
         C            3.318629081399    -0.000006275603     1.156067115907    12.000000000000
         C           -1.325050918601     1.220548724397     0.011315115907    12.000000000000
         C           -1.325049918601    -1.220549275603     0.011310115907    12.000000000000
         C           -2.694597918601     1.212034724397     0.278653115907    12.000000000000
         C           -2.694596918601    -1.212038275603     0.278647115907    12.000000000000
         C           -3.376030918601    -0.000002275603     0.419588115907    12.000000000000
         H            1.408865081399     0.891162724397     1.737748115907     1.007825032230
         H            1.408859081399    -0.891164275603     1.737747115907     1.007825032230
         H            3.736914081399    -0.000005275603     2.165414115907     1.007825032230
         H            3.673357081399    -0.887770275603     0.628991115907     1.007825032230
         H            3.673362081399     0.887752724397     0.628987115907     1.007825032230
         H           -0.781237918601     2.150845724397    -0.129918884093     1.007825032230
         H           -0.781234918601    -2.150845275603    -0.129928884093     1.007825032230
         H           -3.231411918601     2.152527724397     0.373614115907     1.007825032230
         H           -3.231408918601    -2.152533275603     0.373605115907     1.007825032230
         H           -4.443348918601    -0.000003275603     0.626393115907     1.007825032230

  Basis Set: AUG-CC-PVTZ
    Blend: AUG-CC-PVTZ
  Basis Set: (AUG-CC-PVTZ AUX)
    Blend: AUG-CC-PVTZ-JKFIT
	 Reference Energy          =    -856.1531483008150190 [Eh]
	 Singles Energy            =      -0.0000000000000000 [Eh]
	 Same-Spin Energy          =      -0.5493634433768138 [Eh]
	 Opposite-Spin Energy      =      -1.6755290837502095 [Eh]
	 Correlation Energy        =      -2.2248925271270235 [Eh]
	 Total Energy              =    -858.3780408279420726 [Eh]

	 ================> DF-SCS-MP2 Energies <==================
	-----------------------------------------------------------
	 SCS Same-Spin Scale       =       0.3333333333333333 [-]
	 SCS Opposite-Spin Scale   =       1.2000000000000000 [-]
	 SCS Same-Spin Energy      =      -0.1831211477922712 [Eh]
	 SCS Opposite-Spin Energy  =      -2.0106349005002513 [Eh]
	 SCS Correlation Energy    =      -2.1937560482925225 [Eh]
	 SCS Total Energy          =    -858.3469043491074899 [Eh]
	-----------------------------------------------------------

  Dipole Moment: [D]
     X:    -2.7365      Y:    -0.0000      Z:     4.1532     Total:     4.9737

*** Psi4 exiting successfully. Buy a developer a beer!
