                               Psi4 1.3.2 release

  ==> Input File <==

--------------------------------------------------------------------------
#psi4
#
memory 32 gb

molecule  {
0 1
  S        1.0929260     0.0000020    -0.4651450
  O        1.4426300    -1.2834400    -1.0972280
  O        1.4426290     1.2834490    -1.0972210
  C        1.7632821    -0.0000010     1.2013851
  C       -0.6626530     0.0000010    -0.1634910
  C        3.3143010    -0.0000060     1.1103310
  C       -1.3293790     1.2205490    -0.0344210
  C       -1.3293780    -1.2205490    -0.0344260
  C       -2.6989260     1.2120350     0.2329170
  C       -2.6989250    -1.2120380     0.2329110
  C       -3.3803590    -0.0000020     0.3738520
  H        1.4045370     0.8911630     1.6920120
  H        1.4045310    -0.8911640     1.6920110
  H        3.7325860    -0.0000050     2.1196780
  H        3.6690290    -0.8877700     0.5832550
  H        3.6690340     0.8877530     0.5832510
  H       -0.7855660     2.1508460    -0.1756550
  H       -0.7855630    -2.1508450    -0.1756650
  H       -3.2357400     2.1525280     0.3278780
  H       -3.2357370    -2.1525330     0.3278690
  H       -4.4476770    -0.0000030     0.5806570
units angstrom
no_reorient  #important for SAPT in psi4, default
symmetry c1  #important for SAPT in psi4, default
}

set PROPERTIES_ORIGIN ["COM"]
properties('MP2/aug-cc-pvtz', properties = ['dipole'])
--------------------------------------------------------------------------

    Molecular point group: c1
  Charge       = 0
  Multiplicity = 1
  Basis Set: AUG-CC-PVTZ
    Blend: AUG-CC-PVTZ
  Basis Set: (AUG-CC-PVTZ AUX)
    Blend: AUG-CC-PVTZ-JKFIT

    Orbital Energies [Eh]
    ---------------------

    Doubly Occupied:

       1A    -92.177928     2A    -20.540712     3A    -20.540692
       4A    -11.279205     5A    -11.276551     6A    -11.268549
       7A    -11.268467     8A    -11.265935     9A    -11.259982
      10A    -11.259854    11A    -11.239437    12A     -9.147474
      13A     -6.832071    14A     -6.831555    15A     -6.831437
      16A     -1.431609    17A     -1.323171    18A     -1.180898
      19A     -1.083318    20A     -1.049530    21A     -1.041789
      22A     -0.934553    23A     -0.862983    24A     -0.853923
      25A     -0.797107    26A     -0.734857    27A     -0.685729
      28A     -0.669452    29A     -0.655749    30A     -0.649664
      31A     -0.636830    32A     -0.614055    33A     -0.610772
      34A     -0.567814    35A     -0.547577    36A     -0.542485
      37A     -0.531365    38A     -0.523132    39A     -0.521398
      40A     -0.490723    41A     -0.483956    42A     -0.463637
      43A     -0.432436    44A     -0.368455    45A     -0.360973

  @DF-RHF Final Energy:  -856.15698376688124

   => Energetics <=

    Nuclear Repulsion Energy =            727.9111768268348897
    One-Electron Energy =               -2618.7967387692942793
    Two-Electron Energy =                1034.7285781755781500
    Total Energy =                       -856.1569837668812397
  Basis Set: (AUG-CC-PVTZ AUX)
    Blend: AUG-CC-PVTZ-RI
    Molecular point group: c1

    Geometry (in Angstrom), charge = 0, multiplicity = 1:

       Center              X                  Y                   Z               Mass
    ------------   -----------------  -----------------  -----------------  -----------------
         S            1.103344464144     0.000001731454    -0.422045974204    31.972071174400
         O            1.453048464144    -1.283440268546    -1.054128974204    15.994914619570
         O            1.453047464144     1.283448731454    -1.054121974204    15.994914619570
         C            1.773700564144    -0.000001268546     1.244484125796    12.000000000000
         C           -0.652234535856     0.000000731454    -0.120391974204    12.000000000000
         C            3.324719464144    -0.000006268546     1.153430025796    12.000000000000
         C           -1.318960535856     1.220548731454     0.008678025796    12.000000000000
         C           -1.318959535856    -1.220549268546     0.008673025796    12.000000000000
         C           -2.688507535856     1.212034731454     0.276016025796    12.000000000000
         C           -2.688506535856    -1.212038268546     0.276010025796    12.000000000000
         C           -3.369940535856    -0.000002268546     0.416951025796    12.000000000000
         H            1.414955464144     0.891162731454     1.735111025796     1.007825032230
         H            1.414949464144    -0.891164268546     1.735110025796     1.007825032230
         H            3.743004464144    -0.000005268546     2.162777025796     1.007825032230
         H            3.679447464144    -0.887770268546     0.626354025796     1.007825032230
         H            3.679452464144     0.887752731454     0.626350025796     1.007825032230
         H           -0.775147535856     2.150845731454    -0.132555974204     1.007825032230
         H           -0.775144535856    -2.150845268546    -0.132565974204     1.007825032230
         H           -3.225321535856     2.152527731454     0.370977025796     1.007825032230
         H           -3.225318535856    -2.152533268546     0.370968025796     1.007825032230
         H           -4.437258535856    -0.000003268546     0.623756025796     1.007825032230

  Basis Set: AUG-CC-PVTZ
    Blend: AUG-CC-PVTZ
  Basis Set: (AUG-CC-PVTZ AUX)
    Blend: AUG-CC-PVTZ-JKFIT
	 Reference Energy          =    -856.1569837668812397 [Eh]
	 Singles Energy            =      -0.0000000000000000 [Eh]
	 Same-Spin Energy          =      -0.5488456190341278 [Eh]
	 Opposite-Spin Energy      =      -1.6752101405377233 [Eh]
	 Correlation Energy        =      -2.2240557595718511 [Eh]
	 Total Energy              =    -858.3810395264530371 [Eh]

	 ================> DF-SCS-MP2 Energies <==================
	-----------------------------------------------------------
	 SCS Same-Spin Scale       =       0.3333333333333333 [-]
	 SCS Opposite-Spin Scale   =       1.2000000000000000 [-]
	 SCS Same-Spin Energy      =      -0.1829485396780426 [Eh]
	 SCS Opposite-Spin Energy  =      -2.0102521686452679 [Eh]
	 SCS Correlation Energy    =      -2.1932007083233103 [Eh]
	 SCS Total Energy          =    -858.3501844752045145 [Eh]
	-----------------------------------------------------------

  Dipole Moment: [D]
     X:    -2.6286      Y:    -0.0000      Z:     4.1268     Total:     4.8928

*** Psi4 exiting successfully. Buy a developer a beer!
