                               Psi4 1.4a3.dev225

  ==> Input File <==

--------------------------------------------------------------------------
#psi4
#
memory 32 gb

molecule  {
0 1
  S        1.0929260     0.0000020    -0.4651450
  O        1.4426300    -1.2834400    -1.0972280
  O        1.4426290     1.2834490    -1.0972210
  C        1.8000514    -0.0000010     1.2078540
  C       -0.6626530     0.0000010    -0.1634910
  C        3.3143010    -0.0000060     1.1103310
  C       -1.3293790     1.2205490    -0.0344210
  C       -1.3293780    -1.2205490    -0.0344260
  C       -2.6989260     1.2120350     0.2329170
  C       -2.6989250    -1.2120380     0.2329110
  C       -3.3803590    -0.0000020     0.3738520
  H        1.4045370     0.8911630     1.6920120
  H        1.4045310    -0.8911640     1.6920110
  H        3.7325860    -0.0000050     2.1196780
  H        3.6690290    -0.8877700     0.5832550
  H        3.6690340     0.8877530     0.5832510
  H       -0.7855660     2.1508460    -0.1756550
  H       -0.7855630    -2.1508450    -0.1756650
  H       -3.2357400     2.1525280     0.3278780
  H       -3.2357370    -2.1525330     0.3278690
  H       -4.4476770    -0.0000030     0.5806570
units angstrom
no_reorient  #important for SAPT in psi4, default
symmetry c1  #important for SAPT in psi4, default
}

set PROPERTIES_ORIGIN ["COM"]
properties('MP2/aug-cc-pvtz', properties = ['dipole'])
--------------------------------------------------------------------------

    Molecular point group: c1
  Charge       = 0
  Multiplicity = 1
  Basis Set: AUG-CC-PVTZ
    Blend: AUG-CC-PVTZ
  Basis Set: (AUG-CC-PVTZ AUX)
    Blend: AUG-CC-PVTZ-JKFIT

    Orbital Energies [Eh]
    ---------------------

    Doubly Occupied:

       1A    -92.176815     2A    -20.539771     3A    -20.539752
       4A    -11.279946     5A    -11.277971     6A    -11.269100
       7A    -11.269018     8A    -11.266473     9A    -11.260294
      10A    -11.260169    11A    -11.237208    12A     -9.146349
      13A     -6.830882    14A     -6.830407    15A     -6.830289
      16A     -1.430432    17A     -1.322299    18A     -1.181254
      19A     -1.084581    20A     -1.051628    21A     -1.042192
      22A     -0.933995    23A     -0.862105    24A     -0.854294
      25A     -0.796228    26A     -0.734483    27A     -0.685165
      28A     -0.667921    29A     -0.654643    30A     -0.649559
      31A     -0.637020    32A     -0.614424    33A     -0.610686
      34A     -0.572232    35A     -0.551615    36A     -0.542990
      37A     -0.527382    38A     -0.526187    39A     -0.521655
      40A     -0.490067    41A     -0.482022    42A     -0.462616
      43A     -0.429084    44A     -0.369201    45A     -0.361301

  @DF-RHF Final Energy:  -856.15742788821819

   => Energetics <=

    Nuclear Repulsion Energy =            727.5308344253338646
    One-Electron Energy =               -2618.0491197996620940
    Two-Electron Energy =                1034.3608574861100351
    Total Energy =                       -856.1574278882180806
  Basis Set: (AUG-CC-PVTZ AUX)
    Blend: AUG-CC-PVTZ-RI
    Molecular point group: c1

    Geometry (in Angstrom), charge = 0, multiplicity = 1:

       Center              X                  Y                   Z               Mass
    ------------   -----------------  -----------------  -----------------  -----------------
         S            1.100749597002     0.000001731454    -0.422502494618    31.972071174400
         O            1.450453597002    -1.283440268546    -1.054585494618    15.994914619570
         O            1.450452597002     1.283448731454    -1.054578494618    15.994914619570
         C            1.807874997002    -0.000001268546     1.250496505382    12.000000000000
         C           -0.654829402998     0.000000731454    -0.120848494618    12.000000000000
         C            3.322124597002    -0.000006268546     1.152973505382    12.000000000000
         C           -1.321555402998     1.220548731454     0.008221505382    12.000000000000
         C           -1.321554402998    -1.220549268546     0.008216505382    12.000000000000
         C           -2.691102402998     1.212034731454     0.275559505382    12.000000000000
         C           -2.691101402998    -1.212038268546     0.275553505382    12.000000000000
         C           -3.372535402998    -0.000002268546     0.416494505382    12.000000000000
         H            1.412360597002     0.891162731454     1.734654505382     1.007825032230
         H            1.412354597002    -0.891164268546     1.734653505382     1.007825032230
         H            3.740409597002    -0.000005268546     2.162320505382     1.007825032230
         H            3.676852597002    -0.887770268546     0.625897505382     1.007825032230
         H            3.676857597002     0.887752731454     0.625893505382     1.007825032230
         H           -0.777742402998     2.150845731454    -0.133012494618     1.007825032230
         H           -0.777739402998    -2.150845268546    -0.133022494618     1.007825032230
         H           -3.227916402998     2.152527731454     0.370520505382     1.007825032230
         H           -3.227913402998    -2.152533268546     0.370511505382     1.007825032230
         H           -4.439853402998    -0.000003268546     0.623299505382     1.007825032230

  Basis Set: AUG-CC-PVTZ
    Blend: AUG-CC-PVTZ
  Basis Set: (AUG-CC-PVTZ AUX)
    Blend: AUG-CC-PVTZ-JKFIT
	 Reference Energy          =    -856.1574278882181943 [Eh]
	 Singles Energy            =      -0.0000000000000000 [Eh]
	 Same-Spin Energy          =      -0.5489494850219985 [Eh]
	 Opposite-Spin Energy      =      -1.6752525276606371 [Eh]
	 Correlation Energy        =      -2.2242020126826354 [Eh]
	 Total Energy              =    -858.3816299009008617 [Eh]

	 ================> DF-SCS-MP2 Energies <==================
	-----------------------------------------------------------
	 SCS Same-Spin Scale       =       0.3333333333333333 [-]
	 SCS Opposite-Spin Scale   =       1.2000000000000000 [-]
	 SCS Same-Spin Energy      =      -0.1829831616739995 [Eh]
	 SCS Opposite-Spin Energy  =      -2.0103030331927645 [Eh]
	 SCS Correlation Energy    =      -2.1932861948667641 [Eh]
	 SCS Total Energy          =    -858.3507140830849949 [Eh]
	-----------------------------------------------------------

  Dipole Moment: [D]
     X:    -2.6719      Y:    -0.0000      Z:     4.1216     Total:     4.9119

*** Psi4 exiting successfully. Buy a developer a beer!
