                               Psi4 1.3.2 release

  ==> Input File <==

--------------------------------------------------------------------------
#psi4
#
memory 32 gb

molecule  {
0 1
  S        1.0778109     0.0266425    -0.4584592
  O        1.4426300    -1.2834400    -1.0972280
  O        1.4426290     1.2834490    -1.0972210
  C        1.7922650    -0.0000010     1.1894320
  C       -0.6626530     0.0000010    -0.1634910
  C        3.3143010    -0.0000060     1.1103310
  C       -1.3293790     1.2205490    -0.0344210
  C       -1.3293780    -1.2205490    -0.0344260
  C       -2.6989260     1.2120350     0.2329170
  C       -2.6989250    -1.2120380     0.2329110
  C       -3.3803590    -0.0000020     0.3738520
  H        1.4045370     0.8911630     1.6920120
  H        1.4045310    -0.8911640     1.6920110
  H        3.7325860    -0.0000050     2.1196780
  H        3.6690290    -0.8877700     0.5832550
  H        3.6690340     0.8877530     0.5832510
  H       -0.7855660     2.1508460    -0.1756550
  H       -0.7855630    -2.1508450    -0.1756650
  H       -3.2357400     2.1525280     0.3278780
  H       -3.2357370    -2.1525330     0.3278690
  H       -4.4476770    -0.0000030     0.5806570
units angstrom
no_reorient  #important for SAPT in psi4, default
symmetry c1  #important for SAPT in psi4, default
}

set PROPERTIES_ORIGIN ["COM"]
properties('MP2/aug-cc-pvtz', properties = ['dipole'])
--------------------------------------------------------------------------

    Molecular point group: c1
  Charge       = 0
  Multiplicity = 1
  Basis Set: AUG-CC-PVTZ
    Blend: AUG-CC-PVTZ
  Basis Set: (AUG-CC-PVTZ AUX)
    Blend: AUG-CC-PVTZ-JKFIT

    Orbital Energies [Eh]
    ---------------------

    Doubly Occupied:

       1A    -92.176835     2A    -20.543239     3A    -20.532907
       4A    -11.280773     5A    -11.277585     6A    -11.270905
       7A    -11.270723     8A    -11.268111     9A    -11.261420
      10A    -11.261301    11A    -11.237253    12A     -9.146682
      13A     -6.831218    14A     -6.830823    15A     -6.830510
      16A     -1.429337    17A     -1.314819    18A     -1.183178
      19A     -1.085642    20A     -1.053376    21A     -1.043596
      22A     -0.936882    23A     -0.864038    24A     -0.855891
      25A     -0.796236    26A     -0.735529    27A     -0.686499
      28A     -0.667926    29A     -0.654551    30A     -0.649092
      31A     -0.637751    32A     -0.615670    33A     -0.607635
      34A     -0.572520    35A     -0.548652    36A     -0.543424
      37A     -0.526894    38A     -0.525854    39A     -0.522662
      40A     -0.487404    41A     -0.481606    42A     -0.457916
      43A     -0.432024    44A     -0.371012    45A     -0.362504

  @DF-RHF Final Energy:  -856.15551924068097

   => Energetics <=

    Nuclear Repulsion Energy =            728.1400256741308112
    One-Electron Energy =               -2619.2502773995047392
    Two-Electron Energy =                1034.9547324846930678
    Total Energy =                       -856.1555192406808601
  Basis Set: (AUG-CC-PVTZ AUX)
    Blend: AUG-CC-PVTZ-RI
    Molecular point group: c1

    Geometry (in Angstrom), charge = 0, multiplicity = 1:

       Center              X                  Y                   Z               Mass
    ------------   -----------------  -----------------  -----------------  -----------------
         S            1.089026036297     0.021633108853    -0.415773733432    31.972071174400
         O            1.453845136297    -1.288449391147    -1.054542533432    15.994914619570
         O            1.453844136297     1.278439608853    -1.054535533432    15.994914619570
         C            1.803480136297    -0.005010391147     1.232117466568    12.000000000000
         C           -0.651437863703    -0.005008391147    -0.120805533432    12.000000000000
         C            3.325516136297    -0.005015391147     1.153016466568    12.000000000000
         C           -1.318163863703     1.215539608853     0.008264466568    12.000000000000
         C           -1.318162863703    -1.225558391147     0.008259466568    12.000000000000
         C           -2.687710863703     1.207025608853     0.275602466568    12.000000000000
         C           -2.687709863703    -1.217047391147     0.275596466568    12.000000000000
         C           -3.369143863703    -0.005011391147     0.416537466568    12.000000000000
         H            1.415752136297     0.886153608853     1.734697466568     1.007825032230
         H            1.415746136297    -0.896173391147     1.734696466568     1.007825032230
         H            3.743801136297    -0.005014391147     2.162363466568     1.007825032230
         H            3.680244136297    -0.892779391147     0.625940466568     1.007825032230
         H            3.680249136297     0.882743608853     0.625936466568     1.007825032230
         H           -0.774350863703     2.145836608853    -0.132969533432     1.007825032230
         H           -0.774347863703    -2.155854391147    -0.132979533432     1.007825032230
         H           -3.224524863703     2.147518608853     0.370563466568     1.007825032230
         H           -3.224521863703    -2.157542391147     0.370554466568     1.007825032230
         H           -4.436461863703    -0.005012391147     0.623342466568     1.007825032230

  Basis Set: AUG-CC-PVTZ
    Blend: AUG-CC-PVTZ
  Basis Set: (AUG-CC-PVTZ AUX)
    Blend: AUG-CC-PVTZ-JKFIT
	 Reference Energy          =    -856.1555192406809738 [Eh]
	 Singles Energy            =      -0.0000000000000000 [Eh]
	 Same-Spin Energy          =      -0.5491364405275698 [Eh]
	 Opposite-Spin Energy      =      -1.6755046676232066 [Eh]
	 Correlation Energy        =      -2.2246411081507764 [Eh]
	 Total Energy              =    -858.3801603488317369 [Eh]

	 ================> DF-SCS-MP2 Energies <==================
	-----------------------------------------------------------
	 SCS Same-Spin Scale       =       0.3333333333333333 [-]
	 SCS Opposite-Spin Scale   =       1.2000000000000000 [-]
	 SCS Same-Spin Energy      =      -0.1830454801758566 [Eh]
	 SCS Opposite-Spin Energy  =      -2.0106056011478479 [Eh]
	 SCS Correlation Energy    =      -2.1936510813237047 [Eh]
	 SCS Total Energy          =    -858.3491703220046247 [Eh]
	-----------------------------------------------------------

  Dipole Moment: [D]
     X:    -2.8366      Y:     0.2078      Z:     4.1989     Total:     5.0715

*** Psi4 exiting successfully. Buy a developer a beer!
