                               Psi4 1.3.2 release

  ==> Input File <==

--------------------------------------------------------------------------
#psi4
#
memory 32 gb

molecule  {
0 1
  S        1.1554698    -0.1064789    -0.4868300
  O        1.4426300    -1.2834400    -1.0972280
  O        1.4426290     1.2834490    -1.0972210
  C        1.7922650    -0.0000010     1.1894320
  C       -0.6626530     0.0000010    -0.1634910
  C        3.3143010    -0.0000060     1.1103310
  C       -1.3293790     1.2205490    -0.0344210
  C       -1.3293780    -1.2205490    -0.0344260
  C       -2.6989260     1.2120350     0.2329170
  C       -2.6989250    -1.2120380     0.2329110
  C       -3.3803590    -0.0000020     0.3738520
  H        1.4045370     0.8911630     1.6920120
  H        1.4045310    -0.8911640     1.6920110
  H        3.7325860    -0.0000050     2.1196780
  H        3.6690290    -0.8877700     0.5832550
  H        3.6690340     0.8877530     0.5832510
  H       -0.7855660     2.1508460    -0.1756550
  H       -0.7855630    -2.1508450    -0.1756650
  H       -3.2357400     2.1525280     0.3278780
  H       -3.2357370    -2.1525330     0.3278690
  H       -4.4476770    -0.0000030     0.5806570
units angstrom
no_reorient  #important for SAPT in psi4, default
symmetry c1  #important for SAPT in psi4, default
}

set PROPERTIES_ORIGIN ["COM"]
properties('MP2/aug-cc-pvtz', properties = ['dipole'])
--------------------------------------------------------------------------

    Molecular point group: c1
  Charge       = 0
  Multiplicity = 1
  Basis Set: AUG-CC-PVTZ
    Blend: AUG-CC-PVTZ
  Basis Set: (AUG-CC-PVTZ AUX)
    Blend: AUG-CC-PVTZ-JKFIT

    Orbital Energies [Eh]
    ---------------------

    Doubly Occupied:

       1A    -92.175264     2A    -20.566897     3A    -20.525749
       4A    -11.278659     5A    -11.275878     6A    -11.262306
       7A    -11.261591     8A    -11.259874     9A    -11.255657
      10A    -11.255417    11A    -11.239688    12A     -9.146874
      13A     -6.831855    14A     -6.830979    15A     -6.830205
      16A     -1.489825    17A     -1.308607    18A     -1.173559
      19A     -1.085241    20A     -1.042357    21A     -1.036035
      22A     -0.930186    23A     -0.854330    24A     -0.847188
      25A     -0.796165    26A     -0.735833    27A     -0.693228
      28A     -0.670973    29A     -0.670007    30A     -0.644583
      31A     -0.636358    32A     -0.623181    33A     -0.609003
      34A     -0.575903    35A     -0.554417    36A     -0.548118
      37A     -0.528980    38A     -0.522756    39A     -0.516871
      40A     -0.496166    41A     -0.487012    42A     -0.456137
      43A     -0.420297    44A     -0.361931    45A     -0.356122

  @DF-RHF Final Energy:  -856.13353388548001

   => Energetics <=

    Nuclear Repulsion Energy =            727.5501574049015971
    One-Electron Energy =               -2618.0308586173005096
    Two-Electron Energy =                1034.3471673269189068
    Total Energy =                       -856.1335338854798920
  Basis Set: (AUG-CC-PVTZ AUX)
    Blend: AUG-CC-PVTZ-RI
    Molecular point group: c1

    Geometry (in Angstrom), charge = 0, multiplicity = 1:

       Center              X                  Y                   Z               Mass
    ------------   -----------------  -----------------  -----------------  -----------------
         S            1.152082997476    -0.086457927099    -0.438810068408    31.972071174400
         O            1.439243197476    -1.263419027099    -1.049208068408    15.994914619570
         O            1.439242197476     1.303469972901    -1.049201068408    15.994914619570
         C            1.788878197476     0.020019972901     1.237451931592    12.000000000000
         C           -0.666039802524     0.020021972901    -0.115471068408    12.000000000000
         C            3.310914197476     0.020014972901     1.158350931592    12.000000000000
         C           -1.332765802524     1.240569972901     0.013598931592    12.000000000000
         C           -1.332764802524    -1.200528027099     0.013593931592    12.000000000000
         C           -2.702312802524     1.232055972901     0.280936931592    12.000000000000
         C           -2.702311802524    -1.192017027099     0.280930931592    12.000000000000
         C           -3.383745802524     0.020018972901     0.421871931592    12.000000000000
         H            1.401150197476     0.911183972901     1.740031931592     1.007825032230
         H            1.401144197476    -0.871143027099     1.740030931592     1.007825032230
         H            3.729199197476     0.020015972901     2.167697931592     1.007825032230
         H            3.665642197476    -0.867749027099     0.631274931592     1.007825032230
         H            3.665647197476     0.907773972901     0.631270931592     1.007825032230
         H           -0.788952802524     2.170866972901    -0.127635068408     1.007825032230
         H           -0.788949802524    -2.130824027099    -0.127645068408     1.007825032230
         H           -3.239126802524     2.172548972901     0.375897931592     1.007825032230
         H           -3.239123802524    -2.132512027099     0.375888931592     1.007825032230
         H           -4.451063802524     0.020017972901     0.628676931592     1.007825032230

  Basis Set: AUG-CC-PVTZ
    Blend: AUG-CC-PVTZ
  Basis Set: (AUG-CC-PVTZ AUX)
    Blend: AUG-CC-PVTZ-JKFIT
	 Reference Energy          =    -856.1335338854800057 [Eh]
	 Singles Energy            =      -0.0000000000000000 [Eh]
	 Same-Spin Energy          =      -0.5479623763847191 [Eh]
	 Opposite-Spin Energy      =      -1.6740345182515364 [Eh]
	 Correlation Energy        =      -2.2219968946362556 [Eh]
	 Total Energy              =    -858.3555307801162826 [Eh]

	 ================> DF-SCS-MP2 Energies <==================
	-----------------------------------------------------------
	 SCS Same-Spin Scale       =       0.3333333333333333 [-]
	 SCS Opposite-Spin Scale   =       1.2000000000000000 [-]
	 SCS Same-Spin Energy      =      -0.1826541254615730 [Eh]
	 SCS Opposite-Spin Energy  =      -2.0088414219018436 [Eh]
	 SCS Correlation Energy    =      -2.1914955473634166 [Eh]
	 SCS Total Energy          =    -858.3250294328433938 [Eh]
	-----------------------------------------------------------

  Dipole Moment: [D]
     X:    -1.9755      Y:    -0.8258      Z:     3.9477     Total:     4.4909

*** Psi4 exiting successfully. Buy a developer a beer!
