                               Psi4 1.3.2 release

  ==> Input File <==

--------------------------------------------------------------------------
#psi4
#
memory 32 gb

molecule  {
0 1
  S        1.0929260     0.0000020    -0.4651450
  O        1.4914988    -1.3087660    -1.0104075
  O        1.4426290     1.2834490    -1.0972210
  C        1.7922650    -0.0000010     1.1894320
  C       -0.6626530     0.0000010    -0.1634910
  C        3.3143010    -0.0000060     1.1103310
  C       -1.3293790     1.2205490    -0.0344210
  C       -1.3293780    -1.2205490    -0.0344260
  C       -2.6989260     1.2120350     0.2329170
  C       -2.6989250    -1.2120380     0.2329110
  C       -3.3803590    -0.0000020     0.3738520
  H        1.4045370     0.8911630     1.6920120
  H        1.4045310    -0.8911640     1.6920110
  H        3.7325860    -0.0000050     2.1196780
  H        3.6690290    -0.8877700     0.5832550
  H        3.6690340     0.8877530     0.5832510
  H       -0.7855660     2.1508460    -0.1756550
  H       -0.7855630    -2.1508450    -0.1756650
  H       -3.2357400     2.1525280     0.3278780
  H       -3.2357370    -2.1525330     0.3278690
  H       -4.4476770    -0.0000030     0.5806570
units angstrom
no_reorient  #important for SAPT in psi4, default
symmetry c1  #important for SAPT in psi4, default
}

set PROPERTIES_ORIGIN ["COM"]
properties('MP2/aug-cc-pvtz', properties = ['dipole'])
--------------------------------------------------------------------------

    Molecular point group: c1
  Charge       = 0
  Multiplicity = 1
  Basis Set: AUG-CC-PVTZ
    Blend: AUG-CC-PVTZ
  Basis Set: (AUG-CC-PVTZ AUX)
    Blend: AUG-CC-PVTZ-JKFIT

    Orbital Energies [Eh]
    ---------------------

    Doubly Occupied:

       1A    -92.177741     2A    -20.542851     3A    -20.540070
       4A    -11.281881     5A    -11.272551     6A    -11.270547
       7A    -11.270332     8A    -11.267694     9A    -11.261326
      10A    -11.261168    11A    -11.234525    12A     -9.147293
      13A     -6.831832    14A     -6.831469    15A     -6.831198
      16A     -1.431811    17A     -1.325585    18A     -1.182544
      19A     -1.081529    20A     -1.051561    21A     -1.043350
      22A     -0.933785    23A     -0.861507    24A     -0.855480
      25A     -0.795928    26A     -0.735449    27A     -0.686098
      28A     -0.666924    29A     -0.655283    30A     -0.647714
      31A     -0.638021    32A     -0.615517    33A     -0.611513
      34A     -0.570034    35A     -0.546648    36A     -0.543519
      37A     -0.525977    38A     -0.524252    39A     -0.521895
      40A     -0.492312    41A     -0.482781    42A     -0.464578
      43A     -0.430156    44A     -0.370587    45A     -0.362363

  @DF-RHF Final Energy:  -856.15601087037010

   => Energetics <=

    Nuclear Repulsion Energy =            728.1654912357060994
    One-Electron Energy =               -2619.2886443264092122
    Two-Electron Energy =                1034.9671422203327893
    Total Energy =                       -856.1560108703702099
  Basis Set: (AUG-CC-PVTZ AUX)
    Blend: AUG-CC-PVTZ-RI
    Molecular point group: c1

    Geometry (in Angstrom), charge = 0, multiplicity = 1:

       Center              X                  Y                   Z               Mass
    ------------   -----------------  -----------------  -----------------  -----------------
         S            1.096702226539     0.002384034727    -0.429369240382    31.972071174400
         O            1.495275026539    -1.306383965273    -0.974631740382    15.994914619570
         O            1.446405226539     1.285831034727    -1.061445240382    15.994914619570
         C            1.796041226539     0.002381034727     1.225207759618    12.000000000000
         C           -0.658876773461     0.002383034727    -0.127715240382    12.000000000000
         C            3.318077226539     0.002376034727     1.146106759618    12.000000000000
         C           -1.325602773461     1.222931034727     0.001354759618    12.000000000000
         C           -1.325601773461    -1.218166965273     0.001349759618    12.000000000000
         C           -2.695149773461     1.214417034727     0.268692759618    12.000000000000
         C           -2.695148773461    -1.209655965273     0.268686759618    12.000000000000
         C           -3.376582773461     0.002380034727     0.409627759618    12.000000000000
         H            1.408313226539     0.893545034727     1.727787759618     1.007825032230
         H            1.408307226539    -0.888781965273     1.727786759618     1.007825032230
         H            3.736362226539     0.002377034727     2.155453759618     1.007825032230
         H            3.672805226539    -0.885387965273     0.619030759618     1.007825032230
         H            3.672810226539     0.890135034727     0.619026759618     1.007825032230
         H           -0.781789773461     2.153228034727    -0.139879240382     1.007825032230
         H           -0.781786773461    -2.148462965273    -0.139889240382     1.007825032230
         H           -3.231963773461     2.154910034727     0.363653759618     1.007825032230
         H           -3.231960773461    -2.150150965273     0.363644759618     1.007825032230
         H           -4.443900773461     0.002379034727     0.616432759618     1.007825032230

  Basis Set: AUG-CC-PVTZ
    Blend: AUG-CC-PVTZ
  Basis Set: (AUG-CC-PVTZ AUX)
    Blend: AUG-CC-PVTZ-JKFIT
	 Reference Energy          =    -856.1560108703700962 [Eh]
	 Singles Energy            =      -0.0000000000000000 [Eh]
	 Same-Spin Energy          =      -0.5491505101433717 [Eh]
	 Opposite-Spin Energy      =      -1.6755647751221070 [Eh]
	 Correlation Energy        =      -2.2247152852654786 [Eh]
	 Total Energy              =    -858.3807261556355570 [Eh]

	 ================> DF-SCS-MP2 Energies <==================
	-----------------------------------------------------------
	 SCS Same-Spin Scale       =       0.3333333333333333 [-]
	 SCS Opposite-Spin Scale   =       1.2000000000000000 [-]
	 SCS Same-Spin Energy      =      -0.1830501700477906 [Eh]
	 SCS Opposite-Spin Energy  =      -2.0106777301465284 [Eh]
	 SCS Correlation Energy    =      -2.1937279001943191 [Eh]
	 SCS Total Energy          =    -858.3497387705643860 [Eh]
	-----------------------------------------------------------

  Dipole Moment: [D]
     X:    -2.8669      Y:     0.0553      Z:     3.9048     Total:     4.8445

*** Psi4 exiting successfully. Buy a developer a beer!
