                               Psi4 1.3.2 release

  ==> Input File <==

--------------------------------------------------------------------------
#psi4
#
memory 32 gb

molecule  {
0 1
  S        1.0929260     0.0000020    -0.4651450
  O        1.3662090    -1.2337739    -1.2215567
  O        1.4426290     1.2834490    -1.0972210
  C        1.7922650    -0.0000010     1.1894320
  C       -0.6626530     0.0000010    -0.1634910
  C        3.3143010    -0.0000060     1.1103310
  C       -1.3293790     1.2205490    -0.0344210
  C       -1.3293780    -1.2205490    -0.0344260
  C       -2.6989260     1.2120350     0.2329170
  C       -2.6989250    -1.2120380     0.2329110
  C       -3.3803590    -0.0000020     0.3738520
  H        1.4045370     0.8911630     1.6920120
  H        1.4045310    -0.8911640     1.6920110
  H        3.7325860    -0.0000050     2.1196780
  H        3.6690290    -0.8877700     0.5832550
  H        3.6690340     0.8877530     0.5832510
  H       -0.7855660     2.1508460    -0.1756550
  H       -0.7855630    -2.1508450    -0.1756650
  H       -3.2357400     2.1525280     0.3278780
  H       -3.2357370    -2.1525330     0.3278690
  H       -4.4476770    -0.0000030     0.5806570
units angstrom
no_reorient  #important for SAPT in psi4, default
symmetry c1  #important for SAPT in psi4, default
}

set PROPERTIES_ORIGIN ["COM"]
properties('MP2/aug-cc-pvtz', properties = ['dipole'])
--------------------------------------------------------------------------

    Molecular point group: c1
  Charge       = 0
  Multiplicity = 1
  Basis Set: AUG-CC-PVTZ
    Blend: AUG-CC-PVTZ
  Basis Set: (AUG-CC-PVTZ AUX)
    Blend: AUG-CC-PVTZ-JKFIT

    Orbital Energies [Eh]
    ---------------------

    Doubly Occupied:

       1A    -92.176923     2A    -20.538989     3A    -20.535092
       4A    -11.284879     5A    -11.277271     6A    -11.267285
       7A    -11.266891     8A    -11.264667     9A    -11.258863
      10A    -11.258643    11A    -11.242064    12A     -9.146700
      13A     -6.831276    14A     -6.830756    15A     -6.830608
      16A     -1.430390    17A     -1.317655    18A     -1.179490
      19A     -1.090678    20A     -1.050475    21A     -1.040522
      22A     -0.937834    23A     -0.862470    24A     -0.852624
      25A     -0.795993    26A     -0.734435    27A     -0.686252
      28A     -0.669148    29A     -0.655143    30A     -0.649126
      31A     -0.635821    32A     -0.612836    33A     -0.607978
      34A     -0.575860    35A     -0.553418    36A     -0.541913
      37A     -0.530689    38A     -0.524805    39A     -0.520138
      40A     -0.486157    41A     -0.482824    42A     -0.458285
      43A     -0.433521    44A     -0.367119    45A     -0.359740

  @DF-RHF Final Energy:  -856.15580166616735

   => Energetics <=

    Nuclear Repulsion Energy =            727.8607263392334517
    One-Electron Energy =               -2618.7245577268495254
    Two-Electron Energy =                1034.7080297214488382
    Total Energy =                       -856.1558016661672355
  Basis Set: (AUG-CC-PVTZ AUX)
    Blend: AUG-CC-PVTZ-RI
    Molecular point group: c1

    Geometry (in Angstrom), charge = 0, multiplicity = 1:

       Center              X                  Y                   Z               Mass
    ------------   -----------------  -----------------  -----------------  -----------------
         S            1.108487676299    -0.004670135900    -0.409507381807    31.972071174400
         O            1.381770676299    -1.238446035900    -1.165919081807    15.994914619570
         O            1.458190676299     1.278776864100    -1.041583381807    15.994914619570
         C            1.807826676299    -0.004673135900     1.245069618193    12.000000000000
         C           -0.647091323701    -0.004671135900    -0.107853381807    12.000000000000
         C            3.329862676299    -0.004678135900     1.165968618193    12.000000000000
         C           -1.313817323701     1.215876864100     0.021216618193    12.000000000000
         C           -1.313816323701    -1.225221135900     0.021211618193    12.000000000000
         C           -2.683364323701     1.207362864100     0.288554618193    12.000000000000
         C           -2.683363323701    -1.216710135900     0.288548618193    12.000000000000
         C           -3.364797323701    -0.004674135900     0.429489618193    12.000000000000
         H            1.420098676299     0.886490864100     1.747649618193     1.007825032230
         H            1.420092676299    -0.895836135900     1.747648618193     1.007825032230
         H            3.748147676299    -0.004677135900     2.175315618193     1.007825032230
         H            3.684590676299    -0.892442135900     0.638892618193     1.007825032230
         H            3.684595676299     0.883080864100     0.638888618193     1.007825032230
         H           -0.770004323701     2.146173864100    -0.120017381807     1.007825032230
         H           -0.770001323701    -2.155517135900    -0.120027381807     1.007825032230
         H           -3.220178323701     2.147855864100     0.383515618193     1.007825032230
         H           -3.220175323701    -2.157205135900     0.383506618193     1.007825032230
         H           -4.432115323701    -0.004675135900     0.636294618193     1.007825032230

  Basis Set: AUG-CC-PVTZ
    Blend: AUG-CC-PVTZ
  Basis Set: (AUG-CC-PVTZ AUX)
    Blend: AUG-CC-PVTZ-JKFIT
	 Reference Energy          =    -856.1558016661673491 [Eh]
	 Singles Energy            =      -0.0000000000000000 [Eh]
	 Same-Spin Energy          =      -0.5488628751945099 [Eh]
	 Opposite-Spin Energy      =      -1.6750599990443851 [Eh]
	 Correlation Energy        =      -2.2239228742388950 [Eh]
	 Total Energy              =    -858.3797245404063005 [Eh]

	 ================> DF-SCS-MP2 Energies <==================
	-----------------------------------------------------------
	 SCS Same-Spin Scale       =       0.3333333333333333 [-]
	 SCS Opposite-Spin Scale   =       1.2000000000000000 [-]
	 SCS Same-Spin Energy      =      -0.1829542917315033 [Eh]
	 SCS Opposite-Spin Energy  =      -2.0100719988532618 [Eh]
	 SCS Correlation Energy    =      -2.1930262905847653 [Eh]
	 SCS Total Energy          =    -858.3488279567520749 [Eh]
	-----------------------------------------------------------

  Dipole Moment: [D]
     X:    -2.3640      Y:    -0.1088      Z:     4.4586     Total:     5.0477

*** Psi4 exiting successfully. Buy a developer a beer!
