                               Psi4 1.3.2 release

  ==> Input File <==

--------------------------------------------------------------------------
#psi4
#
memory 32 gb

molecule  {
0 1
  S        1.0929260     0.0000020    -0.4651450
  O        1.4175415    -1.2684233    -1.1395093
  O        1.4426290     1.2834490    -1.0972210
  C        1.7922650    -0.0000010     1.1894320
  C       -0.6626530     0.0000010    -0.1634910
  C        3.3143010    -0.0000060     1.1103310
  C       -1.3293790     1.2205490    -0.0344210
  C       -1.3293780    -1.2205490    -0.0344260
  C       -2.6989260     1.2120350     0.2329170
  C       -2.6989250    -1.2120380     0.2329110
  C       -3.3803590    -0.0000020     0.3738520
  H        1.4045370     0.8911630     1.6920120
  H        1.4045310    -0.8911640     1.6920110
  H        3.7325860    -0.0000050     2.1196780
  H        3.6690290    -0.8877700     0.5832550
  H        3.6690340     0.8877530     0.5832510
  H       -0.7855660     2.1508460    -0.1756550
  H       -0.7855630    -2.1508450    -0.1756650
  H       -3.2357400     2.1525280     0.3278780
  H       -3.2357370    -2.1525330     0.3278690
  H       -4.4476770    -0.0000030     0.5806570
units angstrom
no_reorient  #important for SAPT in psi4, default
symmetry c1  #important for SAPT in psi4, default
}

set PROPERTIES_ORIGIN ["COM"]
properties('MP2/aug-cc-pvtz', properties = ['dipole'])
--------------------------------------------------------------------------

    Molecular point group: c1
  Charge       = 0
  Multiplicity = 1
  Basis Set: AUG-CC-PVTZ
    Blend: AUG-CC-PVTZ
  Basis Set: (AUG-CC-PVTZ AUX)
    Blend: AUG-CC-PVTZ-JKFIT

    Orbital Energies [Eh]
    ---------------------

    Doubly Occupied:

       1A    -92.177341     2A    -20.539594     3A    -20.538260
       4A    -11.280095     5A    -11.279052     6A    -11.268519
       7A    -11.268375     8A    -11.265920     9A    -11.259823
      10A    -11.259685    11A    -11.239176    12A     -9.146985
      13A     -6.831546    14A     -6.831067    15A     -6.830935
      16A     -1.430868    17A     -1.320994    18A     -1.180723
      19A     -1.087061    20A     -1.051105    21A     -1.041664
      22A     -0.936176    23A     -0.862218    24A     -0.853771
      25A     -0.795909    26A     -0.734860    27A     -0.686185
      28A     -0.667988    29A     -0.655169    30A     -0.648956
      31A     -0.636748    32A     -0.613920    33A     -0.609548
      34A     -0.573509    35A     -0.550663    36A     -0.542624
      37A     -0.527856    38A     -0.525420    39A     -0.521157
      40A     -0.488880    41A     -0.482867    42A     -0.461170
      43A     -0.432660    44A     -0.368625    45A     -0.360800

  @DF-RHF Final Energy:  -856.15764425942746

   => Energetics <=

    Nuclear Repulsion Energy =            727.9191459805974773
    One-Electron Energy =               -2618.8206423213032394
    Two-Electron Energy =                1034.7438520812781917
    Total Energy =                       -856.1576442594275704
  Basis Set: (AUG-CC-PVTZ AUX)
    Blend: AUG-CC-PVTZ-RI
    Molecular point group: c1

    Geometry (in Angstrom), charge = 0, multiplicity = 1:

       Center              X                  Y                   Z               Mass
    ------------   -----------------  -----------------  -----------------  -----------------
         S            1.103659058169    -0.001410822189    -0.417225212873    31.972071174400
         O            1.428274558169    -1.269836122189    -1.091589512873    15.994914619570
         O            1.453362058169     1.282036177811    -1.049301212873    15.994914619570
         C            1.802998058169    -0.001413822189     1.237351787127    12.000000000000
         C           -0.651919941831    -0.001411822189    -0.115571212873    12.000000000000
         C            3.325034058169    -0.001418822189     1.158250787127    12.000000000000
         C           -1.318645941831     1.219136177811     0.013498787127    12.000000000000
         C           -1.318644941831    -1.221961822189     0.013493787127    12.000000000000
         C           -2.688192941831     1.210622177811     0.280836787127    12.000000000000
         C           -2.688191941831    -1.213450822189     0.280830787127    12.000000000000
         C           -3.369625941831    -0.001414822189     0.421771787127    12.000000000000
         H            1.415270058169     0.889750177811     1.739931787127     1.007825032230
         H            1.415264058169    -0.892576822189     1.739930787127     1.007825032230
         H            3.743319058169    -0.001417822189     2.167597787127     1.007825032230
         H            3.679762058169    -0.889182822189     0.631174787127     1.007825032230
         H            3.679767058169     0.886340177811     0.631170787127     1.007825032230
         H           -0.774832941831     2.149433177811    -0.127735212873     1.007825032230
         H           -0.774829941831    -2.152257822189    -0.127745212873     1.007825032230
         H           -3.225006941831     2.151115177811     0.375797787127     1.007825032230
         H           -3.225003941831    -2.153945822189     0.375788787127     1.007825032230
         H           -4.436943941831    -0.001415822189     0.628576787127     1.007825032230

  Basis Set: AUG-CC-PVTZ
    Blend: AUG-CC-PVTZ
  Basis Set: (AUG-CC-PVTZ AUX)
    Blend: AUG-CC-PVTZ-JKFIT
	 Reference Energy          =    -856.1576442594274567 [Eh]
	 Singles Energy            =      -0.0000000000000000 [Eh]
	 Same-Spin Energy          =      -0.5488903657058377 [Eh]
	 Opposite-Spin Energy      =      -1.6750793277376002 [Eh]
	 Correlation Energy        =      -2.2239696934434381 [Eh]
	 Total Energy              =    -858.3816139528709073 [Eh]

	 ================> DF-SCS-MP2 Energies <==================
	-----------------------------------------------------------
	 SCS Same-Spin Scale       =       0.3333333333333333 [-]
	 SCS Opposite-Spin Scale   =       1.2000000000000000 [-]
	 SCS Same-Spin Energy      =      -0.1829634552352792 [Eh]
	 SCS Opposite-Spin Energy  =      -2.0100951932851201 [Eh]
	 SCS Correlation Energy    =      -2.1930586485203993 [Eh]
	 SCS Total Energy          =    -858.3507029079478343 [Eh]
	-----------------------------------------------------------

  Dipole Moment: [D]
     X:    -2.5669      Y:    -0.0330      Z:     4.2479     Total:     4.9634

*** Psi4 exiting successfully. Buy a developer a beer!
