                               Psi4 1.3.2 release

  ==> Input File <==

--------------------------------------------------------------------------
#psi4
#
memory 32 gb

molecule  {
0 1
  S        1.0929260     0.0000020    -0.4651450
  O        1.4426300    -1.2834400    -1.0972280
  O        1.4426290     1.2834490    -1.0972210
  C        1.7340951    -0.0000011     1.2128307
  C       -0.6626530     0.0000010    -0.1634910
  C        3.3143010    -0.0000060     1.1103310
  C       -1.3293790     1.2205490    -0.0344210
  C       -1.3293780    -1.2205490    -0.0344260
  C       -2.6989260     1.2120350     0.2329170
  C       -2.6989250    -1.2120380     0.2329110
  C       -3.3803590    -0.0000020     0.3738520
  H        1.4045370     0.8911630     1.6920120
  H        1.4045310    -0.8911640     1.6920110
  H        3.7325860    -0.0000050     2.1196780
  H        3.6690290    -0.8877700     0.5832550
  H        3.6690340     0.8877530     0.5832510
  H       -0.7855660     2.1508460    -0.1756550
  H       -0.7855630    -2.1508450    -0.1756650
  H       -3.2357400     2.1525280     0.3278780
  H       -3.2357370    -2.1525330     0.3278690
  H       -4.4476770    -0.0000030     0.5806570
units angstrom
no_reorient  #important for SAPT in psi4, default
symmetry c1  #important for SAPT in psi4, default
}

set PROPERTIES_ORIGIN ["COM"]
properties('MP2/aug-cc-pvtz', properties = ['dipole'])
--------------------------------------------------------------------------

    Molecular point group: c1
  Charge       = 0
  Multiplicity = 1
  Basis Set: AUG-CC-PVTZ
    Blend: AUG-CC-PVTZ
  Basis Set: (AUG-CC-PVTZ AUX)
    Blend: AUG-CC-PVTZ-JKFIT

    Orbital Energies [Eh]
    ---------------------

    Doubly Occupied:

       1A    -92.178421     2A    -20.541608     3A    -20.541589
       4A    -11.278455     5A    -11.275660     6A    -11.267939
       7A    -11.267856     8A    -11.265342     9A    -11.259649
      10A    -11.259515    11A    -11.241177    12A     -9.147901
      13A     -6.832543    14A     -6.831955    15A     -6.831882
      16A     -1.432083    17A     -1.323777    18A     -1.180467
      19A     -1.081880    20A     -1.047722    21A     -1.041348
      22A     -0.933756    23A     -0.863975    24A     -0.853504
      25A     -0.798219    26A     -0.734617    27A     -0.685315
      28A     -0.671989    29A     -0.656384    30A     -0.650539
      31A     -0.636496    32A     -0.613654    33A     -0.611387
      34A     -0.564738    35A     -0.545475    36A     -0.541762
      37A     -0.535920    38A     -0.521045    39A     -0.519675
      40A     -0.491286    41A     -0.485073    42A     -0.464747
      43A     -0.432739    44A     -0.367543    45A     -0.360620

  @DF-RHF Final Energy:  -856.15445149335653

   => Energetics <=

    Nuclear Repulsion Energy =            727.8530791264707887
    One-Electron Energy =               -2618.6766143846548403
    Two-Electron Energy =                1034.6690837648277466
    Total Energy =                       -856.1544514933564187
  Basis Set: (AUG-CC-PVTZ AUX)
    Blend: AUG-CC-PVTZ-RI
    Molecular point group: c1

    Geometry (in Angstrom), charge = 0, multiplicity = 1:

       Center              X                  Y                   Z               Mass
    ------------   -----------------  -----------------  -----------------  -----------------
         S            1.105404236489     0.000001738511    -0.422853708139    31.972071174400
         O            1.455108236489    -1.283440261489    -1.054936708139    15.994914619570
         O            1.455107236489     1.283448738511    -1.054929708139    15.994914619570
         C            1.746573336489    -0.000001361489     1.255121991861    12.000000000000
         C           -0.650174763511     0.000000738511    -0.121199708139    12.000000000000
         C            3.326779236489    -0.000006261489     1.152622291861    12.000000000000
         C           -1.316900763511     1.220548738511     0.007870291861    12.000000000000
         C           -1.316899763511    -1.220549261489     0.007865291861    12.000000000000
         C           -2.686447763511     1.212034738511     0.275208291861    12.000000000000
         C           -2.686446763511    -1.212038261489     0.275202291861    12.000000000000
         C           -3.367880763511    -0.000002261489     0.416143291861    12.000000000000
         H            1.417015236489     0.891162738511     1.734303291861     1.007825032230
         H            1.417009236489    -0.891164261489     1.734302291861     1.007825032230
         H            3.745064236489    -0.000005261489     2.161969291861     1.007825032230
         H            3.681507236489    -0.887770261489     0.625546291861     1.007825032230
         H            3.681512236489     0.887752738511     0.625542291861     1.007825032230
         H           -0.773087763511     2.150845738511    -0.133363708139     1.007825032230
         H           -0.773084763511    -2.150845261489    -0.133373708139     1.007825032230
         H           -3.223261763511     2.152527738511     0.370169291861     1.007825032230
         H           -3.223258763511    -2.152533261489     0.370160291861     1.007825032230
         H           -4.435198763511    -0.000003261489     0.622948291861     1.007825032230

  Basis Set: AUG-CC-PVTZ
    Blend: AUG-CC-PVTZ
  Basis Set: (AUG-CC-PVTZ AUX)
    Blend: AUG-CC-PVTZ-JKFIT
	 Reference Energy          =    -856.1544514933565324 [Eh]
	 Singles Energy            =      -0.0000000000000000 [Eh]
	 Same-Spin Energy          =      -0.5488141601124180 [Eh]
	 Opposite-Spin Energy      =      -1.6753757582789994 [Eh]
	 Correlation Energy        =      -2.2241899183914176 [Eh]
	 Total Energy              =    -858.3786414117479353 [Eh]

	 ================> DF-SCS-MP2 Energies <==================
	-----------------------------------------------------------
	 SCS Same-Spin Scale       =       0.3333333333333333 [-]
	 SCS Opposite-Spin Scale   =       1.2000000000000000 [-]
	 SCS Same-Spin Energy      =      -0.1829380533708060 [Eh]
	 SCS Opposite-Spin Energy  =      -2.0104509099347991 [Eh]
	 SCS Correlation Energy    =      -2.1933889633056052 [Eh]
	 SCS Total Energy          =    -858.3478404566620839 [Eh]
	-----------------------------------------------------------

  Dipole Moment: [D]
     X:    -2.5870      Y:    -0.0000      Z:     4.1155     Total:     4.8610

*** Psi4 exiting successfully. Buy a developer a beer!
