                               Psi4 1.4a3.dev225

  ==> Input File <==

--------------------------------------------------------------------------
#psi4
#
memory 32 gb

molecule  {
0 1
  S        1.0929260     0.0000020    -0.4651450
  O        1.4426300    -1.2834400    -1.0972280
  O        1.4426290     1.2834490    -1.0972210
  C        1.7844786    -0.0000010     1.1710100
  C       -0.6626530     0.0000010    -0.1634910
  C        3.3143010    -0.0000060     1.1103310
  C       -1.3293790     1.2205490    -0.0344210
  C       -1.3293780    -1.2205490    -0.0344260
  C       -2.6989260     1.2120350     0.2329170
  C       -2.6989250    -1.2120380     0.2329110
  C       -3.3803590    -0.0000020     0.3738520
  H        1.4045370     0.8911630     1.6920120
  H        1.4045310    -0.8911640     1.6920110
  H        3.7325860    -0.0000050     2.1196780
  H        3.6690290    -0.8877700     0.5832550
  H        3.6690340     0.8877530     0.5832510
  H       -0.7855660     2.1508460    -0.1756550
  H       -0.7855630    -2.1508450    -0.1756650
  H       -3.2357400     2.1525280     0.3278780
  H       -3.2357370    -2.1525330     0.3278690
  H       -4.4476770    -0.0000030     0.5806570
units angstrom
no_reorient  #important for SAPT in psi4, default
symmetry c1  #important for SAPT in psi4, default
}

set PROPERTIES_ORIGIN ["COM"]
properties('MP2/aug-cc-pvtz', properties = ['dipole'])
--------------------------------------------------------------------------

    Molecular point group: c1
  Charge       = 0
  Multiplicity = 1
  Basis Set: AUG-CC-PVTZ
    Blend: AUG-CC-PVTZ
  Basis Set: (AUG-CC-PVTZ AUX)
    Blend: AUG-CC-PVTZ-JKFIT

    Orbital Energies [Eh]
    ---------------------

    Doubly Occupied:

       1A    -92.178070     2A    -20.539829     3A    -20.539810
       4A    -11.279969     5A    -11.277399     6A    -11.269185
       7A    -11.269103     8A    -11.266549     9A    -11.260315
      10A    -11.260192    11A    -11.238233    12A     -9.147766
      13A     -6.832339    14A     -6.831926    15A     -6.831711
      16A     -1.431865    17A     -1.322817    18A     -1.181389
      19A     -1.086016    20A     -1.051031    21A     -1.042243
      22A     -0.936768    23A     -0.861986    24A     -0.854365
      25A     -0.795506    26A     -0.735643    27A     -0.687121
      28A     -0.667244    29A     -0.655711    30A     -0.647802
      31A     -0.637340    32A     -0.614466    33A     -0.609720
      34A     -0.572542    35A     -0.547211    36A     -0.542806
      37A     -0.525587    38A     -0.524942    39A     -0.521504
      40A     -0.490114    41A     -0.483700    42A     -0.462188
      43A     -0.434718    44A     -0.369382    45A     -0.361326

  @DF-RHF Final Energy:  -856.15736046390532

   => Energetics <=

    Nuclear Repulsion Energy =            728.4341820558066729
    One-Electron Energy =               -2619.8281877722874924
    Two-Electron Energy =                1035.2366452525757268
    Total Energy =                       -856.1573604639052064
  Basis Set: (AUG-CC-PVTZ AUX)
    Blend: AUG-CC-PVTZ-RI
    Molecular point group: c1

    Geometry (in Angstrom), charge = 0, multiplicity = 1:

       Center              X                  Y                   Z               Mass
    ------------   -----------------  -----------------  -----------------  -----------------
         S            1.101848593910     0.000001731454    -0.419902355780    31.972071174400
         O            1.451552593910    -1.283440268546    -1.051985355780    15.994914619570
         O            1.451551593910     1.283448731454    -1.051978355780    15.994914619570
         C            1.793401193910    -0.000001268546     1.216252644220    12.000000000000
         C           -0.653730406090     0.000000731454    -0.118248355780    12.000000000000
         C            3.323223593910    -0.000006268546     1.155573644220    12.000000000000
         C           -1.320456406090     1.220548731454     0.010821644220    12.000000000000
         C           -1.320455406090    -1.220549268546     0.010816644220    12.000000000000
         C           -2.690003406090     1.212034731454     0.278159644220    12.000000000000
         C           -2.690002406090    -1.212038268546     0.278153644220    12.000000000000
         C           -3.371436406090    -0.000002268546     0.419094644220    12.000000000000
         H            1.413459593910     0.891162731454     1.737254644220     1.007825032230
         H            1.413453593910    -0.891164268546     1.737253644220     1.007825032230
         H            3.741508593910    -0.000005268546     2.164920644220     1.007825032230
         H            3.677951593910    -0.887770268546     0.628497644220     1.007825032230
         H            3.677956593910     0.887752731454     0.628493644220     1.007825032230
         H           -0.776643406090     2.150845731454    -0.130412355780     1.007825032230
         H           -0.776640406090    -2.150845268546    -0.130422355780     1.007825032230
         H           -3.226817406090     2.152527731454     0.373120644220     1.007825032230
         H           -3.226814406090    -2.152533268546     0.373111644220     1.007825032230
         H           -4.438754406090    -0.000003268546     0.625899644220     1.007825032230

  Basis Set: AUG-CC-PVTZ
    Blend: AUG-CC-PVTZ
  Basis Set: (AUG-CC-PVTZ AUX)
    Blend: AUG-CC-PVTZ-JKFIT
	 Reference Energy          =    -856.1573604639053201 [Eh]
	 Singles Energy            =      -0.0000000000000000 [Eh]
	 Same-Spin Energy          =      -0.5489758838845447 [Eh]
	 Opposite-Spin Energy      =      -1.6751549540413506 [Eh]
	 Correlation Energy        =      -2.2241308379258955 [Eh]
	 Total Energy              =    -858.3814913018312609 [Eh]

	 ================> DF-SCS-MP2 Energies <==================
	-----------------------------------------------------------
	 SCS Same-Spin Scale       =       0.3333333333333333 [-]
	 SCS Opposite-Spin Scale   =       1.2000000000000000 [-]
	 SCS Same-Spin Energy      =      -0.1829919612948482 [Eh]
	 SCS Opposite-Spin Energy  =      -2.0101859448496207 [Eh]
	 SCS Correlation Energy    =      -2.1931779061444687 [Eh]
	 SCS Total Energy          =    -858.3505383700497759 [Eh]
	-----------------------------------------------------------

  Dipole Moment: [D]
     X:    -2.6603      Y:    -0.0000      Z:     4.1544     Total:     4.9331

*** Psi4 exiting successfully. Buy a developer a beer!
