                               Psi4 1.3.2 release

  ==> Input File <==

--------------------------------------------------------------------------
#psi4
#
memory 32 gb

molecule  {
0 1
  S        1.0629134     0.0532749    -0.4512715
  O        1.4426300    -1.2834400    -1.0972280
  O        1.4426290     1.2834490    -1.0972210
  C        1.7922650    -0.0000010     1.1894320
  C       -0.6626530     0.0000010    -0.1634910
  C        3.3143010    -0.0000060     1.1103310
  C       -1.3293790     1.2205490    -0.0344210
  C       -1.3293780    -1.2205490    -0.0344260
  C       -2.6989260     1.2120350     0.2329170
  C       -2.6989250    -1.2120380     0.2329110
  C       -3.3803590    -0.0000020     0.3738520
  H        1.4045370     0.8911630     1.6920120
  H        1.4045310    -0.8911640     1.6920110
  H        3.7325860    -0.0000050     2.1196780
  H        3.6690290    -0.8877700     0.5832550
  H        3.6690340     0.8877530     0.5832510
  H       -0.7855660     2.1508460    -0.1756550
  H       -0.7855630    -2.1508450    -0.1756650
  H       -3.2357400     2.1525280     0.3278780
  H       -3.2357370    -2.1525330     0.3278690
  H       -4.4476770    -0.0000030     0.5806570
units angstrom
no_reorient  #important for SAPT in psi4, default
symmetry c1  #important for SAPT in psi4, default
}

set PROPERTIES_ORIGIN ["COM"]
properties('MP2/aug-cc-pvtz', properties = ['dipole'])
--------------------------------------------------------------------------

    Molecular point group: c1
  Charge       = 0
  Multiplicity = 1
  Basis Set: AUG-CC-PVTZ
    Blend: AUG-CC-PVTZ
  Basis Set: (AUG-CC-PVTZ AUX)
    Blend: AUG-CC-PVTZ-JKFIT

    Orbital Energies [Eh]
    ---------------------

    Doubly Occupied:

       1A    -92.175714     2A    -20.546575     3A    -20.526047
       4A    -11.281500     5A    -11.277625     6A    -11.272627
       7A    -11.272302     8A    -11.269656     9A    -11.262499
      10A    -11.262379    11A    -11.236870    12A     -9.146049
      13A     -6.830553    14A     -6.830213    15A     -6.829743
      16A     -1.432190    17A     -1.303108    18A     -1.184945
      19A     -1.086247    20A     -1.055269    21A     -1.044897
      22A     -0.938457    23A     -0.866047    24A     -0.857350
      25A     -0.796670    26A     -0.736148    27A     -0.687312
      28A     -0.668639    29A     -0.655224    30A     -0.649096
      31A     -0.638545    32A     -0.616830    33A     -0.605444
      34A     -0.572780    35A     -0.548453    36A     -0.544325
      37A     -0.528233    38A     -0.525610    39A     -0.523407
      40A     -0.486087    41A     -0.479217    42A     -0.451556
      43A     -0.430326    44A     -0.372606    45A     -0.363635

  @DF-RHF Final Energy:  -856.15062965221671

   => Energetics <=

    Nuclear Repulsion Energy =            728.3151363660540483
    One-Electron Energy =               -2619.5935221380887015
    Two-Electron Energy =                1035.1277561198178319
    Total Energy =                       -856.1506296522168213
  Basis Set: (AUG-CC-PVTZ AUX)
    Blend: AUG-CC-PVTZ-RI
    Molecular point group: c1

    Geometry (in Angstrom), charge = 0, multiplicity = 1:

       Center              X                  Y                   Z               Mass
    ------------   -----------------  -----------------  -----------------  -----------------
         S            1.076929662550     0.043257909267    -0.409937512215    31.972071174400
         O            1.456646262550    -1.293456990733    -1.055894012215    15.994914619570
         O            1.456645262550     1.273432009267    -1.055887012215    15.994914619570
         C            1.806281262550    -0.010017990733     1.230765987785    12.000000000000
         C           -0.648636737450    -0.010015990733    -0.122157012215    12.000000000000
         C            3.328317262550    -0.010022990733     1.151664987785    12.000000000000
         C           -1.315362737450     1.210532009267     0.006912987785    12.000000000000
         C           -1.315361737450    -1.230565990733     0.006907987785    12.000000000000
         C           -2.684909737450     1.202018009267     0.274250987785    12.000000000000
         C           -2.684908737450    -1.222054990733     0.274244987785    12.000000000000
         C           -3.366342737450    -0.010018990733     0.415185987785    12.000000000000
         H            1.418553262550     0.881146009267     1.733345987785     1.007825032230
         H            1.418547262550    -0.901180990733     1.733344987785     1.007825032230
         H            3.746602262550    -0.010021990733     2.161011987785     1.007825032230
         H            3.683045262550    -0.897786990733     0.624588987785     1.007825032230
         H            3.683050262550     0.877736009267     0.624584987785     1.007825032230
         H           -0.771549737450     2.140829009267    -0.134321012215     1.007825032230
         H           -0.771546737450    -2.160861990733    -0.134331012215     1.007825032230
         H           -3.221723737450     2.142511009267     0.369211987785     1.007825032230
         H           -3.221720737450    -2.162549990733     0.369202987785     1.007825032230
         H           -4.433660737450    -0.010019990733     0.621990987785     1.007825032230

  Basis Set: AUG-CC-PVTZ
    Blend: AUG-CC-PVTZ
  Basis Set: (AUG-CC-PVTZ AUX)
    Blend: AUG-CC-PVTZ-JKFIT
	 Reference Energy          =    -856.1506296522167077 [Eh]
	 Singles Energy            =      -0.0000000000000000 [Eh]
	 Same-Spin Energy          =      -0.5493023159794166 [Eh]
	 Opposite-Spin Energy      =      -1.6758514613595141 [Eh]
	 Correlation Energy        =      -2.2251537773389307 [Eh]
	 Total Energy              =    -858.3757834295556677 [Eh]

	 ================> DF-SCS-MP2 Energies <==================
	-----------------------------------------------------------
	 SCS Same-Spin Scale       =       0.3333333333333333 [-]
	 SCS Opposite-Spin Scale   =       1.2000000000000000 [-]
	 SCS Same-Spin Energy      =      -0.1831007719931388 [Eh]
	 SCS Opposite-Spin Energy  =      -2.0110217536314168 [Eh]
	 SCS Correlation Energy    =      -2.1941225256245556 [Eh]
	 SCS Total Energy          =    -858.3447521778413147 [Eh]
	-----------------------------------------------------------

  Dipole Moment: [D]
     X:    -3.0040      Y:     0.4162      Z:     4.2664     Total:     5.2344

*** Psi4 exiting successfully. Buy a developer a beer!
