                               Psi4 1.3.2 release

  ==> Input File <==

--------------------------------------------------------------------------
#psi4
#
memory 32 gb

molecule  {
0 1
  S        1.0929260     0.0000020    -0.4651450
  O        1.3920574    -1.2518612    -1.1809691
  O        1.4426290     1.2834490    -1.0972210
  C        1.7922650    -0.0000010     1.1894320
  C       -0.6626530     0.0000010    -0.1634910
  C        3.3143010    -0.0000060     1.1103310
  C       -1.3293790     1.2205490    -0.0344210
  C       -1.3293780    -1.2205490    -0.0344260
  C       -2.6989260     1.2120350     0.2329170
  C       -2.6989250    -1.2120380     0.2329110
  C       -3.3803590    -0.0000020     0.3738520
  H        1.4045370     0.8911630     1.6920120
  H        1.4045310    -0.8911640     1.6920110
  H        3.7325860    -0.0000050     2.1196780
  H        3.6690290    -0.8877700     0.5832550
  H        3.6690340     0.8877530     0.5832510
  H       -0.7855660     2.1508460    -0.1756550
  H       -0.7855630    -2.1508450    -0.1756650
  H       -3.2357400     2.1525280     0.3278780
  H       -3.2357370    -2.1525330     0.3278690
  H       -4.4476770    -0.0000030     0.5806570
units angstrom
no_reorient  #important for SAPT in psi4, default
symmetry c1  #important for SAPT in psi4, default
}

set PROPERTIES_ORIGIN ["COM"]
properties('MP2/aug-cc-pvtz', properties = ['dipole'])
--------------------------------------------------------------------------

    Molecular point group: c1
  Charge       = 0
  Multiplicity = 1
  Basis Set: AUG-CC-PVTZ
    Blend: AUG-CC-PVTZ
  Basis Set: (AUG-CC-PVTZ AUX)
    Blend: AUG-CC-PVTZ-JKFIT

    Orbital Energies [Eh]
    ---------------------

    Doubly Occupied:

       1A    -92.177146     2A    -20.539318     3A    -20.536686
       4A    -11.282514     5A    -11.278150     6A    -11.267900
       7A    -11.267640     8A    -11.265300     9A    -11.259340
      10A    -11.259168    11A    -11.240642    12A     -9.146851
      13A     -6.831418    14A     -6.830915    15A     -6.830788
      16A     -1.430613    17A     -1.319354    18A     -1.180108
      19A     -1.088885    20A     -1.050815    21A     -1.041095
      22A     -0.937001    23A     -0.862365    24A     -0.853198
      25A     -0.795942    26A     -0.734651    27A     -0.686220
      28A     -0.668526    29A     -0.655158    30A     -0.649099
      31A     -0.636291    32A     -0.613380    33A     -0.608791
      34A     -0.574688    35A     -0.552045    36A     -0.542271
      37A     -0.529280    38A     -0.525130    39A     -0.520658
      40A     -0.487552    41A     -0.482861    42A     -0.459784
      43A     -0.433163    44A     -0.367892    45A     -0.360272

  @DF-RHF Final Energy:  -856.15700470419597

   => Energetics <=

    Nuclear Repulsion Energy =            727.8796138855402660
    One-Electron Energy =               -2618.7515081285996530
    Two-Electron Energy =                1034.7148895388634173
    Total Energy =                       -856.1570047041959697
  Basis Set: (AUG-CC-PVTZ AUX)
    Blend: AUG-CC-PVTZ-RI
    Molecular point group: c1

    Geometry (in Angstrom), charge = 0, multiplicity = 1:

       Center              X                  Y                   Z               Mass
    ------------   -----------------  -----------------  -----------------  -----------------
         S            1.106056233200    -0.002968744681    -0.413325275368    31.972071174400
         O            1.405187633200    -1.254831944681    -1.129149375368    15.994914619570
         O            1.455759233200     1.280478255319    -1.045401275368    15.994914619570
         C            1.805395233200    -0.002971744681     1.241251724632    12.000000000000
         C           -0.649522766800    -0.002969744681    -0.111671275368    12.000000000000
         C            3.327431233200    -0.002976744681     1.162150724632    12.000000000000
         C           -1.316248766800     1.217578255319     0.017398724632    12.000000000000
         C           -1.316247766800    -1.223519744681     0.017393724632    12.000000000000
         C           -2.685795766800     1.209064255319     0.284736724632    12.000000000000
         C           -2.685794766800    -1.215008744681     0.284730724632    12.000000000000
         C           -3.367228766800    -0.002972744681     0.425671724632    12.000000000000
         H            1.417667233200     0.888192255319     1.743831724632     1.007825032230
         H            1.417661233200    -0.894134744681     1.743830724632     1.007825032230
         H            3.745716233200    -0.002975744681     2.171497724632     1.007825032230
         H            3.682159233200    -0.890740744681     0.635074724632     1.007825032230
         H            3.682164233200     0.884782255319     0.635070724632     1.007825032230
         H           -0.772435766800     2.147875255319    -0.123835275368     1.007825032230
         H           -0.772432766800    -2.153815744681    -0.123845275368     1.007825032230
         H           -3.222609766800     2.149557255319     0.379697724632     1.007825032230
         H           -3.222606766800    -2.155503744681     0.379688724632     1.007825032230
         H           -4.434546766800    -0.002973744681     0.632476724632     1.007825032230

  Basis Set: AUG-CC-PVTZ
    Blend: AUG-CC-PVTZ
  Basis Set: (AUG-CC-PVTZ AUX)
    Blend: AUG-CC-PVTZ-JKFIT
	 Reference Energy          =    -856.1570047041959697 [Eh]
	 Singles Energy            =      -0.0000000000000000 [Eh]
	 Same-Spin Energy          =      -0.5488624689670331 [Eh]
	 Opposite-Spin Energy      =      -1.6750400850072258 [Eh]
	 Correlation Energy        =      -2.2239025539742587 [Eh]
	 Total Energy              =    -858.3809072581702821 [Eh]

	 ================> DF-SCS-MP2 Energies <==================
	-----------------------------------------------------------
	 SCS Same-Spin Scale       =       0.3333333333333333 [-]
	 SCS Opposite-Spin Scale   =       1.2000000000000000 [-]
	 SCS Same-Spin Energy      =      -0.1829541563223444 [Eh]
	 SCS Opposite-Spin Energy  =      -2.0100481020086707 [Eh]
	 SCS Correlation Energy    =      -2.1930022583310151 [Eh]
	 SCS Total Energy          =    -858.3500069625270044 [Eh]
	-----------------------------------------------------------

  Dipole Moment: [D]
     X:    -2.4657      Y:    -0.0693      Z:     4.3552     Total:     5.0052

*** Psi4 exiting successfully. Buy a developer a beer!
