                               Psi4 1.3.2 release

  ==> Input File <==

--------------------------------------------------------------------------
#psi4
#
memory 32 gb

molecule  {
0 1
  S        1.0929260     0.0000020    -0.4651450
  O        1.4426300    -1.2834400    -1.0972280
  O        1.4426290     1.2834490    -1.0972210
  C        1.8311972    -0.0000012     1.2815422
  C       -0.6626530     0.0000010    -0.1634910
  C        3.3143010    -0.0000060     1.1103310
  C       -1.3293790     1.2205490    -0.0344210
  C       -1.3293780    -1.2205490    -0.0344260
  C       -2.6989260     1.2120350     0.2329170
  C       -2.6989250    -1.2120380     0.2329110
  C       -3.3803590    -0.0000020     0.3738520
  H        1.4045370     0.8911630     1.6920120
  H        1.4045310    -0.8911640     1.6920110
  H        3.7325860    -0.0000050     2.1196780
  H        3.6690290    -0.8877700     0.5832550
  H        3.6690340     0.8877530     0.5832510
  H       -0.7855660     2.1508460    -0.1756550
  H       -0.7855630    -2.1508450    -0.1756650
  H       -3.2357400     2.1525280     0.3278780
  H       -3.2357370    -2.1525330     0.3278690
  H       -4.4476770    -0.0000030     0.5806570
units angstrom
no_reorient  #important for SAPT in psi4, default
symmetry c1  #important for SAPT in psi4, default
}

set PROPERTIES_ORIGIN ["COM"]
properties('MP2/aug-cc-pvtz', properties = ['dipole'])
--------------------------------------------------------------------------

    Molecular point group: c1
  Charge       = 0
  Multiplicity = 1
  Basis Set: AUG-CC-PVTZ
    Blend: AUG-CC-PVTZ
  Basis Set: (AUG-CC-PVTZ AUX)
    Blend: AUG-CC-PVTZ-JKFIT

    Orbital Energies [Eh]
    ---------------------

    Doubly Occupied:

       1A    -92.172926     2A    -20.539136     3A    -20.539117
       4A    -11.280641     5A    -11.279481     6A    -11.268563
       7A    -11.268482     8A    -11.265995     9A    -11.259993
      10A    -11.259865    11A    -11.236408    12A     -9.142471
      13A     -6.826910    14A     -6.826362    15A     -6.826326
      16A     -1.427460    17A     -1.320840    18A     -1.180684
      19A     -1.083560    20A     -1.052563    21A     -1.041786
      22A     -0.928957    23A     -0.862799    24A     -0.853844
      25A     -0.797016    26A     -0.732185    27A     -0.681160
      28A     -0.670531    29A     -0.652538    30A     -0.652311
      31A     -0.636131    32A     -0.614064    33A     -0.611508
      34A     -0.573835    35A     -0.560821    36A     -0.542575
      37A     -0.531395    38A     -0.526913    39A     -0.521395
      40A     -0.489285    41A     -0.478899    42A     -0.462715
      43A     -0.415855    44A     -0.368091    45A     -0.360982

  @DF-RHF Final Energy:  -856.15092901247317

   => Energetics <=

    Nuclear Repulsion Energy =            725.7841512858261694
    One-Electron Energy =               -2614.6194066082348400
    Two-Electron Energy =                1032.6843263099353862
    Total Energy =                       -856.1509290124731706
  Basis Set: (AUG-CC-PVTZ AUX)
    Blend: AUG-CC-PVTZ-RI
    Molecular point group: c1

    Geometry (in Angstrom), charge = 0, multiplicity = 1:

       Center              X                  Y                   Z               Mass
    ------------   -----------------  -----------------  -----------------  -----------------
         S            1.098551589070     0.000001745568    -0.427702786409    31.972071174400
         O            1.448255589070    -1.283440254432    -1.059785786409    15.994914619570
         O            1.448254589070     1.283448745568    -1.059778786409    15.994914619570
         C            1.836822789070    -0.000001454432     1.318984413591    12.000000000000
         C           -0.657027410930     0.000000745568    -0.126048786409    12.000000000000
         C            3.319926589070    -0.000006254432     1.147773213591    12.000000000000
         C           -1.323753410930     1.220548745568     0.003021213591    12.000000000000
         C           -1.323752410930    -1.220549254432     0.003016213591    12.000000000000
         C           -2.693300410930     1.212034745568     0.270359213591    12.000000000000
         C           -2.693299410930    -1.212038254432     0.270353213591    12.000000000000
         C           -3.374733410930    -0.000002254432     0.411294213591    12.000000000000
         H            1.410162589070     0.891162745568     1.729454213591     1.007825032230
         H            1.410156589070    -0.891164254432     1.729453213591     1.007825032230
         H            3.738211589070    -0.000005254432     2.157120213591     1.007825032230
         H            3.674654589070    -0.887770254432     0.620697213591     1.007825032230
         H            3.674659589070     0.887752745568     0.620693213591     1.007825032230
         H           -0.779940410930     2.150845745568    -0.138212786409     1.007825032230
         H           -0.779937410930    -2.150845254432    -0.138222786409     1.007825032230
         H           -3.230114410930     2.152527745568     0.365320213591     1.007825032230
         H           -3.230111410930    -2.152533254432     0.365311213591     1.007825032230
         H           -4.442051410930    -0.000003254432     0.618099213591     1.007825032230

  Basis Set: AUG-CC-PVTZ
    Blend: AUG-CC-PVTZ
  Basis Set: (AUG-CC-PVTZ AUX)
    Blend: AUG-CC-PVTZ-JKFIT
	 Reference Energy          =    -856.1509290124731706 [Eh]
	 Singles Energy            =      -0.0000000000000000 [Eh]
	 Same-Spin Energy          =      -0.5492419027350085 [Eh]
	 Opposite-Spin Energy      =      -1.6760066777107083 [Eh]
	 Correlation Energy        =      -2.2252485804457169 [Eh]
	 Total Energy              =    -858.3761775929189071 [Eh]

	 ================> DF-SCS-MP2 Energies <==================
	-----------------------------------------------------------
	 SCS Same-Spin Scale       =       0.3333333333333333 [-]
	 SCS Opposite-Spin Scale   =       1.2000000000000000 [-]
	 SCS Same-Spin Energy      =      -0.1830806342450028 [Eh]
	 SCS Opposite-Spin Energy  =      -2.0112080132528498 [Eh]
	 SCS Correlation Energy    =      -2.1942886474978525 [Eh]
	 SCS Total Energy          =    -858.3452176599710128 [Eh]
	-----------------------------------------------------------

  Dipole Moment: [D]
     X:    -2.6624      Y:    -0.0000      Z:     4.0766     Total:     4.8690

*** Psi4 exiting successfully. Buy a developer a beer!
