                               Psi4 1.3.2 release

  ==> Input File <==

--------------------------------------------------------------------------
#psi4
#
memory 32 gb

molecule  {
0 1
  S        1.2100470     0.0000016    -0.5098980
  O        1.4426300    -1.2834400    -1.0972280
  O        1.4426290     1.2834490    -1.0972210
  C        1.7922650    -0.0000010     1.1894320
  C       -0.6626530     0.0000010    -0.1634910
  C        3.3143010    -0.0000060     1.1103310
  C       -1.3293790     1.2205490    -0.0344210
  C       -1.3293780    -1.2205490    -0.0344260
  C       -2.6989260     1.2120350     0.2329170
  C       -2.6989250    -1.2120380     0.2329110
  C       -3.3803590    -0.0000020     0.3738520
  H        1.4045370     0.8911630     1.6920120
  H        1.4045310    -0.8911640     1.6920110
  H        3.7325860    -0.0000050     2.1196780
  H        3.6690290    -0.8877700     0.5832550
  H        3.6690340     0.8877530     0.5832510
  H       -0.7855660     2.1508460    -0.1756550
  H       -0.7855630    -2.1508450    -0.1756650
  H       -3.2357400     2.1525280     0.3278780
  H       -3.2357370    -2.1525330     0.3278690
  H       -4.4476770    -0.0000030     0.5806570
units angstrom
no_reorient  #important for SAPT in psi4, default
symmetry c1  #important for SAPT in psi4, default
}

set PROPERTIES_ORIGIN ["COM"]
properties('MP2/aug-cc-pvtz', properties = ['dipole'])
--------------------------------------------------------------------------

    Molecular point group: c1
  Charge       = 0
  Multiplicity = 1
  Basis Set: AUG-CC-PVTZ
    Blend: AUG-CC-PVTZ
  Basis Set: (AUG-CC-PVTZ AUX)
    Blend: AUG-CC-PVTZ-JKFIT

    Orbital Energies [Eh]
    ---------------------

    Doubly Occupied:

       1A    -92.180717     2A    -20.553261     3A    -20.553241
       4A    -11.279707     5A    -11.270571     6A    -11.256037
       7A    -11.255978     8A    -11.254519     9A    -11.251547
      10A    -11.251302    11A    -11.241555    12A     -9.150177
      13A     -6.834736    14A     -6.834599    15A     -6.834158
      16A     -1.464528    17A     -1.359934    18A     -1.167478
      19A     -1.086918    20A     -1.033720    21A     -1.031419
      22A     -0.926400    23A     -0.846029    24A     -0.842214
      25A     -0.796024    26A     -0.731160    27A     -0.689703
      28A     -0.671406    29A     -0.663115    30A     -0.641470
      31A     -0.632458    32A     -0.627514    33A     -0.604848
      34A     -0.574477    35A     -0.555494    36A     -0.540747
      37A     -0.532664    38A     -0.516685    39A     -0.513834
      40A     -0.510457    41A     -0.490704    42A     -0.485955
      43A     -0.417460    44A     -0.355766    45A     -0.351979

  @DF-RHF Final Energy:  -856.14664185152731

   => Energetics <=

    Nuclear Repulsion Energy =            726.7330559218187318
    One-Electron Energy =               -2616.4300680095852840
    Two-Electron Energy =                1033.5503702362393597
    Total Energy =                       -856.1466418515271926
  Basis Set: (AUG-CC-PVTZ AUX)
    Blend: AUG-CC-PVTZ-RI
    Molecular point group: c1

    Geometry (in Angstrom), charge = 0, multiplicity = 1:

       Center              X                  Y                   Z               Mass
    ------------   -----------------  -----------------  -----------------  -----------------
         S            1.196398232197     0.000001406665    -0.457540670831    31.972071174400
         O            1.428981232197    -1.283440193335    -1.044870670831    15.994914619570
         O            1.428980232197     1.283448806665    -1.044863670831    15.994914619570
         C            1.778616232197    -0.000001193335     1.241789329169    12.000000000000
         C           -0.676301767803     0.000000806665    -0.111133670831    12.000000000000
         C            3.300652232197    -0.000006193335     1.162688329169    12.000000000000
         C           -1.343027767803     1.220548806665     0.017936329169    12.000000000000
         C           -1.343026767803    -1.220549193335     0.017931329169    12.000000000000
         C           -2.712574767803     1.212034806665     0.285274329169    12.000000000000
         C           -2.712573767803    -1.212038193335     0.285268329169    12.000000000000
         C           -3.394007767803    -0.000002193335     0.426209329169    12.000000000000
         H            1.390888232197     0.891162806665     1.744369329169     1.007825032230
         H            1.390882232197    -0.891164193335     1.744368329169     1.007825032230
         H            3.718937232197    -0.000005193335     2.172035329169     1.007825032230
         H            3.655380232197    -0.887770193335     0.635612329169     1.007825032230
         H            3.655385232197     0.887752806665     0.635608329169     1.007825032230
         H           -0.799214767803     2.150845806665    -0.123297670831     1.007825032230
         H           -0.799211767803    -2.150845193335    -0.123307670831     1.007825032230
         H           -3.249388767803     2.152527806665     0.380235329169     1.007825032230
         H           -3.249385767803    -2.152533193335     0.380226329169     1.007825032230
         H           -4.461325767803    -0.000003193335     0.633014329169     1.007825032230

  Basis Set: AUG-CC-PVTZ
    Blend: AUG-CC-PVTZ
  Basis Set: (AUG-CC-PVTZ AUX)
    Blend: AUG-CC-PVTZ-JKFIT
	 Reference Energy          =    -856.1466418515273062 [Eh]
	 Singles Energy            =      -0.0000000000000000 [Eh]
	 Same-Spin Energy          =      -0.5481788313401499 [Eh]
	 Opposite-Spin Energy      =      -1.6743422496667224 [Eh]
	 Correlation Energy        =      -2.2225210810068723 [Eh]
	 Total Energy              =    -858.3691629325342092 [Eh]

	 ================> DF-SCS-MP2 Energies <==================
	-----------------------------------------------------------
	 SCS Same-Spin Scale       =       0.3333333333333333 [-]
	 SCS Opposite-Spin Scale   =       1.2000000000000000 [-]
	 SCS Same-Spin Energy      =      -0.1827262771133833 [Eh]
	 SCS Opposite-Spin Energy  =      -2.0092106996000667 [Eh]
	 SCS Correlation Energy    =      -2.1919369767134498 [Eh]
	 SCS Total Energy          =    -858.3385788282407702 [Eh]
	-----------------------------------------------------------

  Dipole Moment: [D]
     X:    -1.3431      Y:    -0.0000      Z:     3.7212     Total:     3.9561

*** Psi4 exiting successfully. Buy a developer a beer!
