                               Psi4 1.3.2 release

  ==> Input File <==

--------------------------------------------------------------------------
#psi4
#
memory 32 gb

molecule  {
0 1
  S        1.1510959     0.0000018    -0.4885437
  O        1.4426300    -1.2834400    -1.0972280
  O        1.4426290     1.2834490    -1.0972210
  C        1.7922650    -0.0000010     1.1894320
  C       -0.6626530     0.0000010    -0.1634910
  C        3.3143010    -0.0000060     1.1103310
  C       -1.3293790     1.2205490    -0.0344210
  C       -1.3293780    -1.2205490    -0.0344260
  C       -2.6989260     1.2120350     0.2329170
  C       -2.6989250    -1.2120380     0.2329110
  C       -3.3803590    -0.0000020     0.3738520
  H        1.4045370     0.8911630     1.6920120
  H        1.4045310    -0.8911640     1.6920110
  H        3.7325860    -0.0000050     2.1196780
  H        3.6690290    -0.8877700     0.5832550
  H        3.6690340     0.8877530     0.5832510
  H       -0.7855660     2.1508460    -0.1756550
  H       -0.7855630    -2.1508450    -0.1756650
  H       -3.2357400     2.1525280     0.3278780
  H       -3.2357370    -2.1525330     0.3278690
  H       -4.4476770    -0.0000030     0.5806570
units angstrom
no_reorient  #important for SAPT in psi4, default
symmetry c1  #important for SAPT in psi4, default
}

set PROPERTIES_ORIGIN ["COM"]
properties('MP2/aug-cc-pvtz', properties = ['dipole'])
--------------------------------------------------------------------------

    Molecular point group: c1
  Charge       = 0
  Multiplicity = 1
  Basis Set: AUG-CC-PVTZ
    Blend: AUG-CC-PVTZ
  Basis Set: (AUG-CC-PVTZ AUX)
    Blend: AUG-CC-PVTZ-JKFIT

    Orbital Energies [Eh]
    ---------------------

    Doubly Occupied:

       1A    -92.179025     2A    -20.546430     3A    -20.546411
       4A    -11.278263     5A    -11.276063     6A    -11.262627
       7A    -11.262560     8A    -11.260493     9A    -11.256019
      10A    -11.255851    11A    -11.239436    12A     -9.148386
      13A     -6.832947    14A     -6.832584    15A     -6.832470
      16A     -1.448381    17A     -1.341932    18A     -1.174337
      19A     -1.085164    20A     -1.042769    21A     -1.036887
      22A     -0.930276    23A     -0.854154    24A     -0.848303
      25A     -0.795370    26A     -0.733378    27A     -0.686816
      28A     -0.668261    29A     -0.659940    30A     -0.645442
      31A     -0.635120    32A     -0.619905    33A     -0.609707
      34A     -0.572636    35A     -0.552446    36A     -0.542174
      37A     -0.529274    38A     -0.521368    39A     -0.516898
      40A     -0.501625    41A     -0.486827    42A     -0.474557
      43A     -0.426754    44A     -0.362646    45A     -0.356720

  @DF-RHF Final Energy:  -856.15622299672054

   => Energetics <=

    Nuclear Repulsion Energy =            727.3845036729221647
    One-Electron Energy =               -2617.7421926017759688
    Two-Electron Energy =                1034.2014659321332601
    Total Energy =                       -856.1562229967205440
  Basis Set: (AUG-CC-PVTZ AUX)
    Blend: AUG-CC-PVTZ-RI
    Molecular point group: c1

    Geometry (in Angstrom), charge = 0, multiplicity = 1:

       Center              X                  Y                   Z               Mass
    ------------   -----------------  -----------------  -----------------  -----------------
         S            1.148531507016     0.000001569059    -0.440201547226    31.972071174400
         O            1.440065607016    -1.283440230941    -1.048885847226    15.994914619570
         O            1.440064607016     1.283448769059    -1.048878847226    15.994914619570
         C            1.789700607016    -0.000001230941     1.237774152774    12.000000000000
         C           -0.665217392984     0.000000769059    -0.115148847226    12.000000000000
         C            3.311736607016    -0.000006230941     1.158673152774    12.000000000000
         C           -1.331943392984     1.220548769059     0.013921152774    12.000000000000
         C           -1.331942392984    -1.220549230941     0.013916152774    12.000000000000
         C           -2.701490392984     1.212034769059     0.281259152774    12.000000000000
         C           -2.701489392984    -1.212038230941     0.281253152774    12.000000000000
         C           -3.382923392984    -0.000002230941     0.422194152774    12.000000000000
         H            1.401972607016     0.891162769059     1.740354152774     1.007825032230
         H            1.401966607016    -0.891164230941     1.740353152774     1.007825032230
         H            3.730021607016    -0.000005230941     2.168020152774     1.007825032230
         H            3.666464607016    -0.887770230941     0.631597152774     1.007825032230
         H            3.666469607016     0.887752769059     0.631593152774     1.007825032230
         H           -0.788130392984     2.150845769059    -0.127312847226     1.007825032230
         H           -0.788127392984    -2.150845230941    -0.127322847226     1.007825032230
         H           -3.238304392984     2.152527769059     0.376220152774     1.007825032230
         H           -3.238301392984    -2.152533230941     0.376211152774     1.007825032230
         H           -4.450241392984    -0.000003230941     0.628999152774     1.007825032230

  Basis Set: AUG-CC-PVTZ
    Blend: AUG-CC-PVTZ
  Basis Set: (AUG-CC-PVTZ AUX)
    Blend: AUG-CC-PVTZ-JKFIT
	 Reference Energy          =    -856.1562229967205440 [Eh]
	 Singles Energy            =      -0.0000000000000000 [Eh]
	 Same-Spin Energy          =      -0.5483657692433335 [Eh]
	 Opposite-Spin Energy      =      -1.6743572739072679 [Eh]
	 Correlation Energy        =      -2.2227230431506015 [Eh]
	 Total Energy              =    -858.3789460398711526 [Eh]

	 ================> DF-SCS-MP2 Energies <==================
	-----------------------------------------------------------
	 SCS Same-Spin Scale       =       0.3333333333333333 [-]
	 SCS Opposite-Spin Scale   =       1.2000000000000000 [-]
	 SCS Same-Spin Energy      =      -0.1827885897477778 [Eh]
	 SCS Opposite-Spin Energy  =      -2.0092287286887212 [Eh]
	 SCS Correlation Energy    =      -2.1920173184364988 [Eh]
	 SCS Total Energy          =    -858.3482403151569997 [Eh]
	-----------------------------------------------------------

  Dipole Moment: [D]
     X:    -2.0154      Y:    -0.0000      Z:     3.9209     Total:     4.4085

*** Psi4 exiting successfully. Buy a developer a beer!
