                               Psi4 1.3.2 release

  ==> Input File <==

--------------------------------------------------------------------------
#psi4
#
memory 32 gb

molecule  {
0 1
  S        1.1237907    -0.0532709    -0.4770027
  O        1.4426300    -1.2834400    -1.0972280
  O        1.4426290     1.2834490    -1.0972210
  C        1.7922650    -0.0000010     1.1894320
  C       -0.6626530     0.0000010    -0.1634910
  C        3.3143010    -0.0000060     1.1103310
  C       -1.3293790     1.2205490    -0.0344210
  C       -1.3293780    -1.2205490    -0.0344260
  C       -2.6989260     1.2120350     0.2329170
  C       -2.6989250    -1.2120380     0.2329110
  C       -3.3803590    -0.0000020     0.3738520
  H        1.4045370     0.8911630     1.6920120
  H        1.4045310    -0.8911640     1.6920110
  H        3.7325860    -0.0000050     2.1196780
  H        3.6690290    -0.8877700     0.5832550
  H        3.6690340     0.8877530     0.5832510
  H       -0.7855660     2.1508460    -0.1756550
  H       -0.7855630    -2.1508450    -0.1756650
  H       -3.2357400     2.1525280     0.3278780
  H       -3.2357370    -2.1525330     0.3278690
  H       -4.4476770    -0.0000030     0.5806570
units angstrom
no_reorient  #important for SAPT in psi4, default
symmetry c1  #important for SAPT in psi4, default
}

set PROPERTIES_ORIGIN ["COM"]
properties('MP2/aug-cc-pvtz', properties = ['dipole'])
--------------------------------------------------------------------------

    Molecular point group: c1
  Charge       = 0
  Multiplicity = 1
  Basis Set: AUG-CC-PVTZ
    Blend: AUG-CC-PVTZ
  Basis Set: (AUG-CC-PVTZ AUX)
    Blend: AUG-CC-PVTZ-JKFIT

    Orbital Energies [Eh]
    ---------------------

    Doubly Occupied:

       1A    -92.177389     2A    -20.553559     3A    -20.532797
       4A    -11.278126     5A    -11.277958     6A    -11.265777
       7A    -11.265427     8A    -11.263254     9A    -11.258035
      10A    -11.257872    11A    -11.238599    12A     -9.147335
      13A     -6.831867    14A     -6.831675    15A     -6.831116
      16A     -1.452106    17A     -1.322776    18A     -1.177504
      19A     -1.084900    20A     -1.046939    21A     -1.039292
      22A     -0.932559    23A     -0.858071    24A     -0.850960
      25A     -0.795631    26A     -0.734773    27A     -0.687494
      28A     -0.668002    29A     -0.660779    30A     -0.646906
      31A     -0.636581    32A     -0.616140    33A     -0.611846
      34A     -0.572798    35A     -0.551598    36A     -0.544339
      37A     -0.527662    38A     -0.523948    39A     -0.519260
      40A     -0.495394    41A     -0.485855    42A     -0.463198
      43A     -0.427838    44A     -0.365720    45A     -0.358825

  @DF-RHF Final Energy:  -856.15285423265652

   => Energetics <=

    Nuclear Repulsion Energy =            727.7166530802647912
    One-Electron Energy =               -2618.3980571185793451
    Two-Electron Energy =                1034.5285498056582583
    Total Energy =                       -856.1528542326564093
  Basis Set: (AUG-CC-PVTZ AUX)
    Blend: AUG-CC-PVTZ-RI
    Molecular point group: c1

    Geometry (in Angstrom), charge = 0, multiplicity = 1:

       Center              X                  Y                   Z               Mass
    ------------   -----------------  -----------------  -----------------  -----------------
         S            1.126360410897    -0.043254446360    -0.430830562201    31.972071174400
         O            1.445199710897    -1.273423546360    -1.051055862201    15.994914619570
         O            1.445198710897     1.293465453640    -1.051048862201    15.994914619570
         C            1.794834710897     0.010015453640     1.235604137799    12.000000000000
         C           -0.660083289103     0.010017453640    -0.117318862201    12.000000000000
         C            3.316870710897     0.010010453640     1.156503137799    12.000000000000
         C           -1.326809289103     1.230565453640     0.011751137799    12.000000000000
         C           -1.326808289103    -1.210532546360     0.011746137799    12.000000000000
         C           -2.696356289103     1.222051453640     0.279089137799    12.000000000000
         C           -2.696355289103    -1.202021546360     0.279083137799    12.000000000000
         C           -3.377789289103     0.010014453640     0.420024137799    12.000000000000
         H            1.407106710897     0.901179453640     1.738184137799     1.007825032230
         H            1.407100710897    -0.881147546360     1.738183137799     1.007825032230
         H            3.735155710897     0.010011453640     2.165850137799     1.007825032230
         H            3.671598710897    -0.877753546360     0.629427137799     1.007825032230
         H            3.671603710897     0.897769453640     0.629423137799     1.007825032230
         H           -0.782996289103     2.160862453640    -0.129482862201     1.007825032230
         H           -0.782993289103    -2.140828546360    -0.129492862201     1.007825032230
         H           -3.233170289103     2.162544453640     0.374050137799     1.007825032230
         H           -3.233167289103    -2.142516546360     0.374041137799     1.007825032230
         H           -4.445107289103     0.010013453640     0.626829137799     1.007825032230

  Basis Set: AUG-CC-PVTZ
    Blend: AUG-CC-PVTZ
  Basis Set: (AUG-CC-PVTZ AUX)
    Blend: AUG-CC-PVTZ-JKFIT
	 Reference Energy          =    -856.1528542326565230 [Eh]
	 Singles Energy            =      -0.0000000000000000 [Eh]
	 Same-Spin Energy          =      -0.5484963590642924 [Eh]
	 Opposite-Spin Energy      =      -1.6745747317833988 [Eh]
	 Correlation Energy        =      -2.2230710908476912 [Eh]
	 Total Energy              =    -858.3759253235042479 [Eh]

	 ================> DF-SCS-MP2 Energies <==================
	-----------------------------------------------------------
	 SCS Same-Spin Scale       =       0.3333333333333333 [-]
	 SCS Opposite-Spin Scale   =       1.2000000000000000 [-]
	 SCS Same-Spin Energy      =      -0.1828321196880975 [Eh]
	 SCS Opposite-Spin Energy  =      -2.0094896781400786 [Eh]
	 SCS Correlation Energy    =      -2.1923217978281762 [Eh]
	 SCS Total Energy          =    -858.3451760304847085 [Eh]
	-----------------------------------------------------------

  Dipole Moment: [D]
     X:    -2.3247      Y:    -0.4140      Z:     4.0306     Total:     4.6713

*** Psi4 exiting successfully. Buy a developer a beer!
