                               Psi4 1.3.2 release

  ==> Input File <==

--------------------------------------------------------------------------
#psi4
#
memory 32 gb

molecule  {
0 1
  S        0.9792121     0.0000024    -0.4123311
  O        1.4426300    -1.2834400    -1.0972280
  O        1.4426290     1.2834490    -1.0972210
  C        1.7922650    -0.0000010     1.1894320
  C       -0.6626530     0.0000010    -0.1634910
  C        3.3143010    -0.0000060     1.1103310
  C       -1.3293790     1.2205490    -0.0344210
  C       -1.3293780    -1.2205490    -0.0344260
  C       -2.6989260     1.2120350     0.2329170
  C       -2.6989250    -1.2120380     0.2329110
  C       -3.3803590    -0.0000020     0.3738520
  H        1.4045370     0.8911630     1.6920120
  H        1.4045310    -0.8911640     1.6920110
  H        3.7325860    -0.0000050     2.1196780
  H        3.6690290    -0.8877700     0.5832550
  H        3.6690340     0.8877530     0.5832510
  H       -0.7855660     2.1508460    -0.1756550
  H       -0.7855630    -2.1508450    -0.1756650
  H       -3.2357400     2.1525280     0.3278780
  H       -3.2357370    -2.1525330     0.3278690
  H       -4.4476770    -0.0000030     0.5806570
units angstrom
no_reorient  #important for SAPT in psi4, default
symmetry c1  #important for SAPT in psi4, default
}

set PROPERTIES_ORIGIN ["COM"]
properties('MP2/aug-cc-pvtz', properties = ['dipole'])
--------------------------------------------------------------------------

    Molecular point group: c1
  Charge       = 0
  Multiplicity = 1
  Basis Set: AUG-CC-PVTZ
    Blend: AUG-CC-PVTZ
  Basis Set: (AUG-CC-PVTZ AUX)
    Blend: AUG-CC-PVTZ-JKFIT

    Orbital Energies [Eh]
    ---------------------

    Doubly Occupied:

       1A    -92.172380     2A    -20.526776     3A    -20.526757
       4A    -11.284009     5A    -11.282359     6A    -11.281908
       7A    -11.279014     8A    -11.277884     9A    -11.268691
      10A    -11.268612    11A    -11.234702    12A     -9.143921
      13A     -6.828435    14A     -6.827795    15A     -6.827291
      16A     -1.394855    17A     -1.280841    18A     -1.196106
      19A     -1.094918    20A     -1.062103    21A     -1.052842
      22A     -0.948336    23A     -0.875630    24A     -0.866634
      25A     -0.799746    26A     -0.737295    27A     -0.688557
      28A     -0.674590    29A     -0.649655    30A     -0.647856
      31A     -0.636315    32A     -0.623850    33A     -0.587157
      34A     -0.575123    35A     -0.546890    36A     -0.539786
      37A     -0.533695    38A     -0.531589    39A     -0.519742
      40A     -0.473387    41A     -0.465895    42A     -0.436923
      43A     -0.430479    44A     -0.381966    45A     -0.370396

  @DF-RHF Final Energy:  -856.13357508475247

   => Energetics <=

    Nuclear Repulsion Energy =            729.1066194911547882
    One-Electron Energy =               -2621.1730061856005705
    Two-Electron Energy =                1035.9328116096933172
    Total Energy =                       -856.1335750847524650
  Basis Set: (AUG-CC-PVTZ AUX)
    Blend: AUG-CC-PVTZ-RI
    Molecular point group: c1

    Geometry (in Angstrom), charge = 0, multiplicity = 1:

       Center              X                  Y                   Z               Mass
    ------------   -----------------  -----------------  -----------------  -----------------
         S            1.008966433291     0.000002056243    -0.378318943177    31.972071174400
         O            1.472384333291    -1.283440343757    -1.063215843177    15.994914619570
         O            1.472383333291     1.283448656243    -1.063208843177    15.994914619570
         C            1.822019333291    -0.000001343757     1.223444156823    12.000000000000
         C           -0.632898666709     0.000000656243    -0.129478843177    12.000000000000
         C            3.344055333291    -0.000006343757     1.144343156823    12.000000000000
         C           -1.299624666709     1.220548656243    -0.000408843177    12.000000000000
         C           -1.299623666709    -1.220549343757    -0.000413843177    12.000000000000
         C           -2.669171666709     1.212034656243     0.266929156823    12.000000000000
         C           -2.669170666709    -1.212038343757     0.266923156823    12.000000000000
         C           -3.350604666709    -0.000002343757     0.407864156823    12.000000000000
         H            1.434291333291     0.891162656243     1.726024156823     1.007825032230
         H            1.434285333291    -0.891164343757     1.726023156823     1.007825032230
         H            3.762340333291    -0.000005343757     2.153690156823     1.007825032230
         H            3.698783333291    -0.887770343757     0.617267156823     1.007825032230
         H            3.698788333291     0.887752656243     0.617263156823     1.007825032230
         H           -0.755811666709     2.150845656243    -0.141642843177     1.007825032230
         H           -0.755808666709    -2.150845343757    -0.141652843177     1.007825032230
         H           -3.205985666709     2.152527656243     0.361890156823     1.007825032230
         H           -3.205982666709    -2.152533343757     0.361881156823     1.007825032230
         H           -4.417922666709    -0.000003343757     0.614669156823     1.007825032230

  Basis Set: AUG-CC-PVTZ
    Blend: AUG-CC-PVTZ
  Basis Set: (AUG-CC-PVTZ AUX)
    Blend: AUG-CC-PVTZ-JKFIT
	 Reference Energy          =    -856.1335750847524650 [Eh]
	 Singles Energy            =      -0.0000000000000000 [Eh]
	 Same-Spin Energy          =      -0.5510736865742307 [Eh]
	 Opposite-Spin Energy      =      -1.6789080354373349 [Eh]
	 Correlation Energy        =      -2.2299817220115656 [Eh]
	 Total Energy              =    -858.3635568067639952 [Eh]

	 ================> DF-SCS-MP2 Energies <==================
	-----------------------------------------------------------
	 SCS Same-Spin Scale       =       0.3333333333333333 [-]
	 SCS Opposite-Spin Scale   =       1.2000000000000000 [-]
	 SCS Same-Spin Energy      =      -0.1836912288580769 [Eh]
	 SCS Opposite-Spin Energy  =      -2.0146896425248020 [Eh]
	 SCS Correlation Energy    =      -2.1983808713828790 [Eh]
	 SCS Total Energy          =    -858.3319559561352889 [Eh]
	-----------------------------------------------------------

  Dipole Moment: [D]
     X:    -3.9419      Y:    -0.0000      Z:     4.6140     Total:     6.0686

*** Psi4 exiting successfully. Buy a developer a beer!
