                               Psi4 1.3.2 release

  ==> Input File <==

--------------------------------------------------------------------------
#psi4
#
memory 32 gb

molecule  {
0 1
  S        1.0929260     0.0000020    -0.4651450
  O        1.4426300    -1.2834400    -1.0972280
  O        1.4426290     1.2834490    -1.0972210
  C        1.9059789    -0.0000009     1.1366181
  C       -0.6626530     0.0000010    -0.1634910
  C        3.3143010    -0.0000060     1.1103310
  C       -1.3293790     1.2205490    -0.0344210
  C       -1.3293780    -1.2205490    -0.0344260
  C       -2.6989260     1.2120350     0.2329170
  C       -2.6989250    -1.2120380     0.2329110
  C       -3.3803590    -0.0000020     0.3738520
  H        1.4045370     0.8911630     1.6920120
  H        1.4045310    -0.8911640     1.6920110
  H        3.7325860    -0.0000050     2.1196780
  H        3.6690290    -0.8877700     0.5832550
  H        3.6690340     0.8877530     0.5832510
  H       -0.7855660     2.1508460    -0.1756550
  H       -0.7855630    -2.1508450    -0.1756650
  H       -3.2357400     2.1525280     0.3278780
  H       -3.2357370    -2.1525330     0.3278690
  H       -4.4476770    -0.0000030     0.5806570
units angstrom
no_reorient  #important for SAPT in psi4, default
symmetry c1  #important for SAPT in psi4, default
}

set PROPERTIES_ORIGIN ["COM"]
properties('MP2/aug-cc-pvtz', properties = ['dipole'])
--------------------------------------------------------------------------

    Molecular point group: c1
  Charge       = 0
  Multiplicity = 1
  Basis Set: AUG-CC-PVTZ
    Blend: AUG-CC-PVTZ
  Basis Set: (AUG-CC-PVTZ AUX)
    Blend: AUG-CC-PVTZ-JKFIT

    Orbital Energies [Eh]
    ---------------------

    Doubly Occupied:

       1A    -92.176582     2A    -20.536407     3A    -20.536389
       4A    -11.283420     5A    -11.283207     6A    -11.271560
       7A    -11.271483     8A    -11.268839     9A    -11.261616
      10A    -11.261508    11A    -11.230494    12A     -9.146248
      13A     -6.830699    14A     -6.830426    15A     -6.830125
      16A     -1.429522    17A     -1.320355    18A     -1.183099
      19A     -1.099092    20A     -1.057560    21A     -1.043963
      22A     -0.938389    23A     -0.858756    24A     -0.856013
      25A     -0.790266    26A     -0.735477    27A     -0.688008
      28A     -0.664380    29A     -0.654013    30A     -0.645815
      31A     -0.639245    32A     -0.616035    33A     -0.609531
      34A     -0.598294    35A     -0.550468    36A     -0.544281
      37A     -0.531082    38A     -0.523666    39A     -0.503246
      40A     -0.486241    41A     -0.478645    42A     -0.455739
      43A     -0.428873    44A     -0.372404    45A     -0.362690

  @DF-RHF Final Energy:  -856.13973852443144

   => Energetics <=

    Nuclear Repulsion Energy =            728.3672890451703097
    One-Electron Energy =               -2619.6457488102605566
    Two-Electron Energy =                1035.1387212406589242
    Total Energy =                       -856.1397385244313227
  Basis Set: (AUG-CC-PVTZ AUX)
    Blend: AUG-CC-PVTZ-RI
    Molecular point group: c1

    Geometry (in Angstrom), charge = 0, multiplicity = 1:

       Center              X                  Y                   Z               Mass
    ------------   -----------------  -----------------  -----------------  -----------------
         S            1.093274127270     0.000001724397    -0.417475265483    31.972071174400
         O            1.442978127270    -1.283440275603    -1.049558265483    15.994914619570
         O            1.442977127270     1.283448724397    -1.049551265483    15.994914619570
         C            1.906327027270    -0.000001175603     1.184287834517    12.000000000000
         C           -0.662304872730     0.000000724397    -0.115821265483    12.000000000000
         C            3.314649127270    -0.000006275603     1.158000734517    12.000000000000
         C           -1.329030872730     1.220548724397     0.013248734517    12.000000000000
         C           -1.329029872730    -1.220549275603     0.013243734517    12.000000000000
         C           -2.698577872730     1.212034724397     0.280586734517    12.000000000000
         C           -2.698576872730    -1.212038275603     0.280580734517    12.000000000000
         C           -3.380010872730    -0.000002275603     0.421521734517    12.000000000000
         H            1.404885127270     0.891162724397     1.739681734517     1.007825032230
         H            1.404879127270    -0.891164275603     1.739680734517     1.007825032230
         H            3.732934127270    -0.000005275603     2.167347734517     1.007825032230
         H            3.669377127270    -0.887770275603     0.630924734517     1.007825032230
         H            3.669382127270     0.887752724397     0.630920734517     1.007825032230
         H           -0.785217872730     2.150845724397    -0.127985265483     1.007825032230
         H           -0.785214872730    -2.150845275603    -0.127995265483     1.007825032230
         H           -3.235391872730     2.152527724397     0.375547734517     1.007825032230
         H           -3.235388872730    -2.152533275603     0.375538734517     1.007825032230
         H           -4.447328872730    -0.000003275603     0.628326734517     1.007825032230

  Basis Set: AUG-CC-PVTZ
    Blend: AUG-CC-PVTZ
  Basis Set: (AUG-CC-PVTZ AUX)
    Blend: AUG-CC-PVTZ-JKFIT
	 Reference Energy          =    -856.1397385244314364 [Eh]
	 Singles Energy            =      -0.0000000000000000 [Eh]
	 Same-Spin Energy          =      -0.5500680925878900 [Eh]
	 Opposite-Spin Energy      =      -1.6764415436883560 [Eh]
	 Correlation Energy        =      -2.2265096362762460 [Eh]
	 Total Energy              =    -858.3662481607076415 [Eh]

	 ================> DF-SCS-MP2 Energies <==================
	-----------------------------------------------------------
	 SCS Same-Spin Scale       =       0.3333333333333333 [-]
	 SCS Opposite-Spin Scale   =       1.2000000000000000 [-]
	 SCS Same-Spin Energy      =      -0.1833560308626300 [Eh]
	 SCS Opposite-Spin Energy  =      -2.0117298524260270 [Eh]
	 SCS Correlation Energy    =      -2.1950858832886571 [Eh]
	 SCS Total Energy          =    -858.3348244077201343 [Eh]
	-----------------------------------------------------------

  Dipole Moment: [D]
     X:    -2.7902      Y:    -0.0000      Z:     4.1620     Total:     5.0107

*** Psi4 exiting successfully. Buy a developer a beer!
