                               Psi4 1.3.2 release

  ==> Input File <==

--------------------------------------------------------------------------
#psi4
#
memory 32 gb

molecule  {
0 1
  S        0.9238067     0.0000025    -0.3829802
  O        1.4426300    -1.2834400    -1.0972280
  O        1.4426290     1.2834490    -1.0972210
  C        1.7922650    -0.0000010     1.1894320
  C       -0.6626530     0.0000010    -0.1634910
  C        3.3143010    -0.0000060     1.1103310
  C       -1.3293790     1.2205490    -0.0344210
  C       -1.3293780    -1.2205490    -0.0344260
  C       -2.6989260     1.2120350     0.2329170
  C       -2.6989250    -1.2120380     0.2329110
  C       -3.3803590    -0.0000020     0.3738520
  H        1.4045370     0.8911630     1.6920120
  H        1.4045310    -0.8911640     1.6920110
  H        3.7325860    -0.0000050     2.1196780
  H        3.6690290    -0.8877700     0.5832550
  H        3.6690340     0.8877530     0.5832510
  H       -0.7855660     2.1508460    -0.1756550
  H       -0.7855630    -2.1508450    -0.1756650
  H       -3.2357400     2.1525280     0.3278780
  H       -3.2357370    -2.1525330     0.3278690
  H       -4.4476770    -0.0000030     0.5806570
units angstrom
no_reorient  #important for SAPT in psi4, default
symmetry c1  #important for SAPT in psi4, default
}

set PROPERTIES_ORIGIN ["COM"]
properties('MP2/aug-cc-pvtz', properties = ['dipole'])
--------------------------------------------------------------------------

    Molecular point group: c1
  Charge       = 0
  Multiplicity = 1
  Basis Set: AUG-CC-PVTZ
    Blend: AUG-CC-PVTZ
  Basis Set: (AUG-CC-PVTZ AUX)
    Blend: AUG-CC-PVTZ-JKFIT

    Orbital Energies [Eh]
    ---------------------

    Doubly Occupied:

       1A    -92.167518     2A    -20.520220     3A    -20.520202
       4A    -11.289222     5A    -11.289105     6A    -11.285524
       7A    -11.283555     8A    -11.278341     9A    -11.272865
      10A    -11.272799    11A    -11.233300    12A     -9.140977
      13A     -6.825482    14A     -6.824570    15A     -6.824013
      16A     -1.376992    17A     -1.259143    18A     -1.203733
      19A     -1.104663    20A     -1.063340    21A     -1.058200
      22A     -0.955563    23A     -0.880984    24A     -0.873013
      25A     -0.802567    26A     -0.738363    27A     -0.690098
      28A     -0.680701    29A     -0.648825    30A     -0.648619
      31A     -0.631842    32A     -0.628551    33A     -0.577153
      34A     -0.575109    35A     -0.548607    36A     -0.537748
      37A     -0.535381    38A     -0.535054    39A     -0.515965
      40A     -0.467086    41A     -0.453667    42A     -0.425389
      43A     -0.424028    44A     -0.387567    45A     -0.374938

  @DF-RHF Final Energy:  -856.10691476712111

   => Energetics <=

    Nuclear Repulsion Energy =            729.6875723994694454
    One-Electron Energy =               -2622.3278057318998435
    Two-Electron Energy =                1036.5333185653094006
    Total Energy =                       -856.1069147671209976
  Basis Set: (AUG-CC-PVTZ AUX)
    Blend: AUG-CC-PVTZ-RI
    Molecular point group: c1

    Geometry (in Angstrom), charge = 0, multiplicity = 1:

       Center              X                  Y                   Z               Mass
    ------------   -----------------  -----------------  -----------------  -----------------
         S            0.963978722199     0.000002137441    -0.354486793071    31.972071174400
         O            1.482802022199    -1.283440362559    -1.068734593071    15.994914619570
         O            1.482801022199     1.283448637441    -1.068727593071    15.994914619570
         C            1.832437022199    -0.000001362559     1.217925406929    12.000000000000
         C           -0.622480977801     0.000000637441    -0.134997593071    12.000000000000
         C            3.354473022199    -0.000006362559     1.138824406929    12.000000000000
         C           -1.289206977801     1.220548637441    -0.005927593071    12.000000000000
         C           -1.289205977801    -1.220549362559    -0.005932593071    12.000000000000
         C           -2.658753977801     1.212034637441     0.261410406929    12.000000000000
         C           -2.658752977801    -1.212038362559     0.261404406929    12.000000000000
         C           -3.340186977801    -0.000002362559     0.402345406929    12.000000000000
         H            1.444709022199     0.891162637441     1.720505406929     1.007825032230
         H            1.444703022199    -0.891164362559     1.720504406929     1.007825032230
         H            3.772758022199    -0.000005362559     2.148171406929     1.007825032230
         H            3.709201022199    -0.887770362559     0.611748406929     1.007825032230
         H            3.709206022199     0.887752637441     0.611744406929     1.007825032230
         H           -0.745393977801     2.150845637441    -0.147161593071     1.007825032230
         H           -0.745390977801    -2.150845362559    -0.147171593071     1.007825032230
         H           -3.195567977801     2.152527637441     0.356371406929     1.007825032230
         H           -3.195564977801    -2.152533362559     0.356362406929     1.007825032230
         H           -4.407504977801    -0.000003362559     0.609150406929     1.007825032230

  Basis Set: AUG-CC-PVTZ
    Blend: AUG-CC-PVTZ
  Basis Set: (AUG-CC-PVTZ AUX)
    Blend: AUG-CC-PVTZ-JKFIT
	 Reference Energy          =    -856.1069147671211113 [Eh]
	 Singles Energy            =      -0.0000000000000000 [Eh]
	 Same-Spin Energy          =      -0.5524526603146627 [Eh]
	 Opposite-Spin Energy      =      -1.6815727924095649 [Eh]
	 Correlation Energy        =      -2.2340254527242278 [Eh]
	 Total Energy              =    -858.3409402198453790 [Eh]

	 ================> DF-SCS-MP2 Energies <==================
	-----------------------------------------------------------
	 SCS Same-Spin Scale       =       0.3333333333333333 [-]
	 SCS Opposite-Spin Scale   =       1.2000000000000000 [-]
	 SCS Same-Spin Energy      =      -0.1841508867715542 [Eh]
	 SCS Opposite-Spin Energy  =      -2.0178873508914776 [Eh]
	 SCS Correlation Energy    =      -2.2020382376630319 [Eh]
	 SCS Total Energy          =    -858.3089530047841436 [Eh]
	-----------------------------------------------------------

  Dipole Moment: [D]
     X:    -4.5791      Y:    -0.0000      Z:     4.8736     Total:     6.6873

*** Psi4 exiting successfully. Buy a developer a beer!
