                               Psi4 1.3.2 release

  ==> Input File <==

--------------------------------------------------------------------------
#psi4
#
memory 32 gb

molecule  {
0 1
  S        1.0929260     0.0000020    -0.4651450
  O        1.4426300    -1.2834400    -1.0972280
  O        1.4426290     1.2834490    -1.0972210
  C        1.7533328    -0.0000008     1.0973218
  C       -0.6626530     0.0000010    -0.1634910
  C        3.3143010    -0.0000060     1.1103310
  C       -1.3293790     1.2205490    -0.0344210
  C       -1.3293780    -1.2205490    -0.0344260
  C       -2.6989260     1.2120350     0.2329170
  C       -2.6989250    -1.2120380     0.2329110
  C       -3.3803590    -0.0000020     0.3738520
  H        1.4045370     0.8911630     1.6920120
  H        1.4045310    -0.8911640     1.6920110
  H        3.7325860    -0.0000050     2.1196780
  H        3.6690290    -0.8877700     0.5832550
  H        3.6690340     0.8877530     0.5832510
  H       -0.7855660     2.1508460    -0.1756550
  H       -0.7855630    -2.1508450    -0.1756650
  H       -3.2357400     2.1525280     0.3278780
  H       -3.2357370    -2.1525330     0.3278690
  H       -4.4476770    -0.0000030     0.5806570
units angstrom
no_reorient  #important for SAPT in psi4, default
symmetry c1  #important for SAPT in psi4, default
}

set PROPERTIES_ORIGIN ["COM"]
properties('MP2/aug-cc-pvtz', properties = ['dipole'])
--------------------------------------------------------------------------

    Molecular point group: c1
  Charge       = 0
  Multiplicity = 1
  Basis Set: AUG-CC-PVTZ
    Blend: AUG-CC-PVTZ
  Basis Set: (AUG-CC-PVTZ AUX)
    Blend: AUG-CC-PVTZ-JKFIT

    Orbital Energies [Eh]
    ---------------------

    Doubly Occupied:

       1A    -92.178997     2A    -20.539360     3A    -20.539341
       4A    -11.279567     5A    -11.277548     6A    -11.268961
       7A    -11.268878     8A    -11.266354     9A    -11.260083
      10A    -11.259960    11A    -11.241590    12A     -9.149427
      13A     -6.834105    14A     -6.833738    15A     -6.833325
      16A     -1.434666    17A     -1.323371    18A     -1.181343
      19A     -1.090945    20A     -1.049778    21A     -1.042023
      22A     -0.942755    23A     -0.862146    24A     -0.854180
      25A     -0.793365    26A     -0.737948    27A     -0.690676
      28A     -0.666643    29A     -0.657521    30A     -0.644659
      31A     -0.637718    32A     -0.614246    33A     -0.606742
      34A     -0.574172    35A     -0.543947    36A     -0.539476
      37A     -0.523236    38A     -0.520053    39A     -0.519550
      40A     -0.489326    41A     -0.486993    42A     -0.460382
      43A     -0.443332    44A     -0.369096    45A     -0.361089

  @DF-RHF Final Energy:  -856.14889174841028

   => Energetics <=

    Nuclear Repulsion Energy =            730.3165753993752105
    One-Electron Energy =               -2623.5457132424126030
    Two-Electron Energy =                1037.0802460946270003
    Total Energy =                       -856.1488917484102785
  Basis Set: (AUG-CC-PVTZ AUX)
    Blend: AUG-CC-PVTZ-RI
    Molecular point group: c1

    Geometry (in Angstrom), charge = 0, multiplicity = 1:

       Center              X                  Y                   Z               Mass
    ------------   -----------------  -----------------  -----------------  -----------------
         S            1.104046601842     0.000001717340    -0.414702063989    31.972071174400
         O            1.453750601842    -1.283440282660    -1.046785063989    15.994914619570
         O            1.453749601842     1.283448717340    -1.046778063989    15.994914619570
         C            1.764453401842    -0.000001082660     1.147764736011    12.000000000000
         C           -0.651532398158     0.000000717340    -0.113048063989    12.000000000000
         C            3.325421601842    -0.000006282660     1.160773936011    12.000000000000
         C           -1.318258398158     1.220548717340     0.016021936011    12.000000000000
         C           -1.318257398158    -1.220549282660     0.016016936011    12.000000000000
         C           -2.687805398158     1.212034717340     0.283359936011    12.000000000000
         C           -2.687804398158    -1.212038282660     0.283353936011    12.000000000000
         C           -3.369238398158    -0.000002282660     0.424294936011    12.000000000000
         H            1.415657601842     0.891162717340     1.742454936011     1.007825032230
         H            1.415651601842    -0.891164282660     1.742453936011     1.007825032230
         H            3.743706601842    -0.000005282660     2.170120936011     1.007825032230
         H            3.680149601842    -0.887770282660     0.633697936011     1.007825032230
         H            3.680154601842     0.887752717340     0.633693936011     1.007825032230
         H           -0.774445398158     2.150845717340    -0.125212063989     1.007825032230
         H           -0.774442398158    -2.150845282660    -0.125222063989     1.007825032230
         H           -3.224619398158     2.152527717340     0.378320936011     1.007825032230
         H           -3.224616398158    -2.152533282660     0.378311936011     1.007825032230
         H           -4.436556398158    -0.000003282660     0.631099936011     1.007825032230

  Basis Set: AUG-CC-PVTZ
    Blend: AUG-CC-PVTZ
  Basis Set: (AUG-CC-PVTZ AUX)
    Blend: AUG-CC-PVTZ-JKFIT
	 Reference Energy          =    -856.1488917484102785 [Eh]
	 Singles Energy            =      -0.0000000000000000 [Eh]
	 Same-Spin Energy          =      -0.5494295681868853 [Eh]
	 Opposite-Spin Energy      =      -1.6755984179914067 [Eh]
	 Correlation Energy        =      -2.2250279861782918 [Eh]
	 Total Energy              =    -858.3739197345885259 [Eh]

	 ================> DF-SCS-MP2 Energies <==================
	-----------------------------------------------------------
	 SCS Same-Spin Scale       =       0.3333333333333333 [-]
	 SCS Opposite-Spin Scale   =       1.2000000000000000 [-]
	 SCS Same-Spin Energy      =      -0.1831431893956284 [Eh]
	 SCS Opposite-Spin Energy  =      -2.0107181015896880 [Eh]
	 SCS Correlation Energy    =      -2.1938612909853163 [Eh]
	 SCS Total Energy          =    -858.3427530393955749 [Eh]
	-----------------------------------------------------------

  Dipole Moment: [D]
     X:    -2.5981      Y:    -0.0000      Z:     4.2468     Total:     4.9785

*** Psi4 exiting successfully. Buy a developer a beer!
