                               Psi4 1.3.2 release

  ==> Input File <==

--------------------------------------------------------------------------
#psi4
#
memory 32 gb

molecule  {
0 1
  S        1.0929260     0.0000020    -0.4651450
  O        1.4301371    -1.2761260    -1.1184682
  O        1.4426290     1.2834490    -1.0972210
  C        1.7922650    -0.0000010     1.1894320
  C       -0.6626530     0.0000010    -0.1634910
  C        3.3143010    -0.0000060     1.1103310
  C       -1.3293790     1.2205490    -0.0344210
  C       -1.3293780    -1.2205490    -0.0344260
  C       -2.6989260     1.2120350     0.2329170
  C       -2.6989250    -1.2120380     0.2329110
  C       -3.3803590    -0.0000020     0.3738520
  H        1.4045370     0.8911630     1.6920120
  H        1.4045310    -0.8911640     1.6920110
  H        3.7325860    -0.0000050     2.1196780
  H        3.6690290    -0.8877700     0.5832550
  H        3.6690340     0.8877530     0.5832510
  H       -0.7855660     2.1508460    -0.1756550
  H       -0.7855630    -2.1508450    -0.1756650
  H       -3.2357400     2.1525280     0.3278780
  H       -3.2357370    -2.1525330     0.3278690
  H       -4.4476770    -0.0000030     0.5806570
units angstrom
no_reorient  #important for SAPT in psi4, default
symmetry c1  #important for SAPT in psi4, default
}

set PROPERTIES_ORIGIN ["COM"]
properties('MP2/aug-cc-pvtz', properties = ['dipole'])
--------------------------------------------------------------------------

    Molecular point group: c1
  Charge       = 0
  Multiplicity = 1
  Basis Set: AUG-CC-PVTZ
    Blend: AUG-CC-PVTZ
  Basis Set: (AUG-CC-PVTZ AUX)
    Blend: AUG-CC-PVTZ-JKFIT

    Orbital Energies [Eh]
    ---------------------

    Doubly Occupied:

       1A    -92.177426     2A    -20.539711     3A    -20.539040
       4A    -11.279511     5A    -11.278866     6A    -11.268833
       7A    -11.268733     8A    -11.266224     9A    -11.260068
      10A    -11.259940    11A    -11.238427    12A     -9.147047
      13A     -6.831603    14A     -6.831141    15A     -6.830996
      16A     -1.431006    17A     -1.321792    18A     -1.181029
      19A     -1.086141    20A     -1.051228    21A     -1.041948
      22A     -0.935767    23A     -0.862128    24A     -0.854057
      25A     -0.795900    26A     -0.734962    27A     -0.686168
      28A     -0.667752    29A     -0.655177    30A     -0.648836
      31A     -0.636971    32A     -0.614189    33A     -0.609905
      34A     -0.572920    35A     -0.549973    36A     -0.542795
      37A     -0.527149    38A     -0.525549    39A     -0.521393
      40A     -0.489513    41A     -0.482862    42A     -0.461819
      43A     -0.432351    44A     -0.368978    45A     -0.361063

  @DF-RHF Final Energy:  -856.15774790730927

   => Energetics <=

    Nuclear Repulsion Energy =            727.9467675485326481
    One-Electron Energy =               -2618.8712499498983561
    Two-Electron Energy =                1034.7667344940564362
    Total Energy =                       -856.1577479073093855
  Basis Set: (AUG-CC-PVTZ AUX)
    Blend: AUG-CC-PVTZ-RI
    Molecular point group: c1

    Geometry (in Angstrom), charge = 0, multiplicity = 1:

       Center              X                  Y                   Z               Mass
    ------------   -----------------  -----------------  -----------------  -----------------
         S            1.102474246548    -0.000686263734    -0.419204454814    31.972071174400
         O            1.439685346548    -1.276814263734    -1.072527654814    15.994914619570
         O            1.452177246548     1.282760736266    -1.051280454814    15.994914619570
         C            1.801813246548    -0.000689263734     1.235372545186    12.000000000000
         C           -0.653104753452    -0.000687263734    -0.117550454814    12.000000000000
         C            3.323849246548    -0.000694263734     1.156271545186    12.000000000000
         C           -1.319830753452     1.219860736266     0.011519545186    12.000000000000
         C           -1.319829753452    -1.221237263734     0.011514545186    12.000000000000
         C           -2.689377753452     1.211346736266     0.278857545186    12.000000000000
         C           -2.689376753452    -1.212726263734     0.278851545186    12.000000000000
         C           -3.370810753452    -0.000690263734     0.419792545186    12.000000000000
         H            1.414085246548     0.890474736266     1.737952545186     1.007825032230
         H            1.414079246548    -0.891852263734     1.737951545186     1.007825032230
         H            3.742134246548    -0.000693263734     2.165618545186     1.007825032230
         H            3.678577246548    -0.888458263734     0.629195545186     1.007825032230
         H            3.678582246548     0.887064736266     0.629191545186     1.007825032230
         H           -0.776017753452     2.150157736266    -0.129714454814     1.007825032230
         H           -0.776014753452    -2.151533263734    -0.129724454814     1.007825032230
         H           -3.226191753452     2.151839736266     0.373818545186     1.007825032230
         H           -3.226188753452    -2.153221263734     0.373809545186     1.007825032230
         H           -4.438128753452    -0.000691263734     0.626597545186     1.007825032230

  Basis Set: AUG-CC-PVTZ
    Blend: AUG-CC-PVTZ
  Basis Set: (AUG-CC-PVTZ AUX)
    Blend: AUG-CC-PVTZ-JKFIT
	 Reference Energy          =    -856.1577479073092718 [Eh]
	 Singles Energy            =      -0.0000000000000000 [Eh]
	 Same-Spin Energy          =      -0.5489151147297990 [Eh]
	 Opposite-Spin Energy      =      -1.6751215026739730 [Eh]
	 Correlation Energy        =      -2.2240366174037720 [Eh]
	 Total Energy              =    -858.3817845247129981 [Eh]

	 ================> DF-SCS-MP2 Energies <==================
	-----------------------------------------------------------
	 SCS Same-Spin Scale       =       0.3333333333333333 [-]
	 SCS Opposite-Spin Scale   =       1.2000000000000000 [-]
	 SCS Same-Spin Energy      =      -0.1829717049099330 [Eh]
	 SCS Opposite-Spin Energy  =      -2.0101458032087676 [Eh]
	 SCS Correlation Energy    =      -2.1931175081187004 [Eh]
	 SCS Total Energy          =    -858.3508654154279611 [Eh]
	-----------------------------------------------------------

  Dipole Moment: [D]
     X:    -2.6173      Y:    -0.0161      Z:     4.1929     Total:     4.9428

*** Psi4 exiting successfully. Buy a developer a beer!
