                               Psi4 1.3.2 release

  ==> Input File <==

--------------------------------------------------------------------------
#psi4
#
memory 32 gb

molecule  {
0 1
  S        1.0929260     0.0000020    -0.4651450
  O        1.4426300    -1.2834400    -1.0972280
  O        1.4426290     1.2834490    -1.0972210
  C        1.8210348    -0.0000010     1.1769749
  C       -0.6626530     0.0000010    -0.1634910
  C        3.3143010    -0.0000060     1.1103310
  C       -1.3293790     1.2205490    -0.0344210
  C       -1.3293780    -1.2205490    -0.0344260
  C       -2.6989260     1.2120350     0.2329170
  C       -2.6989250    -1.2120380     0.2329110
  C       -3.3803590    -0.0000020     0.3738520
  H        1.4045370     0.8911630     1.6920120
  H        1.4045310    -0.8911640     1.6920110
  H        3.7325860    -0.0000050     2.1196780
  H        3.6690290    -0.8877700     0.5832550
  H        3.6690340     0.8877530     0.5832510
  H       -0.7855660     2.1508460    -0.1756550
  H       -0.7855630    -2.1508450    -0.1756650
  H       -3.2357400     2.1525280     0.3278780
  H       -3.2357370    -2.1525330     0.3278690
  H       -4.4476770    -0.0000030     0.5806570
units angstrom
no_reorient  #important for SAPT in psi4, default
symmetry c1  #important for SAPT in psi4, default
}

set PROPERTIES_ORIGIN ["COM"]
properties('MP2/aug-cc-pvtz', properties = ['dipole'])
--------------------------------------------------------------------------

    Molecular point group: c1
  Charge       = 0
  Multiplicity = 1
  Basis Set: AUG-CC-PVTZ
    Blend: AUG-CC-PVTZ
  Basis Set: (AUG-CC-PVTZ AUX)
    Blend: AUG-CC-PVTZ-JKFIT

    Orbital Energies [Eh]
    ---------------------

    Doubly Occupied:

       1A    -92.177155     2A    -20.538946     3A    -20.538927
       4A    -11.280763     5A    -11.278866     6A    -11.269765
       7A    -11.269685     8A    -11.267112     9A    -11.260647
      10A    -11.260528    11A    -11.235875    12A     -9.146793
      13A     -6.831307    14A     -6.830931    15A     -6.830721
      16A     -1.430713    17A     -1.321996    18A     -1.181775
      19A     -1.087669    20A     -1.053088    21A     -1.042670
      22A     -0.936164    23A     -0.861116    24A     -0.854764
      25A     -0.794593    26A     -0.735231    27A     -0.686587
      28A     -0.666182    29A     -0.654718    30A     -0.647693
      31A     -0.637589    32A     -0.614857    33A     -0.609849
      34A     -0.578071    35A     -0.550315    36A     -0.543345
      37A     -0.527544    38A     -0.523034    39A     -0.519907
      40A     -0.489456    41A     -0.481768    42A     -0.461114
      43A     -0.431432    44A     -0.370144    45A     -0.361675

  @DF-RHF Final Energy:  -856.15647087553623

   => Energetics <=

    Nuclear Repulsion Energy =            728.0591463907881007
    One-Electron Energy =               -2619.0850781257345261
    Two-Electron Energy =                1034.8694608594103101
    Total Energy =                       -856.1564708755361153
  Basis Set: (AUG-CC-PVTZ AUX)
    Blend: AUG-CC-PVTZ-RI
    Molecular point group: c1

    Geometry (in Angstrom), charge = 0, multiplicity = 1:

       Center              X                  Y                   Z               Mass
    ------------   -----------------  -----------------  -----------------  -----------------
         S            1.099268765569     0.000001731454    -0.420323308124    31.972071174400
         O            1.448972765569    -1.283440268546    -1.052406308124    15.994914619570
         O            1.448971765569     1.283448731454    -1.052399308124    15.994914619570
         C            1.827377565569    -0.000001268546     1.221796591876    12.000000000000
         C           -0.656310234431     0.000000731454    -0.118669308124    12.000000000000
         C            3.320643765569    -0.000006268546     1.155152691876    12.000000000000
         C           -1.323036234431     1.220548731454     0.010400691876    12.000000000000
         C           -1.323035234431    -1.220549268546     0.010395691876    12.000000000000
         C           -2.692583234431     1.212034731454     0.277738691876    12.000000000000
         C           -2.692582234431    -1.212038268546     0.277732691876    12.000000000000
         C           -3.374016234431    -0.000002268546     0.418673691876    12.000000000000
         H            1.410879765569     0.891162731454     1.736833691876     1.007825032230
         H            1.410873765569    -0.891164268546     1.736832691876     1.007825032230
         H            3.738928765569    -0.000005268546     2.164499691876     1.007825032230
         H            3.675371765569    -0.887770268546     0.628076691876     1.007825032230
         H            3.675376765569     0.887752731454     0.628072691876     1.007825032230
         H           -0.779223234431     2.150845731454    -0.130833308124     1.007825032230
         H           -0.779220234431    -2.150845268546    -0.130843308124     1.007825032230
         H           -3.229397234431     2.152527731454     0.372699691876     1.007825032230
         H           -3.229394234431    -2.152533268546     0.372690691876     1.007825032230
         H           -4.441334234431    -0.000003268546     0.625478691876     1.007825032230

  Basis Set: AUG-CC-PVTZ
    Blend: AUG-CC-PVTZ
  Basis Set: (AUG-CC-PVTZ AUX)
    Blend: AUG-CC-PVTZ-JKFIT
	 Reference Energy          =    -856.1564708755362290 [Eh]
	 Singles Energy            =      -0.0000000000000000 [Eh]
	 Same-Spin Energy          =      -0.5491195613119665 [Eh]
	 Opposite-Spin Energy      =      -1.6752845193945700 [Eh]
	 Correlation Energy        =      -2.2244040807065364 [Eh]
	 Total Energy              =    -858.3808749562427920 [Eh]

	 ================> DF-SCS-MP2 Energies <==================
	-----------------------------------------------------------
	 SCS Same-Spin Scale       =       0.3333333333333333 [-]
	 SCS Opposite-Spin Scale   =       1.2000000000000000 [-]
	 SCS Same-Spin Energy      =      -0.1830398537706555 [Eh]
	 SCS Opposite-Spin Energy  =      -2.0103414232734838 [Eh]
	 SCS Correlation Energy    =      -2.1933812770441392 [Eh]
	 SCS Total Energy          =    -858.3498521525804108 [Eh]
	-----------------------------------------------------------

  Dipole Moment: [D]
     X:    -2.7037      Y:    -0.0000      Z:     4.1459     Total:     4.9496

*** Psi4 exiting successfully. Buy a developer a beer!
