                               Psi4 1.3.2 release

  ==> Input File <==

--------------------------------------------------------------------------
#psi4
#
memory 32 gb

molecule  {
0 1
  S        1.0929260     0.0000020    -0.4651450
  O        1.4426300    -1.2834400    -1.0972280
  O        1.4426290     1.2834490    -1.0972210
  C        1.6751440    -0.0000011     1.2341850
  C       -0.6626530     0.0000010    -0.1634910
  C        3.3143010    -0.0000060     1.1103310
  C       -1.3293790     1.2205490    -0.0344210
  C       -1.3293780    -1.2205490    -0.0344260
  C       -2.6989260     1.2120350     0.2329170
  C       -2.6989250    -1.2120380     0.2329110
  C       -3.3803590    -0.0000020     0.3738520
  H        1.4045370     0.8911630     1.6920120
  H        1.4045310    -0.8911640     1.6920110
  H        3.7325860    -0.0000050     2.1196780
  H        3.6690290    -0.8877700     0.5832550
  H        3.6690340     0.8877530     0.5832510
  H       -0.7855660     2.1508460    -0.1756550
  H       -0.7855630    -2.1508450    -0.1756650
  H       -3.2357400     2.1525280     0.3278780
  H       -3.2357370    -2.1525330     0.3278690
  H       -4.4476770    -0.0000030     0.5806570
units angstrom
no_reorient  #important for SAPT in psi4, default
symmetry c1  #important for SAPT in psi4, default
}

set PROPERTIES_ORIGIN ["COM"]
properties('MP2/aug-cc-pvtz', properties = ['dipole'])
--------------------------------------------------------------------------

    Molecular point group: c1
  Charge       = 0
  Multiplicity = 1
  Basis Set: AUG-CC-PVTZ
    Blend: AUG-CC-PVTZ
  Basis Set: (AUG-CC-PVTZ AUX)
    Blend: AUG-CC-PVTZ-JKFIT

    Orbital Energies [Eh]
    ---------------------

    Doubly Occupied:

       1A    -92.179602     2A    -20.543416     3A    -20.543397
       4A    -11.277023     5A    -11.274486     6A    -11.266717
       7A    -11.266632     8A    -11.264150     9A    -11.258984
      10A    -11.258838    11A    -11.244549    12A     -9.148912
      13A     -6.833644    14A     -6.832930    15A     -6.832915
      16A     -1.433069    17A     -1.325012    18A     -1.179625
      19A     -1.080055    20A     -1.044262    21A     -1.040466
      22A     -0.932257    23A     -0.866017    24A     -0.852678
      25A     -0.800132    26A     -0.734050    27A     -0.684504
      28A     -0.678870    29A     -0.657824    30A     -0.651764
      31A     -0.635874    32A     -0.612898    33A     -0.612723
      34A     -0.561869    35A     -0.543556    36A     -0.542912
      37A     -0.538704    38A     -0.520271    39A     -0.509458
      40A     -0.492353    41A     -0.487332    42A     -0.466777
      43A     -0.432936    44A     -0.365554    45A     -0.359914

  @DF-RHF Final Energy:  -856.14457066707701

   => Energetics <=

    Nuclear Repulsion Energy =            727.7658541641271768
    One-Electron Energy =               -2618.4810319796656586
    Two-Electron Energy =                1034.5706071484614768
    Total Energy =                       -856.1445706670770051
  Basis Set: (AUG-CC-PVTZ AUX)
    Blend: AUG-CC-PVTZ-RI
    Molecular point group: c1

    Geometry (in Angstrom), charge = 0, multiplicity = 1:

       Center              X                  Y                   Z               Mass
    ------------   -----------------  -----------------  -----------------  -----------------
         S            1.109564508030     0.000001738511    -0.424360714566    31.972071174400
         O            1.459268508030    -1.283440261489    -1.056443714566    15.994914619570
         O            1.459267508030     1.283448738511    -1.056436714566    15.994914619570
         C            1.691782508030    -0.000001361489     1.274969285434    12.000000000000
         C           -0.646014491970     0.000000738511    -0.122706714566    12.000000000000
         C            3.330939508030    -0.000006261489     1.151115285434    12.000000000000
         C           -1.312740491970     1.220548738511     0.006363285434    12.000000000000
         C           -1.312739491970    -1.220549261489     0.006358285434    12.000000000000
         C           -2.682287491970     1.212034738511     0.273701285434    12.000000000000
         C           -2.682286491970    -1.212038261489     0.273695285434    12.000000000000
         C           -3.363720491970    -0.000002261489     0.414636285434    12.000000000000
         H            1.421175508030     0.891162738511     1.732796285434     1.007825032230
         H            1.421169508030    -0.891164261489     1.732795285434     1.007825032230
         H            3.749224508030    -0.000005261489     2.160462285434     1.007825032230
         H            3.685667508030    -0.887770261489     0.624039285434     1.007825032230
         H            3.685672508030     0.887752738511     0.624035285434     1.007825032230
         H           -0.768927491970     2.150845738511    -0.134870714566     1.007825032230
         H           -0.768924491970    -2.150845261489    -0.134880714566     1.007825032230
         H           -3.219101491970     2.152527738511     0.368662285434     1.007825032230
         H           -3.219098491970    -2.152533261489     0.368653285434     1.007825032230
         H           -4.431038491970    -0.000003261489     0.621441285434     1.007825032230

  Basis Set: AUG-CC-PVTZ
    Blend: AUG-CC-PVTZ
  Basis Set: (AUG-CC-PVTZ AUX)
    Blend: AUG-CC-PVTZ-JKFIT
	 Reference Energy          =    -856.1445706670770051 [Eh]
	 Singles Energy            =      -0.0000000000000000 [Eh]
	 Same-Spin Energy          =      -0.5489582070174694 [Eh]
	 Opposite-Spin Energy      =      -1.6761006416888837 [Eh]
	 Correlation Energy        =      -2.2250588487063530 [Eh]
	 Total Energy              =    -858.3696295157833447 [Eh]

	 ================> DF-SCS-MP2 Energies <==================
	-----------------------------------------------------------
	 SCS Same-Spin Scale       =       0.3333333333333333 [-]
	 SCS Opposite-Spin Scale   =       1.2000000000000000 [-]
	 SCS Same-Spin Energy      =      -0.1829860690058231 [Eh]
	 SCS Opposite-Spin Energy  =      -2.0113207700266602 [Eh]
	 SCS Correlation Energy    =      -2.1943068390324836 [Eh]
	 SCS Total Energy          =    -858.3388775061094975 [Eh]
	-----------------------------------------------------------

  Dipole Moment: [D]
     X:    -2.4968      Y:    -0.0000      Z:     4.0907     Total:     4.7925

*** Psi4 exiting successfully. Buy a developer a beer!
