                               Psi4 1.4a3.dev225

  ==> Input File <==

--------------------------------------------------------------------------
#psi4
#
memory 32 gb

molecule  {
0 1
  S        1.0929260     0.0000020    -0.4651450
  O        1.4426300    -1.2834400    -1.0972280
  O        1.4426290     1.2834490    -1.0972210
  C        1.7727989    -0.0000009     1.1433769
  C       -0.6626530     0.0000010    -0.1634910
  C        3.3143010    -0.0000060     1.1103310
  C       -1.3293790     1.2205490    -0.0344210
  C       -1.3293780    -1.2205490    -0.0344260
  C       -2.6989260     1.2120350     0.2329170
  C       -2.6989250    -1.2120380     0.2329110
  C       -3.3803590    -0.0000020     0.3738520
  H        1.4045370     0.8911630     1.6920120
  H        1.4045310    -0.8911640     1.6920110
  H        3.7325860    -0.0000050     2.1196780
  H        3.6690290    -0.8877700     0.5832550
  H        3.6690340     0.8877530     0.5832510
  H       -0.7855660     2.1508460    -0.1756550
  H       -0.7855630    -2.1508450    -0.1756650
  H       -3.2357400     2.1525280     0.3278780
  H       -3.2357370    -2.1525330     0.3278690
  H       -4.4476770    -0.0000030     0.5806570
units angstrom
no_reorient  #important for SAPT in psi4, default
symmetry c1  #important for SAPT in psi4, default
}

set PROPERTIES_ORIGIN ["COM"]
properties('MP2/aug-cc-pvtz', properties = ['dipole'])
--------------------------------------------------------------------------

    Molecular point group: c1
  Charge       = 0
  Multiplicity = 1
  Basis Set: AUG-CC-PVTZ
    Blend: AUG-CC-PVTZ
  Basis Set: (AUG-CC-PVTZ AUX)
    Blend: AUG-CC-PVTZ-JKFIT

    Orbital Energies [Eh]
    ---------------------

    Doubly Occupied:

       1A    -92.178676     2A    -20.539748     3A    -20.539729
       4A    -11.279890     5A    -11.277270     6A    -11.269164
       7A    -11.269082     8A    -11.266532     9A    -11.260272
      10A    -11.260149    11A    -11.239285    12A     -9.148579
      13A     -6.833181    14A     -6.832809    15A     -6.832516
      16A     -1.432922    17A     -1.323103    18A     -1.181421
      19A     -1.087529    20A     -1.050562    21A     -1.042212
      22A     -0.938952    23A     -0.861990    24A     -0.854348
      25A     -0.794813    26A     -0.736513    27A     -0.688525
      28A     -0.666926    29A     -0.656445    30A     -0.646529
      31A     -0.637523    32A     -0.614432    33A     -0.608753
      34A     -0.573018    35A     -0.545028    36A     -0.542027
      37A     -0.524466    38A     -0.523399    39A     -0.521172
      40A     -0.489966    41A     -0.484976    42A     -0.461670
      43A     -0.438385    44A     -0.369374    45A     -0.361283

  @DF-RHF Final Energy:  -856.15558565143749

   => Energetics <=

    Nuclear Repulsion Energy =            729.1273482044794036
    One-Electron Energy =               -2621.1955750114211696
    Two-Electron Energy =                1035.9126411555043887
    Total Energy =                       -856.1555856514373772
  Basis Set: (AUG-CC-PVTZ AUX)
    Blend: AUG-CC-PVTZ-RI
    Molecular point group: c1

    Geometry (in Angstrom), charge = 0, multiplicity = 1:

       Center              X                  Y                   Z               Mass
    ------------   -----------------  -----------------  -----------------  -----------------
         S            1.102672848649     0.000001724397    -0.417952244594    31.972071174400
         O            1.452376848649    -1.283440275603    -1.050035244594    15.994914619570
         O            1.452375848649     1.283448724397    -1.050028244594    15.994914619570
         C            1.782545748649    -0.000001175603     1.190569655406    12.000000000000
         C           -0.652906151351     0.000000724397    -0.116298244594    12.000000000000
         C            3.324047848649    -0.000006275603     1.157523755406    12.000000000000
         C           -1.319632151351     1.220548724397     0.012771755406    12.000000000000
         C           -1.319631151351    -1.220549275603     0.012766755406    12.000000000000
         C           -2.689179151351     1.212034724397     0.280109755406    12.000000000000
         C           -2.689178151351    -1.212038275603     0.280103755406    12.000000000000
         C           -3.370612151351    -0.000002275603     0.421044755406    12.000000000000
         H            1.414283848649     0.891162724397     1.739204755406     1.007825032230
         H            1.414277848649    -0.891164275603     1.739203755406     1.007825032230
         H            3.742332848649    -0.000005275603     2.166870755406     1.007825032230
         H            3.678775848649    -0.887770275603     0.630447755406     1.007825032230
         H            3.678780848649     0.887752724397     0.630443755406     1.007825032230
         H           -0.775819151351     2.150845724397    -0.128462244594     1.007825032230
         H           -0.775816151351    -2.150845275603    -0.128472244594     1.007825032230
         H           -3.225993151351     2.152527724397     0.375070755406     1.007825032230
         H           -3.225990151351    -2.152533275603     0.375061755406     1.007825032230
         H           -4.437930151351    -0.000003275603     0.627849755406     1.007825032230

  Basis Set: AUG-CC-PVTZ
    Blend: AUG-CC-PVTZ
  Basis Set: (AUG-CC-PVTZ AUX)
    Blend: AUG-CC-PVTZ-JKFIT
	 Reference Energy          =    -856.1555856514374909 [Eh]
	 Singles Energy            =      -0.0000000000000000 [Eh]
	 Same-Spin Energy          =      -0.5490801881810063 [Eh]
	 Opposite-Spin Energy      =      -1.6752164809854324 [Eh]
	 Correlation Energy        =      -2.2242966691664385 [Eh]
	 Total Energy              =    -858.3798823206038833 [Eh]

	 ================> DF-SCS-MP2 Energies <==================
	-----------------------------------------------------------
	 SCS Same-Spin Scale       =       0.3333333333333333 [-]
	 SCS Opposite-Spin Scale   =       1.2000000000000000 [-]
	 SCS Same-Spin Energy      =      -0.1830267293936688 [Eh]
	 SCS Opposite-Spin Energy  =      -2.0102597771825188 [Eh]
	 SCS Correlation Energy    =      -2.1932865065761877 [Eh]
	 SCS Total Energy          =    -858.3488721580137053 [Eh]
	-----------------------------------------------------------

  Dipole Moment: [D]
     X:    -2.6433      Y:    -0.0000      Z:     4.1846     Total:     4.9495

*** Psi4 exiting successfully. Buy a developer a beer!
