                               Psi4 1.3.2 release

  ==> Input File <==

--------------------------------------------------------------------------
#psi4
#
memory 32 gb

molecule  {
0 1
  S        1.0929260     0.0000020    -0.4651450
  O        1.4550164    -1.2903630    -1.0757953
  O        1.4426290     1.2834490    -1.0972210
  C        1.7922650    -0.0000010     1.1894320
  C       -0.6626530     0.0000010    -0.1634910
  C        3.3143010    -0.0000060     1.1103310
  C       -1.3293790     1.2205490    -0.0344210
  C       -1.3293780    -1.2205490    -0.0344260
  C       -2.6989260     1.2120350     0.2329170
  C       -2.6989250    -1.2120380     0.2329110
  C       -3.3803590    -0.0000020     0.3738520
  H        1.4045370     0.8911630     1.6920120
  H        1.4045310    -0.8911640     1.6920110
  H        3.7325860    -0.0000050     2.1196780
  H        3.6690290    -0.8877700     0.5832550
  H        3.6690340     0.8877530     0.5832510
  H       -0.7855660     2.1508460    -0.1756550
  H       -0.7855630    -2.1508450    -0.1756650
  H       -3.2357400     2.1525280     0.3278780
  H       -3.2357370    -2.1525330     0.3278690
  H       -4.4476770    -0.0000030     0.5806570
units angstrom
no_reorient  #important for SAPT in psi4, default
symmetry c1  #important for SAPT in psi4, default
}

set PROPERTIES_ORIGIN ["COM"]
properties('MP2/aug-cc-pvtz', properties = ['dipole'])
--------------------------------------------------------------------------

    Molecular point group: c1
  Charge       = 0
  Multiplicity = 1
  Basis Set: AUG-CC-PVTZ
    Blend: AUG-CC-PVTZ
  Basis Set: (AUG-CC-PVTZ AUX)
    Blend: AUG-CC-PVTZ-JKFIT

    Orbital Energies [Eh]
    ---------------------

    Doubly Occupied:

       1A    -92.177575     2A    -20.540582     3A    -20.539901
       4A    -11.280445     5A    -11.276373     6A    -11.269499
       7A    -11.269402     8A    -11.266823     9A    -11.260566
      10A    -11.260440    11A    -11.236897    12A     -9.147157
      13A     -6.831707    14A     -6.831283    15A     -6.831095
      16A     -1.431306    17A     -1.323348    18A     -1.181639
      19A     -1.084293    20A     -1.051424    21A     -1.042512
      22A     -0.934960    23A     -0.861914    24A     -0.854628
      25A     -0.795896    26A     -0.735161    27A     -0.686137
      28A     -0.667351    29A     -0.655203    30A     -0.648492
      31A     -0.637406    32A     -0.614724    33A     -0.610582
      34A     -0.571750    35A     -0.548605    36A     -0.543121
      37A     -0.525783    38A     -0.525767    39A     -0.521805
      40A     -0.490709    41A     -0.482841    42A     -0.463023
      43A     -0.431608    44A     -0.369652    45A     -0.361586

  @DF-RHF Final Energy:  -856.15751189313062

   => Energetics <=

    Nuclear Repulsion Energy =            728.0179741906126765
    One-Electron Energy =               -2619.0050329780606262
    Two-Electron Energy =                1034.8295468943174455
    Total Energy =                       -856.1575118931305042
  Basis Set: (AUG-CC-PVTZ AUX)
    Blend: AUG-CC-PVTZ-RI
    Molecular point group: c1

    Geometry (in Angstrom), charge = 0, multiplicity = 1:

       Center              X                  Y                   Z               Mass
    ------------   -----------------  -----------------  -----------------  -----------------
         S            1.100133962341     0.000652947025    -0.423218503197    31.972071174400
         O            1.462224362341    -1.289712052975    -1.033868803197    15.994914619570
         O            1.449836962341     1.284099947025    -1.055294503197    15.994914619570
         C            1.799472962341     0.000649947025     1.231358496803    12.000000000000
         C           -0.655445037659     0.000651947025    -0.121564503197    12.000000000000
         C            3.321508962341     0.000644947025     1.152257496803    12.000000000000
         C           -1.322171037659     1.221199947025     0.007505496803    12.000000000000
         C           -1.322170037659    -1.219898052975     0.007500496803    12.000000000000
         C           -2.691718037659     1.212685947025     0.274843496803    12.000000000000
         C           -2.691717037659    -1.211387052975     0.274837496803    12.000000000000
         C           -3.373151037659     0.000648947025     0.415778496803    12.000000000000
         H            1.411744962341     0.891813947025     1.733938496803     1.007825032230
         H            1.411738962341    -0.890513052975     1.733937496803     1.007825032230
         H            3.739793962341     0.000645947025     2.161604496803     1.007825032230
         H            3.676236962341    -0.887119052975     0.625181496803     1.007825032230
         H            3.676241962341     0.888403947025     0.625177496803     1.007825032230
         H           -0.778358037659     2.151496947025    -0.133728503197     1.007825032230
         H           -0.778355037659    -2.150194052975    -0.133738503197     1.007825032230
         H           -3.228532037659     2.153178947025     0.369804496803     1.007825032230
         H           -3.228529037659    -2.151882052975     0.369795496803     1.007825032230
         H           -4.440469037659     0.000647947025     0.622583496803     1.007825032230

  Basis Set: AUG-CC-PVTZ
    Blend: AUG-CC-PVTZ
  Basis Set: (AUG-CC-PVTZ AUX)
    Blend: AUG-CC-PVTZ-JKFIT
	 Reference Energy          =    -856.1575118931306179 [Eh]
	 Singles Energy            =      -0.0000000000000000 [Eh]
	 Same-Spin Energy          =      -0.5489866435282410 [Eh]
	 Opposite-Spin Energy      =      -1.6752517921361587 [Eh]
	 Correlation Energy        =      -2.2242384356643998 [Eh]
	 Total Energy              =    -858.3817503287949648 [Eh]

	 ================> DF-SCS-MP2 Energies <==================
	-----------------------------------------------------------
	 SCS Same-Spin Scale       =       0.3333333333333333 [-]
	 SCS Opposite-Spin Scale   =       1.2000000000000000 [-]
	 SCS Same-Spin Energy      =      -0.1829955478427470 [Eh]
	 SCS Opposite-Spin Energy  =      -2.0103021505633905 [Eh]
	 SCS Correlation Energy    =      -2.1932976984061376 [Eh]
	 SCS Total Energy          =    -858.3508095915367448 [Eh]
	-----------------------------------------------------------

  Dipole Moment: [D]
     X:    -2.7177      Y:     0.0152      Z:     4.0802     Total:     4.9025

*** Psi4 exiting successfully. Buy a developer a beer!
