                               Psi4 1.3.2 release

  ==> Input File <==

--------------------------------------------------------------------------
#psi4
#
memory 32 gb

molecule  {
0 1
  S        1.1082542    -0.0266385    -0.4713268
  O        1.4426300    -1.2834400    -1.0972280
  O        1.4426290     1.2834490    -1.0972210
  C        1.7922650    -0.0000010     1.1894320
  C       -0.6626530     0.0000010    -0.1634910
  C        3.3143010    -0.0000060     1.1103310
  C       -1.3293790     1.2205490    -0.0344210
  C       -1.3293780    -1.2205490    -0.0344260
  C       -2.6989260     1.2120350     0.2329170
  C       -2.6989250    -1.2120380     0.2329110
  C       -3.3803590    -0.0000020     0.3738520
  H        1.4045370     0.8911630     1.6920120
  H        1.4045310    -0.8911640     1.6920110
  H        3.7325860    -0.0000050     2.1196780
  H        3.6690290    -0.8877700     0.5832550
  H        3.6690340     0.8877530     0.5832510
  H       -0.7855660     2.1508460    -0.1756550
  H       -0.7855630    -2.1508450    -0.1756650
  H       -3.2357400     2.1525280     0.3278780
  H       -3.2357370    -2.1525330     0.3278690
  H       -4.4476770    -0.0000030     0.5806570
units angstrom
no_reorient  #important for SAPT in psi4, default
symmetry c1  #important for SAPT in psi4, default
}

set PROPERTIES_ORIGIN ["COM"]
properties('MP2/aug-cc-pvtz', properties = ['dipole'])
--------------------------------------------------------------------------

    Molecular point group: c1
  Charge       = 0
  Multiplicity = 1
  Basis Set: AUG-CC-PVTZ
    Blend: AUG-CC-PVTZ
  Basis Set: (AUG-CC-PVTZ AUX)
    Blend: AUG-CC-PVTZ-JKFIT

    Orbital Energies [Eh]
    ---------------------

    Doubly Occupied:

       1A    -92.177695     2A    -20.546714     3A    -20.536323
       4A    -11.279096     5A    -11.277748     6A    -11.267471
       7A    -11.267286     8A    -11.264905     9A    -11.259187
      10A    -11.259049    11A    -11.238115    12A     -9.147318
      13A     -6.831859    14A     -6.831519    15A     -6.831234
      16A     -1.438840    17A     -1.325143    18A     -1.179438
      19A     -1.084973    20A     -1.049179    21A     -1.040797
      22A     -0.933914    23A     -0.860031    24A     -0.852701
      25A     -0.795682    26A     -0.734792    27A     -0.686418
      28A     -0.667538    29A     -0.657306    30A     -0.647910
      31A     -0.636826    32A     -0.613187    33A     -0.613087
      34A     -0.572359    35A     -0.550301    36A     -0.543220
      37A     -0.527069    38A     -0.524687    39A     -0.520453
      40A     -0.493158    41A     -0.484154    42A     -0.464222
      43A     -0.430492    44A     -0.367550    45A     -0.360099

  @DF-RHF Final Energy:  -856.15691646407140

   => Energetics <=

    Nuclear Repulsion Energy =            727.8375173113379333
    One-Electron Energy =               -2618.6467800647851618
    Two-Electron Energy =                1034.6523462893758278
    Total Energy =                       -856.1569164640714007
  Basis Set: (AUG-CC-PVTZ AUX)
    Blend: AUG-CC-PVTZ-RI
    Molecular point group: c1

    Geometry (in Angstrom), charge = 0, multiplicity = 1:

       Center              X                  Y                   Z               Mass
    ------------   -----------------  -----------------  -----------------  -----------------
         S            1.113745186147    -0.021629645945    -0.426221882372    31.972071174400
         O            1.448120986147    -1.278431145945    -1.052123082372    15.994914619570
         O            1.448119986147     1.288457854055    -1.052116082372    15.994914619570
         C            1.797755986147     0.005007854055     1.234536917628    12.000000000000
         C           -0.657162013853     0.005009854055    -0.118386082372    12.000000000000
         C            3.319791986147     0.005002854055     1.155435917628    12.000000000000
         C           -1.323888013853     1.225557854055     0.010683917628    12.000000000000
         C           -1.323887013853    -1.215540145945     0.010678917628    12.000000000000
         C           -2.693435013853     1.217043854055     0.278021917628    12.000000000000
         C           -2.693434013853    -1.207029145945     0.278015917628    12.000000000000
         C           -3.374868013853     0.005006854055     0.418956917628    12.000000000000
         H            1.410027986147     0.896171854055     1.737116917628     1.007825032230
         H            1.410021986147    -0.886155145945     1.737115917628     1.007825032230
         H            3.738076986147     0.005003854055     2.164782917628     1.007825032230
         H            3.674519986147    -0.882761145945     0.628359917628     1.007825032230
         H            3.674524986147     0.892761854055     0.628355917628     1.007825032230
         H           -0.780075013853     2.155854854055    -0.130550082372     1.007825032230
         H           -0.780072013853    -2.145836145945    -0.130560082372     1.007825032230
         H           -3.230249013853     2.157536854055     0.372982917628     1.007825032230
         H           -3.230246013853    -2.147524145945     0.372973917628     1.007825032230
         H           -4.442186013853     0.005005854055     0.625761917628     1.007825032230

  Basis Set: AUG-CC-PVTZ
    Blend: AUG-CC-PVTZ
  Basis Set: (AUG-CC-PVTZ AUX)
    Blend: AUG-CC-PVTZ-JKFIT
	 Reference Energy          =    -856.1569164640714007 [Eh]
	 Singles Energy            =      -0.0000000000000000 [Eh]
	 Same-Spin Energy          =      -0.5487335131817179 [Eh]
	 Opposite-Spin Energy      =      -1.6748695312051129 [Eh]
	 Correlation Energy        =      -2.2236030443868309 [Eh]
	 Total Energy              =    -858.3805195084581783 [Eh]

	 ================> DF-SCS-MP2 Energies <==================
	-----------------------------------------------------------
	 SCS Same-Spin Scale       =       0.3333333333333333 [-]
	 SCS Opposite-Spin Scale   =       1.2000000000000000 [-]
	 SCS Same-Spin Energy      =      -0.1829111710605726 [Eh]
	 SCS Opposite-Spin Energy  =      -2.0098434374461354 [Eh]
	 SCS Correlation Energy    =      -2.1927546085067080 [Eh]
	 SCS Total Energy          =    -858.3496710725780758 [Eh]
	-----------------------------------------------------------

  Dipole Moment: [D]
     X:    -2.4969      Y:    -0.2073      Z:     4.0809     Total:     4.7886

*** Psi4 exiting successfully. Buy a developer a beer!
