                               Psi4 1.4a3.dev225

  ==> Input File <==

--------------------------------------------------------------------------
#psi4
#
memory 32 gb

molecule  {
0 1
  S        1.0929260     0.0000020    -0.4651450
  O        1.4426300    -1.2834400    -1.0972280
  O        1.4426290     1.2834490    -1.0972210
  C        1.8117311    -0.0000011     1.2354871
  C       -0.6626530     0.0000010    -0.1634910
  C        3.3143010    -0.0000060     1.1103310
  C       -1.3293790     1.2205490    -0.0344210
  C       -1.3293780    -1.2205490    -0.0344260
  C       -2.6989260     1.2120350     0.2329170
  C       -2.6989250    -1.2120380     0.2329110
  C       -3.3803590    -0.0000020     0.3738520
  H        1.4045370     0.8911630     1.6920120
  H        1.4045310    -0.8911640     1.6920110
  H        3.7325860    -0.0000050     2.1196780
  H        3.6690290    -0.8877700     0.5832550
  H        3.6690340     0.8877530     0.5832510
  H       -0.7855660     2.1508460    -0.1756550
  H       -0.7855630    -2.1508450    -0.1756650
  H       -3.2357400     2.1525280     0.3278780
  H       -3.2357370    -2.1525330     0.3278690
  H       -4.4476770    -0.0000030     0.5806570
units angstrom
no_reorient  #important for SAPT in psi4, default
symmetry c1  #important for SAPT in psi4, default
}

set PROPERTIES_ORIGIN ["COM"]
properties('MP2/aug-cc-pvtz', properties = ['dipole'])
--------------------------------------------------------------------------

    Molecular point group: c1
  Charge       = 0
  Multiplicity = 1
  Basis Set: AUG-CC-PVTZ
    Blend: AUG-CC-PVTZ
  Basis Set: (AUG-CC-PVTZ AUX)
    Blend: AUG-CC-PVTZ-JKFIT

    Orbital Energies [Eh]
    ---------------------

    Doubly Occupied:

       1A    -92.175560     2A    -20.539609     3A    -20.539590
       4A    -11.279835     5A    -11.278725     6A    -11.268954
       7A    -11.268873     8A    -11.266344     9A    -11.260220
      10A    -11.260095    11A    -11.236717    12A     -9.145049
      13A     -6.829551    14A     -6.829031    15A     -6.828977
      16A     -1.429335    17A     -1.321814    18A     -1.181087
      19A     -1.083919    20A     -1.052032    21A     -1.042086
      22A     -0.932026    23A     -0.862295    24A     -0.854172
      25A     -0.796623    26A     -0.733617    27A     -0.683665
      28A     -0.668680    29A     -0.653790    30A     -0.650815
      31A     -0.636724    32A     -0.614331    33A     -0.611162
      34A     -0.572353    35A     -0.555284    36A     -0.542909
      37A     -0.528850    38A     -0.526668    39A     -0.521626
      40A     -0.489870    41A     -0.480811    42A     -0.462762
      43A     -0.424376    44A     -0.368910    45A     -0.361222

  @DF-RHF Final Energy:  -856.15593983827239

   => Energetics <=

    Nuclear Repulsion Energy =            726.8672585506070618
    One-Electron Energy =               -2616.7445104910002556
    Two-Electron Energy =                1033.7213121021209190
    Total Energy =                       -856.1559398382723884
  Basis Set: (AUG-CC-PVTZ AUX)
    Blend: AUG-CC-PVTZ-RI
    Molecular point group: c1

    Geometry (in Angstrom), charge = 0, multiplicity = 1:

       Center              X                  Y                   Z               Mass
    ------------   -----------------  -----------------  -----------------  -----------------
         S            1.099925342263     0.000001738511    -0.424452605804    31.972071174400
         O            1.449629342263    -1.283440261489    -1.056535605804    15.994914619570
         O            1.449628342263     1.283448738511    -1.056528605804    15.994914619570
         C            1.818730442263    -0.000001361489     1.276179494196    12.000000000000
         C           -0.655653657737     0.000000738511    -0.122798605804    12.000000000000
         C            3.321300342263    -0.000006261489     1.151023394196    12.000000000000
         C           -1.322379657737     1.220548738511     0.006271394196    12.000000000000
         C           -1.322378657737    -1.220549261489     0.006266394196    12.000000000000
         C           -2.691926657737     1.212034738511     0.273609394196    12.000000000000
         C           -2.691925657737    -1.212038261489     0.273603394196    12.000000000000
         C           -3.373359657737    -0.000002261489     0.414544394196    12.000000000000
         H            1.411536342263     0.891162738511     1.732704394196     1.007825032230
         H            1.411530342263    -0.891164261489     1.732703394196     1.007825032230
         H            3.739585342263    -0.000005261489     2.160370394196     1.007825032230
         H            3.676028342263    -0.887770261489     0.623947394196     1.007825032230
         H            3.676033342263     0.887752738511     0.623943394196     1.007825032230
         H           -0.778566657737     2.150845738511    -0.134962605804     1.007825032230
         H           -0.778563657737    -2.150845261489    -0.134972605804     1.007825032230
         H           -3.228740657737     2.152527738511     0.368570394196     1.007825032230
         H           -3.228737657737    -2.152533261489     0.368561394196     1.007825032230
         H           -4.440677657737    -0.000003261489     0.621349394196     1.007825032230

  Basis Set: AUG-CC-PVTZ
    Blend: AUG-CC-PVTZ
  Basis Set: (AUG-CC-PVTZ AUX)
    Blend: AUG-CC-PVTZ-JKFIT
	 Reference Energy          =    -856.1559398382723884 [Eh]
	 Singles Energy            =      -0.0000000000000000 [Eh]
	 Same-Spin Energy          =      -0.5490081128208656 [Eh]
	 Opposite-Spin Energy      =      -1.6754518330602444 [Eh]
	 Correlation Energy        =      -2.2244599458811098 [Eh]
	 Total Energy              =    -858.3803997841534965 [Eh]

	 ================> DF-SCS-MP2 Energies <==================
	-----------------------------------------------------------
	 SCS Same-Spin Scale       =       0.3333333333333333 [-]
	 SCS Opposite-Spin Scale   =       1.2000000000000000 [-]
	 SCS Same-Spin Energy      =      -0.1830027042736219 [Eh]
	 SCS Opposite-Spin Energy  =      -2.0105421996722930 [Eh]
	 SCS Correlation Energy    =      -2.1935449039459147 [Eh]
	 SCS Total Energy          =    -858.3494847422183511 [Eh]
	-----------------------------------------------------------

  Dipole Moment: [D]
     X:    -2.6730      Y:    -0.0000      Z:     4.1020     Total:     4.8960

*** Psi4 exiting successfully. Buy a developer a beer!
