                               Psi4 1.3.2 release

  ==> Input File <==

--------------------------------------------------------------------------
#psi4
#
memory 32 gb

molecule  {
0 1
  S        1.0929260     0.0000020    -0.4651450
  O        1.4426300    -1.2834400    -1.0972280
  O        1.4426290     1.2834490    -1.0972210
  C        1.8701293    -0.0000013     1.3736524
  C       -0.6626530     0.0000010    -0.1634910
  C        3.3143010    -0.0000060     1.1103310
  C       -1.3293790     1.2205490    -0.0344210
  C       -1.3293780    -1.2205490    -0.0344260
  C       -2.6989260     1.2120350     0.2329170
  C       -2.6989250    -1.2120380     0.2329110
  C       -3.3803590    -0.0000020     0.3738520
  H        1.4045370     0.8911630     1.6920120
  H        1.4045310    -0.8911640     1.6920110
  H        3.7325860    -0.0000050     2.1196780
  H        3.6690290    -0.8877700     0.5832550
  H        3.6690340     0.8877530     0.5832510
  H       -0.7855660     2.1508460    -0.1756550
  H       -0.7855630    -2.1508450    -0.1756650
  H       -3.2357400     2.1525280     0.3278780
  H       -3.2357370    -2.1525330     0.3278690
  H       -4.4476770    -0.0000030     0.5806570
units angstrom
no_reorient  #important for SAPT in psi4, default
symmetry c1  #important for SAPT in psi4, default
}

set PROPERTIES_ORIGIN ["COM"]
properties('MP2/aug-cc-pvtz', properties = ['dipole'])
--------------------------------------------------------------------------

    Molecular point group: c1
  Charge       = 0
  Multiplicity = 1
  Basis Set: AUG-CC-PVTZ
    Blend: AUG-CC-PVTZ
  Basis Set: (AUG-CC-PVTZ AUX)
    Blend: AUG-CC-PVTZ-JKFIT

    Orbital Energies [Eh]
    ---------------------

    Doubly Occupied:

       1A    -92.165985     2A    -20.537553     3A    -20.537534
       4A    -11.286995     5A    -11.278211     6A    -11.267274
       7A    -11.267193     8A    -11.264843     9A    -11.259182
      10A    -11.259047    11A    -11.237539    12A     -9.136032
      13A     -6.820315    14A     -6.819812    15A     -6.819644
      16A     -1.423553    17A     -1.318382    18A     -1.179460
      19A     -1.085355    20A     -1.052828    21A     -1.040771
      22A     -0.923556    23A     -0.864365    24A     -0.852768
      25A     -0.796934    26A     -0.729362    27A     -0.676387
      28A     -0.676070    29A     -0.653984    30A     -0.649501
      31A     -0.634621    32A     -0.613135    33A     -0.610845
      34A     -0.584134    35A     -0.565123    36A     -0.541405
      37A     -0.536440    38A     -0.526240    39A     -0.520438
      40A     -0.487381    41A     -0.475418    42A     -0.461770
      43A     -0.398086    44A     -0.364690    45A     -0.360128

  @DF-RHF Final Energy:  -856.13346390510844

   => Energetics <=

    Nuclear Repulsion Energy =            723.6847597328534221
    One-Electron Energy =               -2610.5158693292623866
    Two-Electron Energy =                1030.6976456913007496
    Total Energy =                       -856.1334639051083286
  Basis Set: (AUG-CC-PVTZ AUX)
    Blend: AUG-CC-PVTZ-RI
    Molecular point group: c1

    Geometry (in Angstrom), charge = 0, multiplicity = 1:

       Center              X                  Y                   Z               Mass
    ------------   -----------------  -----------------  -----------------  -----------------
         S            1.095804089741     0.000001752625    -0.434203147619    31.972071174400
         O            1.445508089741    -1.283440247375    -1.066286147619    15.994914619570
         O            1.445507089741     1.283448752625    -1.066279147619    15.994914619570
         C            1.873007389741    -0.000001547375     1.404594252381    12.000000000000
         C           -0.659774910259     0.000000752625    -0.132549147619    12.000000000000
         C            3.317179089741    -0.000006247375     1.141272852381    12.000000000000
         C           -1.326500910259     1.220548752625    -0.003479147619    12.000000000000
         C           -1.326499910259    -1.220549247375    -0.003484147619    12.000000000000
         C           -2.696047910259     1.212034752625     0.263858852381    12.000000000000
         C           -2.696046910259    -1.212038247375     0.263852852381    12.000000000000
         C           -3.377480910259    -0.000002247375     0.404793852381    12.000000000000
         H            1.407415089741     0.891162752625     1.722953852381     1.007825032230
         H            1.407409089741    -0.891164247375     1.722952852381     1.007825032230
         H            3.735464089741    -0.000005247375     2.150619852381     1.007825032230
         H            3.671907089741    -0.887770247375     0.614196852381     1.007825032230
         H            3.671912089741     0.887752752625     0.614192852381     1.007825032230
         H           -0.782687910259     2.150845752625    -0.144713147619     1.007825032230
         H           -0.782684910259    -2.150845247375    -0.144723147619     1.007825032230
         H           -3.232861910259     2.152527752625     0.358819852381     1.007825032230
         H           -3.232858910259    -2.152533247375     0.358810852381     1.007825032230
         H           -4.444798910259    -0.000003247375     0.611598852381     1.007825032230

  Basis Set: AUG-CC-PVTZ
    Blend: AUG-CC-PVTZ
  Basis Set: (AUG-CC-PVTZ AUX)
    Blend: AUG-CC-PVTZ-JKFIT
	 Reference Energy          =    -856.1334639051084423 [Eh]
	 Singles Energy            =      -0.0000000000000000 [Eh]
	 Same-Spin Energy          =      -0.5501496775863439 [Eh]
	 Opposite-Spin Energy      =      -1.6778619549538394 [Eh]
	 Correlation Energy        =      -2.2280116325401833 [Eh]
	 Total Energy              =    -858.3614755376486301 [Eh]

	 ================> DF-SCS-MP2 Energies <==================
	-----------------------------------------------------------
	 SCS Same-Spin Scale       =       0.3333333333333333 [-]
	 SCS Opposite-Spin Scale   =       1.2000000000000000 [-]
	 SCS Same-Spin Energy      =      -0.1833832258621146 [Eh]
	 SCS Opposite-Spin Energy  =      -2.0134343459446074 [Eh]
	 SCS Correlation Energy    =      -2.1968175718067222 [Eh]
	 SCS Total Energy          =    -858.3302814769151610 [Eh]
	-----------------------------------------------------------

  Dipole Moment: [D]
     X:    -2.6080      Y:    -0.0000      Z:     4.0383     Total:     4.8073

*** Psi4 exiting successfully. Buy a developer a beer!
