                               Psi4 1.3.2 release

  ==> Input File <==

--------------------------------------------------------------------------
#psi4
#
memory 32 gb

molecule  {
0 1
  S        1.0929260     0.0000020    -0.4651450
  O        1.4672925    -1.2968930    -1.0541766
  O        1.4426290     1.2834490    -1.0972210
  C        1.7922650    -0.0000010     1.1894320
  C       -0.6626530     0.0000010    -0.1634910
  C        3.3143010    -0.0000060     1.1103310
  C       -1.3293790     1.2205490    -0.0344210
  C       -1.3293780    -1.2205490    -0.0344260
  C       -2.6989260     1.2120350     0.2329170
  C       -2.6989250    -1.2120380     0.2329110
  C       -3.3803590    -0.0000020     0.3738520
  H        1.4045370     0.8911630     1.6920120
  H        1.4045310    -0.8911640     1.6920110
  H        3.7325860    -0.0000050     2.1196780
  H        3.6690290    -0.8877700     0.5832550
  H        3.6690340     0.8877530     0.5832510
  H       -0.7855660     2.1508460    -0.1756550
  H       -0.7855630    -2.1508450    -0.1756650
  H       -3.2357400     2.1525280     0.3278780
  H       -3.2357370    -2.1525330     0.3278690
  H       -4.4476770    -0.0000030     0.5806570
units angstrom
no_reorient  #important for SAPT in psi4, default
symmetry c1  #important for SAPT in psi4, default
}

set PROPERTIES_ORIGIN ["COM"]
properties('MP2/aug-cc-pvtz', properties = ['dipole'])
--------------------------------------------------------------------------

    Molecular point group: c1
  Charge       = 0
  Multiplicity = 1
  Basis Set: AUG-CC-PVTZ
    Blend: AUG-CC-PVTZ
  Basis Set: (AUG-CC-PVTZ AUX)
    Blend: AUG-CC-PVTZ-JKFIT

    Orbital Energies [Eh]
    ---------------------

    Doubly Occupied:

       1A    -92.177638     2A    -20.541344     3A    -20.539974
       4A    -11.280919     5A    -11.275109     6A    -11.269848
       7A    -11.269715     8A    -11.267117     9A    -11.260818
      10A    -11.260685    11A    -11.236116    12A     -9.147206
      13A     -6.831753    14A     -6.831349    15A     -6.831135
      16A     -1.431467    17A     -1.324106    18A     -1.181942
      19A     -1.083368    20A     -1.051493    21A     -1.042792
      22A     -0.934563    23A     -0.861790    24A     -0.854913
      25A     -0.795901    26A     -0.735258    27A     -0.686122
      28A     -0.667186    29A     -0.655224    30A     -0.648268
      31A     -0.637616    32A     -0.614990    33A     -0.610903
      34A     -0.571171    35A     -0.547934    36A     -0.543271
      37A     -0.525856    38A     -0.525156    39A     -0.521949
      40A     -0.491270    41A     -0.482825    42A     -0.463576
      43A     -0.431171    44A     -0.369974    45A     -0.361846

  @DF-RHF Final Energy:  -856.15716726747394

   => Energetics <=

    Nuclear Repulsion Energy =            728.0616613455969173
    One-Electron Energy =               -2619.0884028632162881
    Two-Electron Energy =                1034.8695742501454333
    Total Energy =                       -856.1571672674740512
  Basis Set: (AUG-CC-PVTZ AUX)
    Blend: AUG-CC-PVTZ-RI
    Molecular point group: c1

    Geometry (in Angstrom), charge = 0, multiplicity = 1:

       Center              X                  Y                   Z               Mass
    ------------   -----------------  -----------------  -----------------  -----------------
         S            1.098979204653     0.001267194849    -0.425252077380    31.972071174400
         O            1.473345704653    -1.295627805151    -1.014283677380    15.994914619570
         O            1.448682204653     1.284714194849    -1.057328077380    15.994914619570
         C            1.798318204653     0.001264194849     1.229324922620    12.000000000000
         C           -0.656599795347     0.001266194849    -0.123598077380    12.000000000000
         C            3.320354204653     0.001259194849     1.150223922620    12.000000000000
         C           -1.323325795347     1.221814194849     0.005471922620    12.000000000000
         C           -1.323324795347    -1.219283805151     0.005466922620    12.000000000000
         C           -2.692872795347     1.213300194849     0.272809922620    12.000000000000
         C           -2.692871795347    -1.210772805151     0.272803922620    12.000000000000
         C           -3.374305795347     0.001263194849     0.413744922620    12.000000000000
         H            1.410590204653     0.892428194849     1.731904922620     1.007825032230
         H            1.410584204653    -0.889898805151     1.731903922620     1.007825032230
         H            3.738639204653     0.001260194849     2.159570922620     1.007825032230
         H            3.675082204653    -0.886504805151     0.623147922620     1.007825032230
         H            3.675087204653     0.889018194849     0.623143922620     1.007825032230
         H           -0.779512795347     2.152111194849    -0.135762077380     1.007825032230
         H           -0.779509795347    -2.149579805151    -0.135772077380     1.007825032230
         H           -3.229686795347     2.153793194849     0.367770922620     1.007825032230
         H           -3.229683795347    -2.151267805151     0.367761922620     1.007825032230
         H           -4.441623795347     0.001262194849     0.620549922620     1.007825032230

  Basis Set: AUG-CC-PVTZ
    Blend: AUG-CC-PVTZ
  Basis Set: (AUG-CC-PVTZ AUX)
    Blend: AUG-CC-PVTZ-JKFIT
	 Reference Energy          =    -856.1571672674739375 [Eh]
	 Singles Energy            =      -0.0000000000000000 [Eh]
	 Same-Spin Energy          =      -0.5490336172369177 [Eh]
	 Opposite-Spin Energy      =      -1.6753402675202564 [Eh]
	 Correlation Energy        =      -2.2243738847571741 [Eh]
	 Total Energy              =    -858.3815411522310796 [Eh]

	 ================> DF-SCS-MP2 Energies <==================
	-----------------------------------------------------------
	 SCS Same-Spin Scale       =       0.3333333333333333 [-]
	 SCS Opposite-Spin Scale   =       1.2000000000000000 [-]
	 SCS Same-Spin Energy      =      -0.1830112057456392 [Eh]
	 SCS Opposite-Spin Energy  =      -2.0104083210243076 [Eh]
	 SCS Correlation Energy    =      -2.1934195267699468 [Eh]
	 SCS Total Energy          =    -858.3505867942438954 [Eh]
	-----------------------------------------------------------

  Dipole Moment: [D]
     X:    -2.7676      Y:     0.0295      Z:     4.0226     Total:     4.8828

*** Psi4 exiting successfully. Buy a developer a beer!
