                               Psi4 1.3.2 release

  ==> Input File <==

--------------------------------------------------------------------------
#psi4
#
memory 32 gb

molecule  {
0 1
  S        1.0929260     0.0000020    -0.4651450
  O        1.4426300    -1.2834400    -1.0972280
  O        1.4426290     1.2834490    -1.0972210
  C        1.9613843    -0.0000008     1.1072672
  C       -0.6626530     0.0000010    -0.1634910
  C        3.3143010    -0.0000060     1.1103310
  C       -1.3293790     1.2205490    -0.0344210
  C       -1.3293780    -1.2205490    -0.0344260
  C       -2.6989260     1.2120350     0.2329170
  C       -2.6989250    -1.2120380     0.2329110
  C       -3.3803590    -0.0000020     0.3738520
  H        1.4045370     0.8911630     1.6920120
  H        1.4045310    -0.8911640     1.6920110
  H        3.7325860    -0.0000050     2.1196780
  H        3.6690290    -0.8877700     0.5832550
  H        3.6690340     0.8877530     0.5832510
  H       -0.7855660     2.1508460    -0.1756550
  H       -0.7855630    -2.1508450    -0.1756650
  H       -3.2357400     2.1525280     0.3278780
  H       -3.2357370    -2.1525330     0.3278690
  H       -4.4476770    -0.0000030     0.5806570
units angstrom
no_reorient  #important for SAPT in psi4, default
symmetry c1  #important for SAPT in psi4, default
}

set PROPERTIES_ORIGIN ["COM"]
properties('MP2/aug-cc-pvtz', properties = ['dipole'])
--------------------------------------------------------------------------

    Molecular point group: c1
  Charge       = 0
  Multiplicity = 1
  Basis Set: AUG-CC-PVTZ
    Blend: AUG-CC-PVTZ
  Basis Set: (AUG-CC-PVTZ AUX)
    Blend: AUG-CC-PVTZ-JKFIT

    Orbital Energies [Eh]
    ---------------------

    Doubly Occupied:

       1A    -92.176634     2A    -20.534821     3A    -20.534802
       4A    -11.286994     5A    -11.284878     6A    -11.272717
       7A    -11.272642     8A    -11.269944     9A    -11.262220
      10A    -11.262118    11A    -11.227089    12A     -9.146240
      13A     -6.830734    14A     -6.830374    15A     -6.830085
      16A     -1.428853    17A     -1.319370    18A     -1.183962
      19A     -1.110438    20A     -1.059698    21A     -1.044783
      22A     -0.939593    23A     -0.857558    24A     -0.856814
      25A     -0.787224    26A     -0.735402    27A     -0.689119
      28A     -0.664259    29A     -0.654355    30A     -0.646257
      31A     -0.641188    32A     -0.616782    33A     -0.611238
      34A     -0.610025    35A     -0.549154    36A     -0.544733
      37A     -0.532555    38A     -0.524408    39A     -0.495335
      40A     -0.481034    41A     -0.476704    42A     -0.449615
      43A     -0.426389    44A     -0.373742    45A     -0.363312

  @DF-RHF Final Energy:  -856.11655138603805

   => Energetics <=

    Nuclear Repulsion Energy =            728.6336252362399364
    One-Electron Energy =               -2620.1079708716756613
    Two-Electron Energy =                1035.3577942493977844
    Total Energy =                       -856.1165513860380543
  Basis Set: (AUG-CC-PVTZ AUX)
    Blend: AUG-CC-PVTZ-RI
    Molecular point group: c1

    Geometry (in Angstrom), charge = 0, multiplicity = 1:

       Center              X                  Y                   Z               Mass
    ------------   -----------------  -----------------  -----------------  -----------------
         S            1.089364081336     0.000001717340    -0.415403926458    31.972071174400
         O            1.439068081336    -1.283440282660    -1.047486926458    15.994914619570
         O            1.439067081336     1.283448717340    -1.047479926458    15.994914619570
         C            1.957822381336    -0.000001082660     1.157008273542    12.000000000000
         C           -0.666214918664     0.000000717340    -0.113749926458    12.000000000000
         C            3.310739081336    -0.000006282660     1.160072073542    12.000000000000
         C           -1.332940918664     1.220548717340     0.015320073542    12.000000000000
         C           -1.332939918664    -1.220549282660     0.015315073542    12.000000000000
         C           -2.702487918664     1.212034717340     0.282658073542    12.000000000000
         C           -2.702486918664    -1.212038282660     0.282652073542    12.000000000000
         C           -3.383920918664    -0.000002282660     0.423593073542    12.000000000000
         H            1.400975081336     0.891162717340     1.741753073542     1.007825032230
         H            1.400969081336    -0.891164282660     1.741752073542     1.007825032230
         H            3.729024081336    -0.000005282660     2.169419073542     1.007825032230
         H            3.665467081336    -0.887770282660     0.632996073542     1.007825032230
         H            3.665472081336     0.887752717340     0.632992073542     1.007825032230
         H           -0.789127918664     2.150845717340    -0.125913926458     1.007825032230
         H           -0.789124918664    -2.150845282660    -0.125923926458     1.007825032230
         H           -3.239301918664     2.152527717340     0.377619073542     1.007825032230
         H           -3.239298918664    -2.152533282660     0.377610073542     1.007825032230
         H           -4.451238918664    -0.000003282660     0.630398073542     1.007825032230

  Basis Set: AUG-CC-PVTZ
    Blend: AUG-CC-PVTZ
  Basis Set: (AUG-CC-PVTZ AUX)
    Blend: AUG-CC-PVTZ-JKFIT
	 Reference Energy          =    -856.1165513860380543 [Eh]
	 Singles Energy            =      -0.0000000000000000 [Eh]
	 Same-Spin Energy          =      -0.5510648081583218 [Eh]
	 Opposite-Spin Energy      =      -1.6779210170888836 [Eh]
	 Correlation Energy        =      -2.2289858252472055 [Eh]
	 Total Energy              =    -858.3455372112852046 [Eh]

	 ================> DF-SCS-MP2 Energies <==================
	-----------------------------------------------------------
	 SCS Same-Spin Scale       =       0.3333333333333333 [-]
	 SCS Opposite-Spin Scale   =       1.2000000000000000 [-]
	 SCS Same-Spin Energy      =      -0.1836882693861073 [Eh]
	 SCS Opposite-Spin Energy  =      -2.0135052205066604 [Eh]
	 SCS Correlation Energy    =      -2.1971934898927676 [Eh]
	 SCS Total Energy          =    -858.3137448759308654 [Eh]
	-----------------------------------------------------------

  Dipole Moment: [D]
     X:    -2.8247      Y:    -0.0000      Z:     4.1606     Total:     5.0288

*** Psi4 exiting successfully. Buy a developer a beer!
