                               Psi4 1.3.2 release

  ==> Input File <==

--------------------------------------------------------------------------
#psi4
#
memory 32 gb

molecule  {
0 1
  O       -1.4344650     1.0675660     0.2191520
  O        1.4425540    -1.0727980    -0.0074420
  O        1.2409190     1.1848430    -0.0695910
  C       -0.7273960    -0.1479950     0.3622400
  C       -1.3608000    -1.1844980    -0.5490290
  C        0.8354831     0.0959873     0.0396899
  H       -0.7692630    -0.5063940     1.4052130
  H       -1.2645370    -0.8668950    -1.5888250
  H       -2.4222350    -1.2600450    -0.3075440
  H       -0.8906180    -2.1601930    -0.4204410
  H       -0.7794970     1.7838810     0.3439450
  H        2.3720270    -0.8088230    -0.1742930
units angstrom
no_reorient  #important for SAPT in psi4, default
symmetry c1  #important for SAPT in psi4, default
}

set PROPERTIES_ORIGIN ["COM"]
properties('MP2/aug-cc-pvtz', properties = ['dipole'])
--------------------------------------------------------------------------

    Molecular point group: c1
  Charge       = 0
  Multiplicity = 1
  Basis Set: AUG-CC-PVTZ
    Blend: AUG-CC-PVTZ
  Basis Set: (AUG-CC-PVTZ AUX)
    Blend: AUG-CC-PVTZ-JKFIT

    Orbital Energies [Eh]
    ---------------------

    Doubly Occupied:

       1A    -20.643390     2A    -20.574786     3A    -20.561118
       4A    -11.396565     5A    -11.304161     6A    -11.224029
       7A     -1.506187     8A     -1.415080     9A     -1.362760
      10A     -1.034075    11A     -0.901826    12A     -0.811056
      13A     -0.747884    14A     -0.725373    15A     -0.688853
      16A     -0.653414    17A     -0.633393    18A     -0.580324
      19A     -0.557539    20A     -0.538355    21A     -0.535584
      22A     -0.518266    23A     -0.464408    24A     -0.435215

  @DF-RHF Final Energy:  -341.82958289830015

   => Energetics <=

    Nuclear Repulsion Energy =            249.6191332479289144
    One-Electron Energy =                -963.2701547667085151
    Two-Electron Energy =                 371.8214386204793982
    Total Energy =                       -341.8295828983001456
  Basis Set: (AUG-CC-PVTZ AUX)
    Blend: AUG-CC-PVTZ-RI
    Molecular point group: c1

    Geometry (in Angstrom), charge = 0, multiplicity = 1:

       Center              X                  Y                   Z               Mass
    ------------   -----------------  -----------------  -----------------  -----------------
         O           -1.447368482467     1.065551596203     0.221815047444    15.994914619570
         O            1.429650517533    -1.074812403797    -0.004778952556    15.994914619570
         O            1.228015517533     1.182828596203    -0.066927952556    15.994914619570
         C           -0.740299482467    -0.150009403797     0.364903047444    12.000000000000
         C           -1.373703482467    -1.186512403797    -0.546365952556    12.000000000000
         C            0.822579617533     0.093972896203     0.042352947444    12.000000000000
         H           -0.782166482467    -0.508408403797     1.407876047444     1.007825032230
         H           -1.277440482467    -0.868909403797    -1.586161952556     1.007825032230
         H           -2.435138482467    -1.262059403797    -0.304880952556     1.007825032230
         H           -0.903521482467    -2.162207403797    -0.417777952556     1.007825032230
         H           -0.792400482467     1.781866596203     0.346608047444     1.007825032230
         H            2.359123517533    -0.810837403797    -0.171629952556     1.007825032230

  Basis Set: AUG-CC-PVTZ
    Blend: AUG-CC-PVTZ
  Basis Set: (AUG-CC-PVTZ AUX)
    Blend: AUG-CC-PVTZ-JKFIT
	 Reference Energy          =    -341.8295828983001456 [Eh]
	 Singles Energy            =      -0.0000000000000000 [Eh]
	 Same-Spin Energy          =      -0.3259874712765846 [Eh]
	 Opposite-Spin Energy      =      -1.0093796846574259 [Eh]
	 Correlation Energy        =      -1.3353671559340106 [Eh]
	 Total Energy              =    -343.1649500542341684 [Eh]

	 ================> DF-SCS-MP2 Energies <==================
	-----------------------------------------------------------
	 SCS Same-Spin Scale       =       0.3333333333333333 [-]
	 SCS Opposite-Spin Scale   =       1.2000000000000000 [-]
	 SCS Same-Spin Energy      =      -0.1086624904255282 [Eh]
	 SCS Opposite-Spin Energy  =      -1.2112556215889110 [Eh]
	 SCS Correlation Energy    =      -1.3199181120144392 [Eh]
	 SCS Total Energy          =    -343.1495010103145660 [Eh]
	-----------------------------------------------------------

  Dipole Moment: [D]
     X:     1.7717      Y:    -1.7496      Z:     0.2344     Total:     2.5010

*** Psi4 exiting successfully. Buy a developer a beer!
