                               Psi4 1.3.2 release

  ==> Input File <==

--------------------------------------------------------------------------
#psi4
#
memory 32 gb

molecule  {
0 1
  O       -1.4315870     1.0677657     0.2071589
  O        1.4425540    -1.0727980    -0.0074420
  O        1.2409190     1.1848430    -0.0695910
  C       -0.7273960    -0.1479950     0.3622400
  C       -1.3608000    -1.1844980    -0.5490290
  C        0.7386720     0.0808740     0.0596700
  H       -0.7639670    -0.5140517     1.4027497
  H       -1.2645370    -0.8668950    -1.5888250
  H       -2.4222350    -1.2600450    -0.3075440
  H       -0.8906180    -2.1601930    -0.4204410
  H       -0.7794970     1.7838810     0.3439450
  H        2.3720270    -0.8088230    -0.1742930
units angstrom
no_reorient  #important for SAPT in psi4, default
symmetry c1  #important for SAPT in psi4, default
}

set PROPERTIES_ORIGIN ["COM"]
properties('MP2/aug-cc-pvtz', properties = ['dipole'])
--------------------------------------------------------------------------

    Molecular point group: c1
  Charge       = 0
  Multiplicity = 1
  Basis Set: AUG-CC-PVTZ
    Blend: AUG-CC-PVTZ
  Basis Set: (AUG-CC-PVTZ AUX)
    Blend: AUG-CC-PVTZ-JKFIT

    Orbital Energies [Eh]
    ---------------------

    Doubly Occupied:

       1A    -20.633887     2A    -20.570234     3A    -20.567347
       4A    -11.403187     5A    -11.311612     6A    -11.231312
       7A     -1.480065     8A     -1.386721     9A     -1.362181
      10A     -1.053447    11A     -0.918581    12A     -0.811649
      13A     -0.738450    14A     -0.721994    15A     -0.692002
      16A     -0.639260    17A     -0.621323    18A     -0.585003
      19A     -0.561076    20A     -0.542335    21A     -0.533838
      22A     -0.499918    23A     -0.474634    24A     -0.454710

  @DF-RHF Final Energy:  -341.83678887047625

   => Energetics <=

    Nuclear Repulsion Energy =            249.7179513095206573
    One-Electron Energy =                -963.5199458906982954
    Two-Electron Energy =                 371.9652057107013547
    Total Energy =                       -341.8367888704762549
  Basis Set: (AUG-CC-PVTZ AUX)
    Blend: AUG-CC-PVTZ-RI
    Molecular point group: c1

    Geometry (in Angstrom), charge = 0, multiplicity = 1:

       Center              X                  Y                   Z               Mass
    ------------   -----------------  -----------------  -----------------  -----------------
         O           -1.432157465677     1.067815936209     0.209317125064    15.994914619570
         O            1.441983534323    -1.072747763791    -0.005283774936    15.994914619570
         O            1.240348534323     1.184893236209    -0.067432774936    15.994914619570
         C           -0.727966465677    -0.147944763791     0.364398225064    12.000000000000
         C           -1.361370465677    -1.184447763791    -0.546870774936    12.000000000000
         C            0.738101534323     0.080924236209     0.061828225064    12.000000000000
         H           -0.764537465677    -0.514001463791     1.404907925064     1.007825032230
         H           -1.265107465677    -0.866844763791    -1.586666774936     1.007825032230
         H           -2.422805465677    -1.259994763791    -0.305385774936     1.007825032230
         H           -0.891188465677    -2.160142763791    -0.418282774936     1.007825032230
         H           -0.780067465677     1.783931236209     0.346103225064     1.007825032230
         H            2.371456534323    -0.808772763791    -0.172134774936     1.007825032230

  Basis Set: AUG-CC-PVTZ
    Blend: AUG-CC-PVTZ
  Basis Set: (AUG-CC-PVTZ AUX)
    Blend: AUG-CC-PVTZ-JKFIT
	 Reference Energy          =    -341.8367888704762549 [Eh]
	 Singles Energy            =      -0.0000000000000000 [Eh]
	 Same-Spin Energy          =      -0.3271534190069155 [Eh]
	 Opposite-Spin Energy      =      -1.0117573350035673 [Eh]
	 Correlation Energy        =      -1.3389107540104828 [Eh]
	 Total Energy              =    -343.1756996244867537 [Eh]

	 ================> DF-SCS-MP2 Energies <==================
	-----------------------------------------------------------
	 SCS Same-Spin Scale       =       0.3333333333333333 [-]
	 SCS Opposite-Spin Scale   =       1.2000000000000000 [-]
	 SCS Same-Spin Energy      =      -0.1090511396689718 [Eh]
	 SCS Opposite-Spin Energy  =      -1.2141088020042807 [Eh]
	 SCS Correlation Energy    =      -1.3231599416732527 [Eh]
	 SCS Total Energy          =    -343.1599488121494801 [Eh]
	-----------------------------------------------------------

  Dipole Moment: [D]
     X:     1.2144      Y:    -1.8381      Z:     0.3339     Total:     2.2281

*** Psi4 exiting successfully. Buy a developer a beer!
