                               Psi4 1.4a3.dev225

  ==> Input File <==

--------------------------------------------------------------------------
#psi4
#
memory 32 gb

molecule  {
0 1
  O       -1.3959680    -1.1167090    -0.2833280
  O        1.5522570     0.9331460    -0.3210200
  O        1.1768320    -1.1502310     0.4959580
  C       -0.6816250     0.0987340    -0.4130150
  C       -1.2926720     1.1882940     0.4648960
  C        0.7507528    -0.0875598    -0.0583027
  H       -0.7109810     0.4129130    -1.4639800
  H       -1.2242180     0.8953450     1.5161010
  H       -2.3476110     1.2964270     0.2055410
  H       -0.7844450     2.1448300     0.3211210
  H       -0.8100540    -1.7212800     0.2125920
  H        2.4531110     0.6959320    -0.0164550
units angstrom
no_reorient  #important for SAPT in psi4, default
symmetry c1  #important for SAPT in psi4, default
}

set PROPERTIES_ORIGIN ["COM"]
properties('MP2/aug-cc-pvtz', properties = ['dipole'])
--------------------------------------------------------------------------

    Molecular point group: c1
  Charge       = 0
  Multiplicity = 1
  Basis Set: AUG-CC-PVTZ
    Blend: AUG-CC-PVTZ
  Basis Set: (AUG-CC-PVTZ AUX)
    Blend: AUG-CC-PVTZ-JKFIT

    Orbital Energies [Eh]
    ---------------------

    Doubly Occupied:

       1A    -20.644354     2A    -20.565662     3A    -20.563017
       4A    -11.409901     5A    -11.312685     6A    -11.237242
       7A     -1.487670     8A     -1.380682     9A     -1.341888
      10A     -1.061318    11A     -0.928281    12A     -0.824471
      13A     -0.747277    14A     -0.724567    15A     -0.672620
      16A     -0.643916    17A     -0.619908    18A     -0.588714
      19A     -0.572234    20A     -0.545452    21A     -0.526585
      22A     -0.485785    23A     -0.468360    24A     -0.458701

  @DF-RHF Final Energy:  -341.82937821358826

   => Energetics <=

    Nuclear Repulsion Energy =            249.5222795891872636
    One-Electron Energy =                -963.0807371494411200
    Two-Electron Energy =                 371.7290793466655714
    Total Energy =                       -341.8293782135882566
  Basis Set: (AUG-CC-PVTZ AUX)
    Blend: AUG-CC-PVTZ-RI
    Molecular point group: c1

    Geometry (in Angstrom), charge = 0, multiplicity = 1:

       Center              X                  Y                   Z               Mass
    ------------   -----------------  -----------------  -----------------  -----------------
         O           -1.431395898435    -1.081310421123    -0.271890189877    15.994914619570
         O            1.516829101565     0.968544578877    -0.309582189877    15.994914619570
         O            1.141404101565    -1.114832421123     0.507395810123    15.994914619570
         C           -0.717052898435     0.134132578877    -0.401577189877    12.000000000000
         C           -1.328099898435     1.223692578877     0.476333810123    12.000000000000
         C            0.715324901565    -0.052161221123    -0.046864889877    12.000000000000
         H           -0.746408898435     0.448311578877    -1.452542189877     1.007825032230
         H           -1.259645898435     0.930743578877     1.527538810123     1.007825032230
         H           -2.383038898435     1.331825578877     0.216978810123     1.007825032230
         H           -0.819872898435     2.180228578877     0.332558810123     1.007825032230
         H           -0.845481898435    -1.685881421123     0.224029810123     1.007825032230
         H            2.417683101565     0.731330578877    -0.005017189877     1.007825032230

  Basis Set: AUG-CC-PVTZ
    Blend: AUG-CC-PVTZ
  Basis Set: (AUG-CC-PVTZ AUX)
    Blend: AUG-CC-PVTZ-JKFIT
	 Reference Energy          =    -341.8293782135882566 [Eh]
	 Singles Energy            =      -0.0000000000000000 [Eh]
	 Same-Spin Energy          =      -0.3283112909722310 [Eh]
	 Opposite-Spin Energy      =      -1.0135653600878516 [Eh]
	 Correlation Energy        =      -1.3418766510600826 [Eh]
	 Total Energy              =    -343.1712548646483469 [Eh]

	 ================> DF-SCS-MP2 Energies <==================
	-----------------------------------------------------------
	 SCS Same-Spin Scale       =       0.3333333333333333 [-]
	 SCS Opposite-Spin Scale   =       1.2000000000000000 [-]
	 SCS Same-Spin Energy      =      -0.1094370969907437 [Eh]
	 SCS Opposite-Spin Energy  =      -1.2162784321054219 [Eh]
	 SCS Correlation Energy    =      -1.3257155290961655 [Eh]
	 SCS Total Energy          =    -343.1550937426844143 [Eh]
	-----------------------------------------------------------

  Dipole Moment: [D]
     X:     1.2637      Y:     2.2744      Z:    -0.0618     Total:     2.6026

*** Psi4 exiting successfully. Buy a developer a beer!
