                               Psi4 1.3.2 release

  ==> Input File <==

--------------------------------------------------------------------------
#psi4
#
memory 32 gb

molecule  {
0 1
  O       -1.4344650     1.0675660     0.2191520
  O        1.4425540    -1.0727980    -0.0074420
  O        1.2503669     1.1802828    -0.0713902
  C       -0.7253187    -0.1610456     0.3621452
  C       -1.3608000    -1.1844980    -0.5490290
  C        0.7386720     0.0808740     0.0596700
  H       -0.7692630    -0.5063940     1.4052130
  H       -1.2645370    -0.8668950    -1.5888250
  H       -2.4222350    -1.2600450    -0.3075440
  H       -0.8906180    -2.1601930    -0.4204410
  H       -0.7794970     1.7838810     0.3439450
  H        2.3720270    -0.8088230    -0.1742930
units angstrom
no_reorient  #important for SAPT in psi4, default
symmetry c1  #important for SAPT in psi4, default
}

set PROPERTIES_ORIGIN ["COM"]
properties('MP2/aug-cc-pvtz', properties = ['dipole'])
--------------------------------------------------------------------------

    Molecular point group: c1
  Charge       = 0
  Multiplicity = 1
  Basis Set: AUG-CC-PVTZ
    Blend: AUG-CC-PVTZ
  Basis Set: (AUG-CC-PVTZ AUX)
    Blend: AUG-CC-PVTZ-JKFIT

    Orbital Energies [Eh]
    ---------------------

    Doubly Occupied:

       1A    -20.633155     2A    -20.570730     3A    -20.566125
       4A    -11.403821     5A    -11.312084     6A    -11.231865
       7A     -1.480287     8A     -1.384112     9A     -1.359431
      10A     -1.055833    11A     -0.919639    12A     -0.811552
      13A     -0.736861    14A     -0.721811    15A     -0.690774
      16A     -0.639147    17A     -0.621482    18A     -0.583954
      19A     -0.561618    20A     -0.541502    21A     -0.534409
      22A     -0.499885    23A     -0.475634    24A     -0.455907

  @DF-RHF Final Energy:  -341.83645514048231

   => Energetics <=

    Nuclear Repulsion Energy =            249.5401860860381760
    One-Electron Energy =                -963.1700456128896803
    Two-Electron Energy =                 371.7934043863692182
    Total Energy =                       -341.8364551404823146
  Basis Set: (AUG-CC-PVTZ AUX)
    Blend: AUG-CC-PVTZ-RI
    Molecular point group: c1

    Geometry (in Angstrom), charge = 0, multiplicity = 1:

       Center              X                  Y                   Z               Mass
    ------------   -----------------  -----------------  -----------------  -----------------
         O           -1.436420257439     1.070115620173     0.219484251030    15.994914619570
         O            1.440598742561    -1.070248379827    -0.007109748970    15.994914619570
         O            1.248411642561     1.182832420173    -0.071057948970    15.994914619570
         C           -0.727273957439    -0.158495979827     0.362477451030    12.000000000000
         C           -1.362755257439    -1.181948379827    -0.548696748970    12.000000000000
         C            0.736716742561     0.083423620173     0.060002251030    12.000000000000
         H           -0.771218257439    -0.503844379827     1.405545251030     1.007825032230
         H           -1.266492257439    -0.864345379827    -1.588492748970     1.007825032230
         H           -2.424190257439    -1.257495379827    -0.307211748970     1.007825032230
         H           -0.892573257439    -2.157643379827    -0.420108748970     1.007825032230
         H           -0.781452257439     1.786430620173     0.344277251030     1.007825032230
         H            2.370071742561    -0.806273379827    -0.173960748970     1.007825032230

  Basis Set: AUG-CC-PVTZ
    Blend: AUG-CC-PVTZ
  Basis Set: (AUG-CC-PVTZ AUX)
    Blend: AUG-CC-PVTZ-JKFIT
	 Reference Energy          =    -341.8364551404823146 [Eh]
	 Singles Energy            =      -0.0000000000000000 [Eh]
	 Same-Spin Energy          =      -0.3271663421514599 [Eh]
	 Opposite-Spin Energy      =      -1.0119717083503461 [Eh]
	 Correlation Energy        =      -1.3391380505018060 [Eh]
	 Total Energy              =    -343.1755931909841024 [Eh]

	 ================> DF-SCS-MP2 Energies <==================
	-----------------------------------------------------------
	 SCS Same-Spin Scale       =       0.3333333333333333 [-]
	 SCS Opposite-Spin Scale   =       1.2000000000000000 [-]
	 SCS Same-Spin Energy      =      -0.1090554473838200 [Eh]
	 SCS Opposite-Spin Energy  =      -1.2143660500204152 [Eh]
	 SCS Correlation Energy    =      -1.3234214974042351 [Eh]
	 SCS Total Energy          =    -343.1598766378865548 [Eh]
	-----------------------------------------------------------

  Dipole Moment: [D]
     X:     1.2088      Y:    -1.8732      Z:     0.3117     Total:     2.2511

*** Psi4 exiting successfully. Buy a developer a beer!
