                               Psi4 1.3.2 release

  ==> Input File <==

--------------------------------------------------------------------------
#psi4
#
memory 32 gb

molecule  {
0 1
  O       -1.4344650     1.0675660     0.2191520
  O        1.4425540    -1.0727980    -0.0074420
  O        1.2409190     1.1848430    -0.0695910
  C       -0.7273960    -0.1479950     0.3622400
  C       -1.3608000    -1.1844980    -0.5490290
  C        0.6995267     0.0555789     0.0673176
  H       -0.7692630    -0.5063940     1.4052130
  H       -1.2645370    -0.8668950    -1.5888250
  H       -2.4222350    -1.2600450    -0.3075440
  H       -0.8906180    -2.1601930    -0.4204410
  H       -0.7794970     1.7838810     0.3439450
  H        2.3807901    -0.8419074    -0.1743091
units angstrom
no_reorient  #important for SAPT in psi4, default
symmetry c1  #important for SAPT in psi4, default
}

set PROPERTIES_ORIGIN ["COM"]
properties('MP2/aug-cc-pvtz', properties = ['dipole'])
--------------------------------------------------------------------------

    Molecular point group: c1
  Charge       = 0
  Multiplicity = 1
  Basis Set: AUG-CC-PVTZ
    Blend: AUG-CC-PVTZ
  Basis Set: (AUG-CC-PVTZ AUX)
    Blend: AUG-CC-PVTZ-JKFIT

    Orbital Energies [Eh]
    ---------------------

    Doubly Occupied:

       1A    -20.634314     2A    -20.569326     3A    -20.564605
       4A    -11.408256     5A    -11.313459     6A    -11.234751
       7A     -1.472190     8A     -1.382756     9A     -1.345842
      10A     -1.064175    11A     -0.928159    12A     -0.818194
      13A     -0.740197    14A     -0.717870    15A     -0.692599
      16A     -0.633758    17A     -0.612932    18A     -0.586440
      19A     -0.563465    20A     -0.545223    21A     -0.532147
      22A     -0.487178    23A     -0.473594    24A     -0.459571

  @DF-RHF Final Energy:  -341.82931068782949

   => Energetics <=

    Nuclear Repulsion Energy =            249.5999850617700417
    One-Electron Energy =                -963.2965838604322926
    Two-Electron Energy =                 371.8672881108328170
    Total Energy =                       -341.8293106878294907
  Basis Set: (AUG-CC-PVTZ AUX)
    Blend: AUG-CC-PVTZ-RI
    Molecular point group: c1

    Geometry (in Angstrom), charge = 0, multiplicity = 1:

       Center              X                  Y                   Z               Mass
    ------------   -----------------  -----------------  -----------------  -----------------
         O           -1.429345439076     1.071307836736     0.218132831114    15.994914619570
         O            1.447673560924    -1.069056163264    -0.008461168886    15.994914619570
         O            1.246038560924     1.188584836736    -0.070610168886    15.994914619570
         C           -0.722276439076    -0.144253163264     0.361220831114    12.000000000000
         C           -1.355680439076    -1.180756163264    -0.550048168886    12.000000000000
         C            0.704646260924     0.059320736736     0.066298431114    12.000000000000
         H           -0.764143439076    -0.502652163264     1.404193831114     1.007825032230
         H           -1.259417439076    -0.863153163264    -1.589844168886     1.007825032230
         H           -2.417115439076    -1.256303163264    -0.308563168886     1.007825032230
         H           -0.885498439076    -2.156451163264    -0.421460168886     1.007825032230
         H           -0.774377439076     1.787622836736     0.342925831114     1.007825032230
         H            2.385909660924    -0.838165563264    -0.175328268886     1.007825032230

  Basis Set: AUG-CC-PVTZ
    Blend: AUG-CC-PVTZ
  Basis Set: (AUG-CC-PVTZ AUX)
    Blend: AUG-CC-PVTZ-JKFIT
	 Reference Energy          =    -341.8293106878294907 [Eh]
	 Singles Energy            =      -0.0000000000000000 [Eh]
	 Same-Spin Energy          =      -0.3281957143797627 [Eh]
	 Opposite-Spin Energy      =      -1.0136957600215413 [Eh]
	 Correlation Energy        =      -1.3418914744013040 [Eh]
	 Total Energy              =    -343.1712021622307702 [Eh]

	 ================> DF-SCS-MP2 Energies <==================
	-----------------------------------------------------------
	 SCS Same-Spin Scale       =       0.3333333333333333 [-]
	 SCS Opposite-Spin Scale   =       1.2000000000000000 [-]
	 SCS Same-Spin Energy      =      -0.1093985714599209 [Eh]
	 SCS Opposite-Spin Energy  =      -1.2164349120258495 [Eh]
	 SCS Correlation Energy    =      -1.3258334834857703 [Eh]
	 SCS Total Energy          =    -343.1551441713152713 [Eh]
	-----------------------------------------------------------

  Dipole Moment: [D]
     X:     1.0611      Y:    -2.0531      Z:     0.3372     Total:     2.3355

*** Psi4 exiting successfully. Buy a developer a beer!
