                               Psi4 1.3.2 release

  ==> Input File <==

--------------------------------------------------------------------------
#psi4
#
memory 32 gb

molecule  {
0 1
  O       -1.4344650     1.0675660     0.2191520
  O        1.4817216    -1.0474971    -0.0149555
  O        1.2787846     1.1661581    -0.0750329
  C       -0.7273960    -0.1479950     0.3622400
  C       -1.3608000    -1.1844980    -0.5490290
  C        0.7386720     0.0808740     0.0596700
  H       -0.7692630    -0.5063940     1.4052130
  H       -1.2645370    -0.8668950    -1.5888250
  H       -2.4222350    -1.2600450    -0.3075440
  H       -0.8906180    -2.1601930    -0.4204410
  H       -0.7794970     1.7838810     0.3439450
  H        2.3720270    -0.8088230    -0.1742930
units angstrom
no_reorient  #important for SAPT in psi4, default
symmetry c1  #important for SAPT in psi4, default
}

set PROPERTIES_ORIGIN ["COM"]
properties('MP2/aug-cc-pvtz', properties = ['dipole'])
--------------------------------------------------------------------------

    Molecular point group: c1
  Charge       = 0
  Multiplicity = 1
  Basis Set: AUG-CC-PVTZ
    Blend: AUG-CC-PVTZ
  Basis Set: (AUG-CC-PVTZ AUX)
    Blend: AUG-CC-PVTZ-JKFIT

    Orbital Energies [Eh]
    ---------------------

    Doubly Occupied:

       1A    -20.624076     2A    -20.570715     3A    -20.567488
       4A    -11.403271     5A    -11.316116     6A    -11.233666
       7A     -1.484435     8A     -1.386566     9A     -1.362708
      10A     -1.056889    11A     -0.923323    12A     -0.821309
      13A     -0.740737    14A     -0.721798    15A     -0.692744
      16A     -0.638783    17A     -0.619955    18A     -0.587601
      19A     -0.563148    20A     -0.544635    21A     -0.535776
      22A     -0.496763    23A     -0.475174    24A     -0.457297

  @DF-RHF Final Energy:  -341.83762941567193

   => Energetics <=

    Nuclear Repulsion Energy =            249.4788842478048991
    One-Electron Energy =                -962.9830819371545658
    Two-Electron Energy =                 371.6665682736777399
    Total Energy =                       -341.8376294156719268
  Basis Set: (AUG-CC-PVTZ AUX)
    Blend: AUG-CC-PVTZ-RI
    Molecular point group: c1

    Geometry (in Angstrom), charge = 0, multiplicity = 1:

       Center              X                  Y                   Z               Mass
    ------------   -----------------  -----------------  -----------------  -----------------
         O           -1.448150498818     1.066390603463     0.221453611580    15.994914619570
         O            1.468036101182    -1.048672496537    -0.012653888420    15.994914619570
         O            1.265099101182     1.164982703463    -0.072731288420    15.994914619570
         C           -0.741081498818    -0.149170396537     0.364541611580    12.000000000000
         C           -1.374485498818    -1.185673396537    -0.546727388420    12.000000000000
         C            0.724986501182     0.079698603463     0.061971611580    12.000000000000
         H           -0.782948498818    -0.507569396537     1.407514611580     1.007825032230
         H           -1.278222498818    -0.868070396537    -1.586523388420     1.007825032230
         H           -2.435920498818    -1.261220396537    -0.305242388420     1.007825032230
         H           -0.904303498818    -2.161368396537    -0.418139388420     1.007825032230
         H           -0.793182498818     1.782705603463     0.346246611580     1.007825032230
         H            2.358341501182    -0.809998396537    -0.171991388420     1.007825032230

  Basis Set: AUG-CC-PVTZ
    Blend: AUG-CC-PVTZ
  Basis Set: (AUG-CC-PVTZ AUX)
    Blend: AUG-CC-PVTZ-JKFIT
	 Reference Energy          =    -341.8376294156719268 [Eh]
	 Singles Energy            =      -0.0000000000000000 [Eh]
	 Same-Spin Energy          =      -0.3261732951104805 [Eh]
	 Opposite-Spin Energy      =      -1.0098025026772799 [Eh]
	 Correlation Energy        =      -1.3359757977877604 [Eh]
	 Total Energy              =    -343.1736052134596662 [Eh]

	 ================> DF-SCS-MP2 Energies <==================
	-----------------------------------------------------------
	 SCS Same-Spin Scale       =       0.3333333333333333 [-]
	 SCS Opposite-Spin Scale   =       1.2000000000000000 [-]
	 SCS Same-Spin Energy      =      -0.1087244317034935 [Eh]
	 SCS Opposite-Spin Energy  =      -1.2117630032127358 [Eh]
	 SCS Correlation Energy    =      -1.3204874349162292 [Eh]
	 SCS Total Energy          =    -343.1581168505881578 [Eh]
	-----------------------------------------------------------

  Dipole Moment: [D]
     X:     0.9862      Y:    -1.8132      Z:     0.3372     Total:     2.0914

*** Psi4 exiting successfully. Buy a developer a beer!
