                               Psi4 1.4a3.dev225

  ==> Input File <==

--------------------------------------------------------------------------
#psi4
#
memory 32 gb

molecule  {
0 1
  O       -1.3959680    -1.1167090    -0.2833280
  O        1.5522570     0.9331460    -0.3210200
  O        1.1768320    -1.1502310     0.4959580
  C       -0.6816250     0.0987340    -0.4130150
  C       -1.2926720     1.1882940     0.4648960
  C        0.8153425    -0.1368603    -0.0240862
  H       -0.7109810     0.4129130    -1.4639800
  H       -1.2242180     0.8953450     1.5161010
  H       -2.3476110     1.2964270     0.2055410
  H       -0.7844450     2.1448300     0.3211210
  H       -0.8100540    -1.7212800     0.2125920
  H        2.4531110     0.6959320    -0.0164550
units angstrom
no_reorient  #important for SAPT in psi4, default
symmetry c1  #important for SAPT in psi4, default
}

set PROPERTIES_ORIGIN ["COM"]
properties('MP2/aug-cc-pvtz', properties = ['dipole'])
--------------------------------------------------------------------------

    Molecular point group: c1
  Charge       = 0
  Multiplicity = 1
  Basis Set: AUG-CC-PVTZ
    Blend: AUG-CC-PVTZ
  Basis Set: (AUG-CC-PVTZ AUX)
    Blend: AUG-CC-PVTZ-JKFIT

    Orbital Energies [Eh]
    ---------------------

    Doubly Occupied:

       1A    -20.640511     2A    -20.574304     3A    -20.561693
       4A    -11.401600     5A    -11.308196     6A    -11.230907
       7A     -1.494797     8A     -1.399906     9A     -1.362736
      10A     -1.042883    11A     -0.911399    12A     -0.814577
      13A     -0.744265    14A     -0.730704    15A     -0.671716
      16A     -0.646683    17A     -0.632434    18A     -0.588771
      19A     -0.567197    20A     -0.540464    21A     -0.533602
      22A     -0.511207    23A     -0.460460    24A     -0.452474

  @DF-RHF Final Energy:  -341.83700390866045

   => Energetics <=

    Nuclear Repulsion Energy =            249.5572532677422544
    One-Electron Energy =                -963.1415404657855106
    Two-Electron Energy =                 371.7472832893828354
    Total Energy =                       -341.8370039086604493
  Basis Set: (AUG-CC-PVTZ AUX)
    Blend: AUG-CC-PVTZ-RI
    Molecular point group: c1

    Geometry (in Angstrom), charge = 0, multiplicity = 1:

       Center              X                  Y                   Z               Mass
    ------------   -----------------  -----------------  -----------------  -----------------
         O           -1.440004826748    -1.074739335172    -0.276450783836    15.994914619570
         O            1.508220173252     0.975115664828    -0.314142783836    15.994914619570
         O            1.132795173252    -1.108261335172     0.502835216164    15.994914619570
         C           -0.725661826748     0.140703664828    -0.406137783836    12.000000000000
         C           -1.336708826748     1.230263664828     0.471773216164    12.000000000000
         C            0.771305673252    -0.094890635172    -0.017208983836    12.000000000000
         H           -0.755017826748     0.454882664828    -1.457102783836     1.007825032230
         H           -1.268254826748     0.937314664828     1.522978216164     1.007825032230
         H           -2.391647826748     1.338396664828     0.212418216164     1.007825032230
         H           -0.828481826748     2.186799664828     0.327998216164     1.007825032230
         H           -0.854090826748    -1.679310335172     0.219469216164     1.007825032230
         H            2.409074173252     0.737901664828    -0.009577783836     1.007825032230

  Basis Set: AUG-CC-PVTZ
    Blend: AUG-CC-PVTZ
  Basis Set: (AUG-CC-PVTZ AUX)
    Blend: AUG-CC-PVTZ-JKFIT
	 Reference Energy          =    -341.8370039086604493 [Eh]
	 Singles Energy            =      -0.0000000000000000 [Eh]
	 Same-Spin Energy          =      -0.3264765365044371 [Eh]
	 Opposite-Spin Energy      =      -1.0102958826228050 [Eh]
	 Correlation Energy        =      -1.3367724191272421 [Eh]
	 Total Energy              =    -343.1737763277876638 [Eh]

	 ================> DF-SCS-MP2 Energies <==================
	-----------------------------------------------------------
	 SCS Same-Spin Scale       =       0.3333333333333333 [-]
	 SCS Opposite-Spin Scale   =       1.2000000000000000 [-]
	 SCS Same-Spin Energy      =      -0.1088255121681457 [Eh]
	 SCS Opposite-Spin Energy  =      -1.2123550591473660 [Eh]
	 SCS Correlation Energy    =      -1.3211805713155116 [Eh]
	 SCS Total Energy          =    -343.1581844799759438 [Eh]
	-----------------------------------------------------------

  Dipole Moment: [D]
     X:     1.5751      Y:     1.9233      Z:     0.1054     Total:     2.4882

*** Psi4 exiting successfully. Buy a developer a beer!
