                               Psi4 1.3.2 release

  ==> Input File <==

--------------------------------------------------------------------------
#psi4
#
memory 32 gb

molecule  {
0 1
  O       -1.4344650     1.0675660     0.2191520
  O        1.4425540    -1.0727980    -0.0074420
  O        1.2409190     1.1848430    -0.0695910
  C       -0.6861693    -0.1220788     0.3701757
  C       -1.3608000    -1.1844980    -0.5490290
  C        0.7386720     0.0808740     0.0596700
  H       -0.7692630    -0.5063940     1.4052130
  H       -1.2645370    -0.8668950    -1.5888250
  H       -2.4222350    -1.2600450    -0.3075440
  H       -0.8906180    -2.1601930    -0.4204410
  H       -0.7553779     1.7601758     0.3487512
  H        2.3720270    -0.8088230    -0.1742930
units angstrom
no_reorient  #important for SAPT in psi4, default
symmetry c1  #important for SAPT in psi4, default
}

set PROPERTIES_ORIGIN ["COM"]
properties('MP2/aug-cc-pvtz', properties = ['dipole'])
--------------------------------------------------------------------------

    Molecular point group: c1
  Charge       = 0
  Multiplicity = 1
  Basis Set: AUG-CC-PVTZ
    Blend: AUG-CC-PVTZ
  Basis Set: (AUG-CC-PVTZ AUX)
    Blend: AUG-CC-PVTZ-JKFIT

    Orbital Energies [Eh]
    ---------------------

    Doubly Occupied:

       1A    -20.635367     2A    -20.571269     3A    -20.569280
       4A    -11.404096     5A    -11.309995     6A    -11.233426
       7A     -1.482596     8A     -1.389767     9A     -1.363903
      10A     -1.051186    11A     -0.923935    12A     -0.811133
      13A     -0.741798    14A     -0.725031    15A     -0.690432
      16A     -0.638819    17A     -0.622184    18A     -0.583962
      19A     -0.558401    20A     -0.543614    21A     -0.536179
      22A     -0.501166    23A     -0.474742    24A     -0.455740

  @DF-RHF Final Energy:  -341.83331380546122

   => Energetics <=

    Nuclear Repulsion Energy =            250.0511792981604060
    One-Electron Energy =                -964.1329444890880040
    Two-Electron Energy =                 372.2484513854664101
    Total Energy =                       -341.8333138054612164
  Basis Set: (AUG-CC-PVTZ AUX)
    Blend: AUG-CC-PVTZ-RI
    Molecular point group: c1

    Geometry (in Angstrom), charge = 0, multiplicity = 1:

       Center              X                  Y                   Z               Mass
    ------------   -----------------  -----------------  -----------------  -----------------
         O           -1.440229830084     1.064377075307     0.218040449929    15.994914619570
         O            1.436789169916    -1.075986924693    -0.008553550071    15.994914619570
         O            1.235154169916     1.181654075307    -0.070702550071    15.994914619570
         C           -0.691934130084    -0.125267724693     0.369064149929    12.000000000000
         C           -1.366564830084    -1.187686924693    -0.550140550071    12.000000000000
         C            0.732907169916     0.077685075307     0.058558449929    12.000000000000
         H           -0.775027830084    -0.509582924693     1.404101449929     1.007825032230
         H           -1.270301830084    -0.870083924693    -1.589936550071     1.007825032230
         H           -2.427999830084    -1.263233924693    -0.308655550071     1.007825032230
         H           -0.896382830084    -2.163381924693    -0.421552550071     1.007825032230
         H           -0.761142730084     1.756986875307     0.347639649929     1.007825032230
         H            2.366262169916    -0.812011924693    -0.175404550071     1.007825032230

  Basis Set: AUG-CC-PVTZ
    Blend: AUG-CC-PVTZ
  Basis Set: (AUG-CC-PVTZ AUX)
    Blend: AUG-CC-PVTZ-JKFIT
	 Reference Energy          =    -341.8333138054612164 [Eh]
	 Singles Energy            =      -0.0000000000000000 [Eh]
	 Same-Spin Energy          =      -0.3274571028889532 [Eh]
	 Opposite-Spin Energy      =      -1.0124222241199150 [Eh]
	 Correlation Energy        =      -1.3398793270088682 [Eh]
	 Total Energy              =    -343.1731931324700895 [Eh]

	 ================> DF-SCS-MP2 Energies <==================
	-----------------------------------------------------------
	 SCS Same-Spin Scale       =       0.3333333333333333 [-]
	 SCS Opposite-Spin Scale   =       1.2000000000000000 [-]
	 SCS Same-Spin Energy      =      -0.1091523676296511 [Eh]
	 SCS Opposite-Spin Energy  =      -1.2149066689438979 [Eh]
	 SCS Correlation Energy    =      -1.3240590365735490 [Eh]
	 SCS Total Energy          =    -343.1573728420347607 [Eh]
	-----------------------------------------------------------

  Dipole Moment: [D]
     X:     1.2546      Y:    -1.8487      Z:     0.3355     Total:     2.2592

*** Psi4 exiting successfully. Buy a developer a beer!
