                               Psi4 1.3.2 release

  ==> Input File <==

--------------------------------------------------------------------------
#psi4
#
memory 32 gb

molecule  {
0 1
  O       -1.4344650     1.0675660     0.2191520
  O        1.4425540    -1.0727980    -0.0074420
  O        1.2409190     1.1848430    -0.0695910
  C       -0.7483356    -0.1603997     0.3582062
  C       -1.3608000    -1.1844980    -0.5490290
  C        0.7386720     0.0808740     0.0596700
  H       -0.7692630    -0.5063940     1.4052130
  H       -1.2645370    -0.8668950    -1.5888250
  H       -2.4222350    -1.2600450    -0.3075440
  H       -0.8906180    -2.1601930    -0.4204410
  H       -0.7918577     1.7954081     0.3414845
  H        2.3720270    -0.8088230    -0.1742930
units angstrom
no_reorient  #important for SAPT in psi4, default
symmetry c1  #important for SAPT in psi4, default
}

set PROPERTIES_ORIGIN ["COM"]
properties('MP2/aug-cc-pvtz', properties = ['dipole'])
--------------------------------------------------------------------------

    Molecular point group: c1
  Charge       = 0
  Multiplicity = 1
  Basis Set: AUG-CC-PVTZ
    Blend: AUG-CC-PVTZ
  Basis Set: (AUG-CC-PVTZ AUX)
    Blend: AUG-CC-PVTZ-JKFIT

    Orbital Energies [Eh]
    ---------------------

    Doubly Occupied:

       1A    -20.633295     2A    -20.569907     3A    -20.565925
       4A    -11.402895     5A    -11.312504     6A    -11.230649
       7A     -1.478949     8A     -1.385109     9A     -1.361287
      10A     -1.055286    11A     -0.915693    12A     -0.812309
      13A     -0.737303    14A     -0.720383    15A     -0.691472
      16A     -0.639389    17A     -0.621080    18A     -0.586856
      19A     -0.563460    20A     -0.542076    21A     -0.531792
      22A     -0.499591    23A     -0.474687    24A     -0.452168

  @DF-RHF Final Energy:  -341.83646237283438

   => Energetics <=

    Nuclear Repulsion Energy =            249.4599430804516658
    One-Electron Energy =                -963.0246811045748245
    Two-Electron Energy =                 371.7282756512887545
    Total Energy =                       -341.8364623728343759
  Basis Set: (AUG-CC-PVTZ AUX)
    Blend: AUG-CC-PVTZ-RI
    Molecular point group: c1

    Geometry (in Angstrom), charge = 0, multiplicity = 1:

       Center              X                  Y                   Z               Mass
    ------------   -----------------  -----------------  -----------------  -----------------
         O           -1.431535548989     1.069090335571     0.219717165709    15.994914619570
         O            1.445483451011    -1.071273664429    -0.006876834291    15.994914619570
         O            1.243848451011     1.186367335571    -0.069025834291    15.994914619570
         C           -0.745406148989    -0.158875364429     0.358771365709    12.000000000000
         C           -1.357870548989    -1.182973664429    -0.548463834291    12.000000000000
         C            0.741601451011     0.082398335571     0.060235165709    12.000000000000
         H           -0.766333548989    -0.504869664429     1.405778165709     1.007825032230
         H           -1.261607548989    -0.865370664429    -1.588259834291     1.007825032230
         H           -2.419305548989    -1.258520664429    -0.306978834291     1.007825032230
         H           -0.887688548989    -2.158668664429    -0.419875834291     1.007825032230
         H           -0.788928248989     1.796932435571     0.342049665709     1.007825032230
         H            2.374956451011    -0.807298664429    -0.173727834291     1.007825032230

  Basis Set: AUG-CC-PVTZ
    Blend: AUG-CC-PVTZ
  Basis Set: (AUG-CC-PVTZ AUX)
    Blend: AUG-CC-PVTZ-JKFIT
	 Reference Energy          =    -341.8364623728343759 [Eh]
	 Singles Energy            =      -0.0000000000000000 [Eh]
	 Same-Spin Energy          =      -0.3270856787432771 [Eh]
	 Opposite-Spin Energy      =      -1.0115949054534736 [Eh]
	 Correlation Energy        =      -1.3386805841967506 [Eh]
	 Total Energy              =    -343.1751429570311416 [Eh]

	 ================> DF-SCS-MP2 Energies <==================
	-----------------------------------------------------------
	 SCS Same-Spin Scale       =       0.3333333333333333 [-]
	 SCS Opposite-Spin Scale   =       1.2000000000000000 [-]
	 SCS Same-Spin Energy      =      -0.1090285595810924 [Eh]
	 SCS Opposite-Spin Energy  =      -1.2139138865441683 [Eh]
	 SCS Correlation Energy    =      -1.3229424461252606 [Eh]
	 SCS Total Energy          =    -343.1594048189596151 [Eh]
	-----------------------------------------------------------

  Dipole Moment: [D]
     X:     1.2004      Y:    -1.8397      Z:     0.2938     Total:     2.2162

*** Psi4 exiting successfully. Buy a developer a beer!
