                               Psi4 1.4a3.dev225

  ==> Input File <==

--------------------------------------------------------------------------
#psi4
#
memory 32 gb

molecule  {
0 1
  O       -1.3959680    -1.1167090    -0.2833280
  O        1.5522570     0.9331460    -0.3210200
  O        1.1768320    -1.1502310     0.4959580
  C       -0.6816250     0.0987340    -0.4130150
  C       -1.2926720     1.1882940     0.4648960
  C        0.7675010    -0.1293310    -0.0365160
  H       -0.7109810     0.4129130    -1.4639800
  H       -1.2242180     0.8953450     1.5161010
  H       -2.3476110     1.2964270     0.2055410
  H       -0.7844450     2.1448300     0.3211210
  H       -0.8100540    -1.7212800     0.2125920
  H        2.4347278     0.7007727    -0.0226701
units angstrom
no_reorient  #important for SAPT in psi4, default
symmetry c1  #important for SAPT in psi4, default
}

set PROPERTIES_ORIGIN ["COM"]
properties('MP2/aug-cc-pvtz', properties = ['dipole'])
--------------------------------------------------------------------------

    Molecular point group: c1
  Charge       = 0
  Multiplicity = 1
  Basis Set: AUG-CC-PVTZ
    Blend: AUG-CC-PVTZ
  Basis Set: (AUG-CC-PVTZ AUX)
    Blend: AUG-CC-PVTZ-JKFIT

    Orbital Energies [Eh]
    ---------------------

    Doubly Occupied:

       1A    -20.634687     2A    -20.572782     3A    -20.564755
       4A    -11.405951     5A    -11.311398     6A    -11.234936
       7A     -1.484841     8A     -1.388996     9A     -1.361428
      10A     -1.053951    11A     -0.921477    12A     -0.817098
      13A     -0.744824    14A     -0.728166    15A     -0.670679
      16A     -0.644309    17A     -0.626565    18A     -0.590562
      19A     -0.569825    20A     -0.543515    21A     -0.532437
      22A     -0.502597    23A     -0.469526    24A     -0.457200

  @DF-RHF Final Energy:  -341.83799715428881

   => Energetics <=

    Nuclear Repulsion Energy =            249.7059703436480049
    One-Electron Energy =                -963.4229229290173180
    Two-Electron Energy =                 371.8789554310804988
    Total Energy =                       -341.8379971542888143
  Basis Set: (AUG-CC-PVTZ AUX)
    Blend: AUG-CC-PVTZ-RI
    Molecular point group: c1

    Geometry (in Angstrom), charge = 0, multiplicity = 1:

       Center              X                  Y                   Z               Mass
    ------------   -----------------  -----------------  -----------------  -----------------
         O           -1.433422422015    -1.075797075778    -0.274724488057    15.994914619570
         O            1.514802577985     0.974057924222    -0.312416488057    15.994914619570
         O            1.139377577985    -1.109319075778     0.504561511943    15.994914619570
         C           -0.719079422015     0.139645924222    -0.404411488057    12.000000000000
         C           -1.330126422015     1.229205924222     0.473499511943    12.000000000000
         C            0.730046577985    -0.088419075778    -0.027912488057    12.000000000000
         H           -0.748435422015     0.453824924222    -1.455376488057     1.007825032230
         H           -1.261672422015     0.936256924222     1.524704511943     1.007825032230
         H           -2.385065422015     1.337338924222     0.214144511943     1.007825032230
         H           -0.821899422015     2.185741924222     0.329724511943     1.007825032230
         H           -0.847508422015    -1.680368075778     0.221195511943     1.007825032230
         H            2.397273377985     0.741684624222    -0.014066588057     1.007825032230

  Basis Set: AUG-CC-PVTZ
    Blend: AUG-CC-PVTZ
  Basis Set: (AUG-CC-PVTZ AUX)
    Blend: AUG-CC-PVTZ-JKFIT
	 Reference Energy          =    -341.8379971542888143 [Eh]
	 Singles Energy            =      -0.0000000000000000 [Eh]
	 Same-Spin Energy          =      -0.3269686731815940 [Eh]
	 Opposite-Spin Energy      =      -1.0112104981395542 [Eh]
	 Correlation Energy        =      -1.3381791713211482 [Eh]
	 Total Energy              =    -343.1761763256099584 [Eh]

	 ================> DF-SCS-MP2 Energies <==================
	-----------------------------------------------------------
	 SCS Same-Spin Scale       =       0.3333333333333333 [-]
	 SCS Opposite-Spin Scale   =       1.2000000000000000 [-]
	 SCS Same-Spin Energy      =      -0.1089895577271980 [Eh]
	 SCS Opposite-Spin Energy  =      -1.2134525977674651 [Eh]
	 SCS Correlation Energy    =      -1.3224421554946630 [Eh]
	 SCS Total Energy          =    -343.1604393097834986 [Eh]
	-----------------------------------------------------------

  Dipole Moment: [D]
     X:     1.2775      Y:     1.9663      Z:     0.0583     Total:     2.3456

*** Psi4 exiting successfully. Buy a developer a beer!
