                               Psi4 1.3.2 release

  ==> Input File <==

--------------------------------------------------------------------------
#psi4
#
memory 32 gb

molecule  {
0 1
  O       -1.4344650     1.0675660     0.2191520
  O        1.4425540    -1.0727980    -0.0074420
  O        1.2409190     1.1848430    -0.0695910
  C       -0.7273960    -0.1479950     0.3622400
  C       -1.3608000    -1.1844980    -0.5490290
  C        0.7386720     0.0808740     0.0596700
  H       -0.7692630    -0.5063940     1.4052130
  H       -1.2645370    -0.8668950    -1.5888250
  H       -2.4222350    -1.2600450    -0.3075440
  H       -0.8906180    -2.1601930    -0.4204410
  H       -0.9133548     1.6374856     0.3184407
  H        2.3720270    -0.8088230    -0.1742930
units angstrom
no_reorient  #important for SAPT in psi4, default
symmetry c1  #important for SAPT in psi4, default
}

set PROPERTIES_ORIGIN ["COM"]
properties('MP2/aug-cc-pvtz', properties = ['dipole'])
--------------------------------------------------------------------------

    Molecular point group: c1
  Charge       = 0
  Multiplicity = 1
  Basis Set: AUG-CC-PVTZ
    Blend: AUG-CC-PVTZ
  Basis Set: (AUG-CC-PVTZ AUX)
    Blend: AUG-CC-PVTZ-JKFIT

    Orbital Energies [Eh]
    ---------------------

    Doubly Occupied:

       1A    -20.634096     2A    -20.569364     3A    -20.550682
       4A    -11.403982     5A    -11.314864     6A    -11.233166
       7A     -1.481483     8A     -1.434409     9A     -1.373075
      10A     -1.067602    11A     -0.920300    12A     -0.831630
      13A     -0.758339    14A     -0.722136    15A     -0.702060
      16A     -0.644526    17A     -0.622862    18A     -0.592112
      19A     -0.566189    20A     -0.548453    21A     -0.545303
      22A     -0.499468    23A     -0.477160    24A     -0.459010

  @DF-RHF Final Energy:  -341.79356225049440

   => Energetics <=

    Nuclear Repulsion Energy =            250.9177403593504039
    One-Electron Energy =                -965.5180662507423222
    Two-Electron Energy =                 372.8067636408974863
    Total Energy =                       -341.7935622504944035
  Basis Set: (AUG-CC-PVTZ AUX)
    Blend: AUG-CC-PVTZ-RI
    Molecular point group: c1

    Geometry (in Angstrom), charge = 0, multiplicity = 1:

       Center              X                  Y                   Z               Mass
    ------------   -----------------  -----------------  -----------------  -----------------
         O           -1.432966460432     1.069204760261     0.219437469967    15.994914619570
         O            1.444052539568    -1.071159239739    -0.007156530033    15.994914619570
         O            1.242417539568     1.186481760261    -0.069305530033    15.994914619570
         C           -0.725897460432    -0.146356239739     0.362525469967    12.000000000000
         C           -1.359301460432    -1.182859239739    -0.548743530033    12.000000000000
         C            0.740170539568     0.082512760261     0.059955469967    12.000000000000
         H           -0.767764460432    -0.504755239739     1.405498469967     1.007825032230
         H           -1.263038460432    -0.865256239739    -1.588539530033     1.007825032230
         H           -2.420736460432    -1.258406239739    -0.307258530033     1.007825032230
         H           -0.889119460432    -2.158554239739    -0.420155530033     1.007825032230
         H           -0.911856260432     1.639124360261     0.318726169967     1.007825032230
         H            2.373525539568    -0.807184239739    -0.174007530033     1.007825032230

  Basis Set: AUG-CC-PVTZ
    Blend: AUG-CC-PVTZ
  Basis Set: (AUG-CC-PVTZ AUX)
    Blend: AUG-CC-PVTZ-JKFIT
	 Reference Energy          =    -341.7935622504944035 [Eh]
	 Singles Energy            =      -0.0000000000000000 [Eh]
	 Same-Spin Energy          =      -0.3245517357389710 [Eh]
	 Opposite-Spin Energy      =      -1.0063564025384784 [Eh]
	 Correlation Energy        =      -1.3309081382774495 [Eh]
	 Total Energy              =    -343.1244703887718401 [Eh]

	 ================> DF-SCS-MP2 Energies <==================
	-----------------------------------------------------------
	 SCS Same-Spin Scale       =       0.3333333333333333 [-]
	 SCS Opposite-Spin Scale   =       1.2000000000000000 [-]
	 SCS Same-Spin Energy      =      -0.1081839119129903 [Eh]
	 SCS Opposite-Spin Energy  =      -1.2076276830461741 [Eh]
	 SCS Correlation Energy    =      -1.3158115949591644 [Eh]
	 SCS Total Energy          =    -343.1093738454535469 [Eh]
	-----------------------------------------------------------

  Dipole Moment: [D]
     X:     1.0755      Y:    -2.0096      Z:     0.3035     Total:     2.2994

*** Psi4 exiting successfully. Buy a developer a beer!
