                               Psi4 1.3.2 release

  ==> Input File <==

--------------------------------------------------------------------------
#psi4
#
memory 32 gb

molecule  {
0 1
  O       -1.4226323     1.0678093     0.1712542
  O        1.4425540    -1.0727980    -0.0074420
  O        1.2409190     1.1848430    -0.0695910
  C       -0.7273960    -0.1479950     0.3622400
  C       -1.3608000    -1.1844980    -0.5490290
  C        0.7386720     0.0808740     0.0596700
  H       -0.7480640    -0.5368551     1.3948852
  H       -1.2645370    -0.8668950    -1.5888250
  H       -2.4222350    -1.2600450    -0.3075440
  H       -0.8906180    -2.1601930    -0.4204410
  H       -0.7794970     1.7838810     0.3439450
  H        2.3720270    -0.8088230    -0.1742930
units angstrom
no_reorient  #important for SAPT in psi4, default
symmetry c1  #important for SAPT in psi4, default
}

set PROPERTIES_ORIGIN ["COM"]
properties('MP2/aug-cc-pvtz', properties = ['dipole'])
--------------------------------------------------------------------------

    Molecular point group: c1
  Charge       = 0
  Multiplicity = 1
  Basis Set: AUG-CC-PVTZ
    Blend: AUG-CC-PVTZ
  Basis Set: (AUG-CC-PVTZ AUX)
    Blend: AUG-CC-PVTZ-JKFIT

    Orbital Energies [Eh]
    ---------------------

    Doubly Occupied:

       1A    -20.633337     2A    -20.569485     3A    -20.568439
       4A    -11.402224     5A    -11.311929     6A    -11.230802
       7A     -1.479568     8A     -1.386888     9A     -1.362093
      10A     -1.053717    11A     -0.918446    12A     -0.810687
      13A     -0.737903    14A     -0.721435    15A     -0.694461
      16A     -0.639207    17A     -0.620600    18A     -0.584761
      19A     -0.559992    20A     -0.542237    21A     -0.532880
      22A     -0.499090    23A     -0.475669    24A     -0.454759

  @DF-RHF Final Energy:  -341.83589531310577

   => Energetics <=

    Nuclear Repulsion Energy =            249.9161822199506560
    One-Electron Energy =                -963.9229340037068141
    Two-Electron Energy =                 372.1708564706503921
    Total Energy =                       -341.8358953131057660
  Basis Set: (AUG-CC-PVTZ AUX)
    Blend: AUG-CC-PVTZ-RI
    Molecular point group: c1

    Geometry (in Angstrom), charge = 0, multiplicity = 1:

       Center              X                  Y                   Z               Mass
    ------------   -----------------  -----------------  -----------------  -----------------
         O           -1.424971666120     1.068107054145     0.179879243855    15.994914619570
         O            1.440214633880    -1.072500245855     0.001183043855    15.994914619570
         O            1.238579633880     1.185140754145    -0.060965956145    15.994914619570
         C           -0.729735366120    -0.147697245855     0.370865043855    12.000000000000
         C           -1.363139366120    -1.184200245855    -0.540403956145    12.000000000000
         C            0.736332633880     0.081171754145     0.068295043855    12.000000000000
         H           -0.750403366120    -0.536557345855     1.403510243855     1.007825032230
         H           -1.266876366120    -0.866597245855    -1.580199956145     1.007825032230
         H           -2.424574366120    -1.259747245855    -0.298918956145     1.007825032230
         H           -0.892957366120    -2.159895245855    -0.411815956145     1.007825032230
         H           -0.781836366120     1.784178754145     0.352570043855     1.007825032230
         H            2.369687633880    -0.808525245855    -0.165667956145     1.007825032230

  Basis Set: AUG-CC-PVTZ
    Blend: AUG-CC-PVTZ
  Basis Set: (AUG-CC-PVTZ AUX)
    Blend: AUG-CC-PVTZ-JKFIT
	 Reference Energy          =    -341.8358953131057660 [Eh]
	 Singles Energy            =      -0.0000000000000000 [Eh]
	 Same-Spin Energy          =      -0.3272394518107481 [Eh]
	 Opposite-Spin Energy      =      -1.0118463252333401 [Eh]
	 Correlation Energy        =      -1.3390857770440880 [Eh]
	 Total Energy              =    -343.1749810901498563 [Eh]

	 ================> DF-SCS-MP2 Energies <==================
	-----------------------------------------------------------
	 SCS Same-Spin Scale       =       0.3333333333333333 [-]
	 SCS Opposite-Spin Scale   =       1.2000000000000000 [-]
	 SCS Same-Spin Energy      =      -0.1090798172702494 [Eh]
	 SCS Opposite-Spin Energy  =      -1.2142155902800080 [Eh]
	 SCS Correlation Energy    =      -1.3232954075502574 [Eh]
	 SCS Total Energy          =    -343.1591907206559995 [Eh]
	-----------------------------------------------------------

  Dipole Moment: [D]
     X:     1.1834      Y:    -1.8267      Z:     0.4093     Total:     2.2147

*** Psi4 exiting successfully. Buy a developer a beer!
