                               Psi4 1.3.2 release

  ==> Input File <==

--------------------------------------------------------------------------
#psi4
#
memory 32 gb

molecule  {
0 1
  O       -1.4344650     1.0675660     0.2191520
  O        1.4425540    -1.0727980    -0.0074420
  O        1.2409190     1.1848430    -0.0695910
  C       -0.7378393    -0.1542438     0.3602285
  C       -1.3608000    -1.1844980    -0.5490290
  C        0.7386720     0.0808740     0.0596700
  H       -0.7692630    -0.5063940     1.4052130
  H       -1.2645370    -0.8668950    -1.5888250
  H       -2.4222350    -1.2600450    -0.3075440
  H       -0.8906180    -2.1601930    -0.4204410
  H       -0.7856526     1.7896720     0.3427195
  H        2.3720270    -0.8088230    -0.1742930
units angstrom
no_reorient  #important for SAPT in psi4, default
symmetry c1  #important for SAPT in psi4, default
}

set PROPERTIES_ORIGIN ["COM"]
properties('MP2/aug-cc-pvtz', properties = ['dipole'])
--------------------------------------------------------------------------

    Molecular point group: c1
  Charge       = 0
  Multiplicity = 1
  Basis Set: AUG-CC-PVTZ
    Blend: AUG-CC-PVTZ
  Basis Set: (AUG-CC-PVTZ AUX)
    Blend: AUG-CC-PVTZ-JKFIT

    Orbital Energies [Eh]
    ---------------------

    Doubly Occupied:

       1A    -20.633689     2A    -20.570205     3A    -20.566476
       4A    -11.403222     5A    -11.311976     6A    -11.231050
       7A     -1.479595     8A     -1.385881     9A     -1.361733
      10A     -1.054239    11A     -0.917178    12A     -0.812129
      13A     -0.737945    14A     -0.721305    15A     -0.691303
      16A     -0.639319    17A     -0.621328    18A     -0.585887
      19A     -0.562433    20A     -0.542183    21A     -0.533039
      22A     -0.499895    23A     -0.474470    24A     -0.453524

  @DF-RHF Final Energy:  -341.83686463747006

   => Energetics <=

    Nuclear Repulsion Energy =            249.5555272951633583
    One-Electron Energy =                -963.2047779442435740
    Two-Electron Energy =                 371.8123860116101014
    Total Energy =                       -341.8368646374700575
  Basis Set: (AUG-CC-PVTZ AUX)
    Blend: AUG-CC-PVTZ-RI
    Molecular point group: c1

    Geometry (in Angstrom), charge = 0, multiplicity = 1:

       Center              X                  Y                   Z               Mass
    ------------   -----------------  -----------------  -----------------  -----------------
         O           -1.433004023580     1.068334048404     0.219433795900    15.994914619570
         O            1.444014976420    -1.072029951596    -0.007160204100    15.994914619570
         O            1.242379976420     1.185611048404    -0.069309204100    15.994914619570
         C           -0.736378323580    -0.153475751596     0.360510295900    12.000000000000
         C           -1.359339023580    -1.183729951596    -0.548747204100    12.000000000000
         C            0.740132976420     0.081642048404     0.059951795900    12.000000000000
         H           -0.767802023580    -0.505625951596     1.405494795900     1.007825032230
         H           -1.263076023580    -0.866126951596    -1.588543204100     1.007825032230
         H           -2.420774023580    -1.259276951596    -0.307262204100     1.007825032230
         H           -0.889157023580    -2.159424951596    -0.420159204100     1.007825032230
         H           -0.784191623580     1.790440048404     0.343001295900     1.007825032230
         H            2.373487976420    -0.808054951596    -0.174011204100     1.007825032230

  Basis Set: AUG-CC-PVTZ
    Blend: AUG-CC-PVTZ
  Basis Set: (AUG-CC-PVTZ AUX)
    Blend: AUG-CC-PVTZ-JKFIT
	 Reference Energy          =    -341.8368646374700575 [Eh]
	 Singles Energy            =      -0.0000000000000000 [Eh]
	 Same-Spin Energy          =      -0.3271027104448590 [Eh]
	 Opposite-Spin Energy      =      -1.0116593948861170 [Eh]
	 Correlation Energy        =      -1.3387621053309759 [Eh]
	 Total Energy              =    -343.1756267428010574 [Eh]

	 ================> DF-SCS-MP2 Energies <==================
	-----------------------------------------------------------
	 SCS Same-Spin Scale       =       0.3333333333333333 [-]
	 SCS Opposite-Spin Scale   =       1.2000000000000000 [-]
	 SCS Same-Spin Energy      =      -0.1090342368149530 [Eh]
	 SCS Opposite-Spin Energy  =      -1.2139912738633403 [Eh]
	 SCS Correlation Energy    =      -1.3230255106782933 [Eh]
	 SCS Total Energy          =    -343.1598901481483495 [Eh]
	-----------------------------------------------------------

  Dipole Moment: [D]
     X:     1.2128      Y:    -1.8402      Z:     0.3012     Total:     2.2244

*** Psi4 exiting successfully. Buy a developer a beer!
