                               Psi4 1.4a3.dev225

  ==> Input File <==

--------------------------------------------------------------------------
#psi4
#
memory 32 gb

molecule  {
0 1
  O       -1.3959680    -1.1167090    -0.2833280
  O        1.5522570     0.9331460    -0.3210200
  O        1.1768320    -1.1502310     0.4959580
  C       -0.6816250     0.0987340    -0.4130150
  C       -1.2926720     1.1882940     0.4648960
  C        0.7384610    -0.1686481    -0.0259879
  H       -0.7109810     0.4129130    -1.4639800
  H       -1.2242180     0.8953450     1.5161010
  H       -2.3476110     1.2964270     0.2055410
  H       -0.7844450     2.1448300     0.3211210
  H       -0.8100540    -1.7212800     0.2125920
  H        2.4531110     0.6959320    -0.0164550
units angstrom
no_reorient  #important for SAPT in psi4, default
symmetry c1  #important for SAPT in psi4, default
}

set PROPERTIES_ORIGIN ["COM"]
properties('MP2/aug-cc-pvtz', properties = ['dipole'])
--------------------------------------------------------------------------

    Molecular point group: c1
  Charge       = 0
  Multiplicity = 1
  Basis Set: AUG-CC-PVTZ
    Blend: AUG-CC-PVTZ
  Basis Set: (AUG-CC-PVTZ AUX)
    Blend: AUG-CC-PVTZ-JKFIT

    Orbital Energies [Eh]
    ---------------------

    Doubly Occupied:

       1A    -20.621564     2A    -20.580683     3A    -20.566574
       4A    -11.404792     5A    -11.312479     6A    -11.236144
       7A     -1.475777     8A     -1.384802     9A     -1.367225
      10A     -1.055958    11A     -0.920153    12A     -0.805180
      13A     -0.743410    14A     -0.724808    15A     -0.670023
      16A     -0.640275    17A     -0.624137    18A     -0.591619
      19A     -0.568899    20A     -0.544984    21A     -0.536407
      22A     -0.508407    23A     -0.472962    24A     -0.459118

  @DF-RHF Final Energy:  -341.83479736472748

   => Energetics <=

    Nuclear Repulsion Energy =            249.7356976378803779
    One-Electron Energy =                -963.5082357216308537
    Two-Electron Energy =                 371.9377407190230542
    Total Energy =                       -341.8347973647274785
  Basis Set: (AUG-CC-PVTZ AUX)
    Blend: AUG-CC-PVTZ-RI
    Molecular point group: c1

    Geometry (in Angstrom), charge = 0, multiplicity = 1:

       Center              X                  Y                   Z               Mass
    ------------   -----------------  -----------------  -----------------  -----------------
         O           -1.429757568717    -1.070502453882    -0.276197313097    15.994914619570
         O            1.518467431283     0.979352546118    -0.313889313097    15.994914619570
         O            1.143042431283    -1.104024453882     0.503088686903    15.994914619570
         C           -0.715414568717     0.144940546118    -0.405884313097    12.000000000000
         C           -1.326461568717     1.234500546118     0.472026686903    12.000000000000
         C            0.704671431283    -0.122441553882    -0.018857213097    12.000000000000
         H           -0.744770568717     0.459119546118    -1.456849313097     1.007825032230
         H           -1.258007568717     0.941551546118     1.523231686903     1.007825032230
         H           -2.381400568717     1.342633546118     0.212671686903     1.007825032230
         H           -0.818234568717     2.191036546118     0.328251686903     1.007825032230
         H           -0.843843568717    -1.675073453882     0.219722686903     1.007825032230
         H            2.419321431283     0.742138546118    -0.009324313097     1.007825032230

  Basis Set: AUG-CC-PVTZ
    Blend: AUG-CC-PVTZ
  Basis Set: (AUG-CC-PVTZ AUX)
    Blend: AUG-CC-PVTZ-JKFIT
	 Reference Energy          =    -341.8347973647274785 [Eh]
	 Singles Energy            =      -0.0000000000000000 [Eh]
	 Same-Spin Energy          =      -0.3270423715134178 [Eh]
	 Opposite-Spin Energy      =      -1.0118432830521895 [Eh]
	 Correlation Energy        =      -1.3388856545656074 [Eh]
	 Total Energy              =    -343.1736830192930938 [Eh]

	 ================> DF-SCS-MP2 Energies <==================
	-----------------------------------------------------------
	 SCS Same-Spin Scale       =       0.3333333333333333 [-]
	 SCS Opposite-Spin Scale   =       1.2000000000000000 [-]
	 SCS Same-Spin Energy      =      -0.1090141238378059 [Eh]
	 SCS Opposite-Spin Energy  =      -1.2142119396626274 [Eh]
	 SCS Correlation Energy    =      -1.3232260635004334 [Eh]
	 SCS Total Energy          =    -343.1580234282279207 [Eh]
	-----------------------------------------------------------

  Dipole Moment: [D]
     X:     1.0694      Y:     1.6514      Z:     0.1663     Total:     1.9744

*** Psi4 exiting successfully. Buy a developer a beer!
