                               Psi4 1.3.2 release

  ==> Input File <==

--------------------------------------------------------------------------
#psi4
#
memory 32 gb

molecule  {
0 1
  O       -1.4344650     1.0675660     0.2191520
  O        1.4425540    -1.0727980    -0.0074420
  O        1.2409190     1.1848430    -0.0695910
  C       -0.7170066    -0.1416536     0.3642407
  C       -1.3608000    -1.1844980    -0.5490290
  C        0.7386720     0.0808740     0.0596700
  H       -0.7692630    -0.5063940     1.4052130
  H       -1.2645370    -0.8668950    -1.5888250
  H       -2.4222350    -1.2600450    -0.3075440
  H       -0.8906180    -2.1601930    -0.4204410
  H       -0.7733913     1.7780354     0.3451610
  H        2.3720270    -0.8088230    -0.1742930
units angstrom
no_reorient  #important for SAPT in psi4, default
symmetry c1  #important for SAPT in psi4, default
}

set PROPERTIES_ORIGIN ["COM"]
properties('MP2/aug-cc-pvtz', properties = ['dipole'])
--------------------------------------------------------------------------

    Molecular point group: c1
  Charge       = 0
  Multiplicity = 1
  Basis Set: AUG-CC-PVTZ
    Blend: AUG-CC-PVTZ
  Basis Set: (AUG-CC-PVTZ AUX)
    Blend: AUG-CC-PVTZ-JKFIT

    Orbital Energies [Eh]
    ---------------------

    Doubly Occupied:

       1A    -20.634419     2A    -20.570718     3A    -20.567590
       4A    -11.403723     5A    -11.311052     6A    -11.231924
       7A     -1.480841     8A     -1.387429     9A     -1.362616
      10A     -1.052573    11A     -0.920025    12A     -0.811749
      13A     -0.739362    14A     -0.722982    15A     -0.690951
      16A     -0.639153    17A     -0.621757    18A     -0.584527
      19A     -0.560488    20A     -0.542567    21A     -0.535018
      22A     -0.500452    23A     -0.474240    24A     -0.455398

  @DF-RHF Final Energy:  -341.83656412637475

   => Energetics <=

    Nuclear Repulsion Energy =            249.7502326143815026
    One-Electron Energy =                -963.5704835080293833
    Two-Electron Energy =                 371.9836867672731273
    Total Energy =                       -341.8365641263747534
  Basis Set: (AUG-CC-PVTZ AUX)
    Blend: AUG-CC-PVTZ-RI
    Molecular point group: c1

    Geometry (in Angstrom), charge = 0, multiplicity = 1:

       Center              X                  Y                   Z               Mass
    ------------   -----------------  -----------------  -----------------  -----------------
         O           -1.435917993464     1.066786207450     0.218871693795    15.994914619570
         O            1.441101006536    -1.073577792550    -0.007722306205    15.994914619570
         O            1.239466006536     1.184063207450    -0.069871306205    15.994914619570
         C           -0.718459593464    -0.142433392550     0.363960393795    12.000000000000
         C           -1.362252993464    -1.185277792550    -0.549309306205    12.000000000000
         C            0.737219006536     0.080094207450     0.059389693795    12.000000000000
         H           -0.770715993464    -0.507173792550     1.404932693795     1.007825032230
         H           -1.265989993464    -0.867674792550    -1.589105306205     1.007825032230
         H           -2.423687993464    -1.260824792550    -0.307824306205     1.007825032230
         H           -0.892070993464    -2.160972792550    -0.420721306205     1.007825032230
         H           -0.774844293464     1.777255607450     0.344880693795     1.007825032230
         H            2.370574006536    -0.809602792550    -0.174573306205     1.007825032230

  Basis Set: AUG-CC-PVTZ
    Blend: AUG-CC-PVTZ
  Basis Set: (AUG-CC-PVTZ AUX)
    Blend: AUG-CC-PVTZ-JKFIT
	 Reference Energy          =    -341.8365641263747534 [Eh]
	 Singles Energy            =      -0.0000000000000000 [Eh]
	 Same-Spin Energy          =      -0.3271902257007003 [Eh]
	 Opposite-Spin Energy      =      -1.0118757408202836 [Eh]
	 Correlation Energy        =      -1.3390659665209839 [Eh]
	 Total Energy              =    -343.1756300928957444 [Eh]

	 ================> DF-SCS-MP2 Energies <==================
	-----------------------------------------------------------
	 SCS Same-Spin Scale       =       0.3333333333333333 [-]
	 SCS Opposite-Spin Scale   =       1.2000000000000000 [-]
	 SCS Same-Spin Energy      =      -0.1090634085669001 [Eh]
	 SCS Opposite-Spin Energy  =      -1.2142508889843404 [Eh]
	 SCS Correlation Energy    =      -1.3233142975512404 [Eh]
	 SCS Total Energy          =    -343.1598784239259885 [Eh]
	-----------------------------------------------------------

  Dipole Moment: [D]
     X:     1.2337      Y:    -1.8424      Z:     0.3156     Total:     2.2396

*** Psi4 exiting successfully. Buy a developer a beer!
