                               Psi4 1.3.2 release

  ==> Input File <==

--------------------------------------------------------------------------
#psi4
#
memory 32 gb

molecule  {
0 1
  O       -1.4505946     1.0644248     0.2913072
  O        1.4425540    -1.0727980    -0.0074420
  O        1.2409190     1.1848430    -0.0695910
  C       -0.7273960    -0.1479950     0.3622400
  C       -1.3608000    -1.1844980    -0.5490290
  C        0.7386720     0.0808740     0.0596700
  H       -0.8009578    -0.4598954     1.4183187
  H       -1.2645370    -0.8668950    -1.5888250
  H       -2.4222350    -1.2600450    -0.3075440
  H       -0.8906180    -2.1601930    -0.4204410
  H       -0.7794970     1.7838810     0.3439450
  H        2.3720270    -0.8088230    -0.1742930
units angstrom
no_reorient  #important for SAPT in psi4, default
symmetry c1  #important for SAPT in psi4, default
}

set PROPERTIES_ORIGIN ["COM"]
properties('MP2/aug-cc-pvtz', properties = ['dipole'])
--------------------------------------------------------------------------

    Molecular point group: c1
  Charge       = 0
  Multiplicity = 1
  Basis Set: AUG-CC-PVTZ
    Blend: AUG-CC-PVTZ
  Basis Set: (AUG-CC-PVTZ AUX)
    Blend: AUG-CC-PVTZ-JKFIT

    Orbital Energies [Eh]
    ---------------------

    Doubly Occupied:

       1A    -20.635045     2A    -20.571832     3A    -20.565684
       4A    -11.405245     5A    -11.310606     6A    -11.232369
       7A     -1.481111     8A     -1.386198     9A     -1.361801
      10A     -1.052422    11A     -0.918824    12A     -0.813390
      13A     -0.739727    14A     -0.723157    15A     -0.685511
      16A     -0.638696    17A     -0.622815    18A     -0.585968
      19A     -0.563436    20A     -0.542147    21A     -0.535554
      22A     -0.501636    23A     -0.472746    24A     -0.453049

  @DF-RHF Final Energy:  -341.83551662942756

   => Energetics <=

    Nuclear Repulsion Energy =            249.2634049831259802
    One-Electron Energy =                -962.5999058292969721
    Two-Electron Energy =                 371.5009842167434613
    Total Energy =                       -341.8355166294275591
  Basis Set: (AUG-CC-PVTZ AUX)
    Blend: AUG-CC-PVTZ-RI
    Molecular point group: c1

    Geometry (in Angstrom), charge = 0, multiplicity = 1:

       Center              X                  Y                   Z               Mass
    ------------   -----------------  -----------------  -----------------  -----------------
         O           -1.447374120756     1.064462344406     0.278341465483    15.994914619570
         O            1.445774479244    -1.072760455594    -0.020407734517    15.994914619570
         O            1.244139479244     1.184880544406    -0.082556734517    15.994914619570
         C           -0.724175520756    -0.147957455594     0.349274265483    12.000000000000
         C           -1.357579520756    -1.184460455594    -0.561994734517    12.000000000000
         C            0.741892479244     0.080911544406     0.046704265483    12.000000000000
         H           -0.797737320756    -0.459857855594     1.405352965483     1.007825032230
         H           -1.261316520756    -0.866857455594    -1.601790734517     1.007825032230
         H           -2.419014520756    -1.260007455594    -0.320509734517     1.007825032230
         H           -0.887397520756    -2.160155455594    -0.433406734517     1.007825032230
         H           -0.776276520756     1.783918544406     0.330979265483     1.007825032230
         H            2.375247479244    -0.808785455594    -0.187258734517     1.007825032230

  Basis Set: AUG-CC-PVTZ
    Blend: AUG-CC-PVTZ
  Basis Set: (AUG-CC-PVTZ AUX)
    Blend: AUG-CC-PVTZ-JKFIT
	 Reference Energy          =    -341.8355166294275591 [Eh]
	 Singles Energy            =      -0.0000000000000000 [Eh]
	 Same-Spin Energy          =      -0.3271810967538457 [Eh]
	 Opposite-Spin Energy      =      -1.0119872053113137 [Eh]
	 Correlation Energy        =      -1.3391683020651595 [Eh]
	 Total Energy              =    -343.1746849314927204 [Eh]

	 ================> DF-SCS-MP2 Energies <==================
	-----------------------------------------------------------
	 SCS Same-Spin Scale       =       0.3333333333333333 [-]
	 SCS Opposite-Spin Scale   =       1.2000000000000000 [-]
	 SCS Same-Spin Energy      =      -0.1090603655846152 [Eh]
	 SCS Opposite-Spin Energy  =      -1.2143846463735763 [Eh]
	 SCS Correlation Energy    =      -1.3234450119581915 [Eh]
	 SCS Total Energy          =    -343.1589616413857584 [Eh]
	-----------------------------------------------------------

  Dipole Moment: [D]
     X:     1.2726      Y:    -1.8512      Z:     0.1546     Total:     2.2517

*** Psi4 exiting successfully. Buy a developer a beer!
