                               Psi4 1.3.2 release

  ==> Input File <==

--------------------------------------------------------------------------
#psi4
#
memory 32 gb

molecule  {
0 1
  O       -1.4344650     1.0675660     0.2191520
  O        1.4425540    -1.0727980    -0.0074420
  O        1.2409190     1.1848430    -0.0695910
  C       -0.7273960    -0.1479950     0.3622400
  C       -1.3608000    -1.1844980    -0.5490290
  C        0.7585693     0.0929963     0.0558150
  H       -0.7692630    -0.5063940     1.4052130
  H       -1.2645370    -0.8668950    -1.5888250
  H       -2.4222350    -1.2600450    -0.3075440
  H       -0.8906180    -2.1601930    -0.4204410
  H       -0.7794970     1.7838810     0.3439450
  H        2.3672201    -0.7923989    -0.1742087
units angstrom
no_reorient  #important for SAPT in psi4, default
symmetry c1  #important for SAPT in psi4, default
}

set PROPERTIES_ORIGIN ["COM"]
properties('MP2/aug-cc-pvtz', properties = ['dipole'])
--------------------------------------------------------------------------

    Molecular point group: c1
  Charge       = 0
  Multiplicity = 1
  Basis Set: AUG-CC-PVTZ
    Blend: AUG-CC-PVTZ
  Basis Set: (AUG-CC-PVTZ AUX)
    Blend: AUG-CC-PVTZ-JKFIT

    Orbital Energies [Eh]
    ---------------------

    Doubly Occupied:

       1A    -20.634027     2A    -20.573363     3A    -20.565887
       4A    -11.401247     5A    -11.310222     6A    -11.229857
       7A     -1.485473     8A     -1.392499     9A     -1.365693
      10A     -1.048353    11A     -0.913649    12A     -0.808947
      13A     -0.739668    14A     -0.723750    15A     -0.690340
      16A     -0.642608    17A     -0.625535    18A     -0.584081
      19A     -0.560597    20A     -0.540910    21A     -0.535868
      22A     -0.506633    23A     -0.473326    24A     -0.451323

  @DF-RHF Final Energy:  -341.83759566035866

   => Energetics <=

    Nuclear Repulsion Energy =            249.6920094618103292
    One-Electron Energy =                -963.4514978094940716
    Two-Electron Energy =                 371.9218926873250552
    Total Energy =                       -341.8375956603586587
  Basis Set: (AUG-CC-PVTZ AUX)
    Blend: AUG-CC-PVTZ-RI
    Molecular point group: c1

    Geometry (in Angstrom), charge = 0, multiplicity = 1:

       Center              X                  Y                   Z               Mass
    ------------   -----------------  -----------------  -----------------  -----------------
         O           -1.437063110299     1.065766402568     0.219664847321    15.994914619570
         O            1.439955889701    -1.074597597432    -0.006929152679    15.994914619570
         O            1.238320889701     1.183043402568    -0.069078152679    15.994914619570
         C           -0.729994110299    -0.149794597432     0.362752847321    12.000000000000
         C           -1.363398110299    -1.186297597432    -0.548516152679    12.000000000000
         C            0.755971189701     0.091196702568     0.056327847321    12.000000000000
         H           -0.771861110299    -0.508193597432     1.405725847321     1.007825032230
         H           -1.267135110299    -0.868694597432    -1.588312152679     1.007825032230
         H           -2.424833110299    -1.261844597432    -0.307031152679     1.007825032230
         H           -0.893216110299    -2.161992597432    -0.419928152679     1.007825032230
         H           -0.782095110299     1.782081402568     0.344457847321     1.007825032230
         H            2.364621989701    -0.794198497432    -0.173695852679     1.007825032230

  Basis Set: AUG-CC-PVTZ
    Blend: AUG-CC-PVTZ
  Basis Set: (AUG-CC-PVTZ AUX)
    Blend: AUG-CC-PVTZ-JKFIT
	 Reference Energy          =    -341.8375956603586587 [Eh]
	 Singles Energy            =      -0.0000000000000000 [Eh]
	 Same-Spin Energy          =      -0.3267159502028433 [Eh]
	 Opposite-Spin Energy      =      -1.0109667338278998 [Eh]
	 Correlation Energy        =      -1.3376826840307432 [Eh]
	 Total Energy              =    -343.1752783443894259 [Eh]

	 ================> DF-SCS-MP2 Energies <==================
	-----------------------------------------------------------
	 SCS Same-Spin Scale       =       0.3333333333333333 [-]
	 SCS Opposite-Spin Scale   =       1.2000000000000000 [-]
	 SCS Same-Spin Energy      =      -0.1089053167342811 [Eh]
	 SCS Opposite-Spin Energy  =      -1.2131600805934797 [Eh]
	 SCS Correlation Energy    =      -1.3220653973277607 [Eh]
	 SCS Total Energy          =    -343.1596610576864350 [Eh]
	-----------------------------------------------------------

  Dipole Moment: [D]
     X:     1.3097      Y:    -1.7340      Z:     0.2937     Total:     2.1928

*** Psi4 exiting successfully. Buy a developer a beer!
