                               Psi4 1.3.2 release

  ==> Input File <==

--------------------------------------------------------------------------
#psi4
#
memory 32 gb

molecule  {
0 1
  O       -1.3706282     1.1003107     0.2010121
  O        1.4425540    -1.0727980    -0.0074420
  O        1.2409190     1.1848430    -0.0695910
  C       -0.7273960    -0.1479950     0.3622400
  C       -1.3608000    -1.1844980    -0.5490290
  C        0.7217964     0.1571169     0.0459600
  H       -0.7692630    -0.5063940     1.4052130
  H       -1.2645370    -0.8668950    -1.5888250
  H       -2.4222350    -1.2600450    -0.3075440
  H       -0.8906180    -2.1601930    -0.4204410
  H       -0.7794970     1.7838810     0.3439450
  H        2.3720270    -0.8088230    -0.1742930
units angstrom
no_reorient  #important for SAPT in psi4, default
symmetry c1  #important for SAPT in psi4, default
}

set PROPERTIES_ORIGIN ["COM"]
properties('MP2/aug-cc-pvtz', properties = ['dipole'])
--------------------------------------------------------------------------

    Molecular point group: c1
  Charge       = 0
  Multiplicity = 1
  Basis Set: AUG-CC-PVTZ
    Blend: AUG-CC-PVTZ
  Basis Set: (AUG-CC-PVTZ AUX)
    Blend: AUG-CC-PVTZ-JKFIT

    Orbital Energies [Eh]
    ---------------------

    Doubly Occupied:

       1A    -20.609976     2A    -20.582972     3A    -20.560746
       4A    -11.396763     5A    -11.314215     6A    -11.232898
       7A     -1.488183     8A     -1.388398     9A     -1.374742
      10A     -1.055391    11A     -0.914148    12A     -0.802115
      13A     -0.742115    14A     -0.723111    15A     -0.698460
      16A     -0.638064    17A     -0.623459    18A     -0.584343
      19A     -0.565064    20A     -0.545459    21A     -0.537419
      22A     -0.511491    23A     -0.476806    24A     -0.454567

  @DF-RHF Final Energy:  -341.82994006125733

   => Energetics <=

    Nuclear Repulsion Energy =            250.6741741573307820
    One-Electron Energy =                -965.3664210733953723
    Two-Electron Energy =                 372.8623068548072865
    Total Energy =                       -341.8299400612573322
  Basis Set: (AUG-CC-PVTZ AUX)
    Blend: AUG-CC-PVTZ-RI
    Molecular point group: c1

    Geometry (in Angstrom), charge = 0, multiplicity = 1:

       Center              X                  Y                   Z               Mass
    ------------   -----------------  -----------------  -----------------  -----------------
         O           -1.379719955519     1.084331170989     0.206062139647    15.994914619570
         O            1.433462244481    -1.088777529011    -0.002391960353    15.994914619570
         O            1.231827244481     1.168863470989    -0.064540960353    15.994914619570
         C           -0.736487755519    -0.163974529011     0.367290039647    12.000000000000
         C           -1.369891755519    -1.200477529011    -0.543978960353    12.000000000000
         C            0.712704644481     0.141137370989     0.051010039647    12.000000000000
         H           -0.778354755519    -0.522373529011     1.410263039647     1.007825032230
         H           -1.273628755519    -0.882874529011    -1.583774960353     1.007825032230
         H           -2.431326755519    -1.276024529011    -0.302493960353     1.007825032230
         H           -0.899709755519    -2.176172529011    -0.415390960353     1.007825032230
         H           -0.788588755519     1.767901470989     0.348995039647     1.007825032230
         H            2.362935244481    -0.824802529011    -0.169242960353     1.007825032230

  Basis Set: AUG-CC-PVTZ
    Blend: AUG-CC-PVTZ
  Basis Set: (AUG-CC-PVTZ AUX)
    Blend: AUG-CC-PVTZ-JKFIT
	 Reference Energy          =    -341.8299400612573322 [Eh]
	 Singles Energy            =      -0.0000000000000000 [Eh]
	 Same-Spin Energy          =      -0.3254217409689291 [Eh]
	 Opposite-Spin Energy      =      -1.0086398316602270 [Eh]
	 Correlation Energy        =      -1.3340615726291560 [Eh]
	 Total Energy              =    -343.1640016338864712 [Eh]

	 ================> DF-SCS-MP2 Energies <==================
	-----------------------------------------------------------
	 SCS Same-Spin Scale       =       0.3333333333333333 [-]
	 SCS Opposite-Spin Scale   =       1.2000000000000000 [-]
	 SCS Same-Spin Energy      =      -0.1084739136563097 [Eh]
	 SCS Opposite-Spin Energy  =      -1.2103677979922722 [Eh]
	 SCS Correlation Energy    =      -1.3188417116485820 [Eh]
	 SCS Total Energy          =    -343.1487817729059202 [Eh]
	-----------------------------------------------------------

  Dipole Moment: [D]
     X:     0.9055      Y:    -1.2915      Z:     0.3409     Total:     1.6137

*** Psi4 exiting successfully. Buy a developer a beer!
