                               Psi4 1.3.2 release

  ==> Input File <==

--------------------------------------------------------------------------
#psi4
#
memory 32 gb

molecule  {
0 1
  O       -1.4239555     1.0732574     0.2161001
  O        1.4425540    -1.0727980    -0.0074420
  O        1.2409190     1.1848430    -0.0695910
  C       -0.7273960    -0.1479950     0.3622400
  C       -1.3608000    -1.1844980    -0.5490290
  C        0.7361373     0.0936304     0.0573264
  H       -0.7692630    -0.5063940     1.4052130
  H       -1.2645370    -0.8668950    -1.5888250
  H       -2.4222350    -1.2600450    -0.3075440
  H       -0.8906180    -2.1601930    -0.4204410
  H       -0.7794970     1.7838810     0.3439450
  H        2.3720270    -0.8088230    -0.1742930
units angstrom
no_reorient  #important for SAPT in psi4, default
symmetry c1  #important for SAPT in psi4, default
}

set PROPERTIES_ORIGIN ["COM"]
properties('MP2/aug-cc-pvtz', properties = ['dipole'])
--------------------------------------------------------------------------

    Molecular point group: c1
  Charge       = 0
  Multiplicity = 1
  Basis Set: AUG-CC-PVTZ
    Blend: AUG-CC-PVTZ
  Basis Set: (AUG-CC-PVTZ AUX)
    Blend: AUG-CC-PVTZ-JKFIT

    Orbital Energies [Eh]
    ---------------------

    Doubly Occupied:

       1A    -20.630225     2A    -20.572622     3A    -20.565984
       4A    -11.402375     5A    -11.311789     6A    -11.231672
       7A     -1.478207     8A     -1.388338     9A     -1.365672
      10A     -1.053520    11A     -0.917595    12A     -0.809580
      13A     -0.738908    14A     -0.722148    15A     -0.692024
      16A     -0.638834    17A     -0.621761    18A     -0.584906
      19A     -0.562071    20A     -0.542497    21A     -0.535386
      22A     -0.502906    23A     -0.475058    24A     -0.454899

  @DF-RHF Final Energy:  -341.83782403976812

   => Energetics <=

    Nuclear Repulsion Energy =            249.8049987024133998
    One-Electron Energy =                -963.6876914659567319
    Two-Electron Energy =                 372.0448687237752097
    Total Energy =                       -341.8378240397681225
  Basis Set: (AUG-CC-PVTZ AUX)
    Blend: AUG-CC-PVTZ-RI
    Molecular point group: c1

    Geometry (in Angstrom), charge = 0, multiplicity = 1:

       Center              X                  Y                   Z               Mass
    ------------   -----------------  -----------------  -----------------  -----------------
         O           -1.425484643068     1.070546012128     0.216954638543    15.994914619570
         O            1.441024856932    -1.075509387872    -0.006587461457    15.994914619570
         O            1.239389856932     1.182131612128    -0.068736461457    15.994914619570
         C           -0.728925143068    -0.150706387872     0.363094538543    12.000000000000
         C           -1.362329143068    -1.187209387872    -0.548174461457    12.000000000000
         C            0.734608156932     0.090919012128     0.058180938543    12.000000000000
         H           -0.770792143068    -0.509105387872     1.406067538543     1.007825032230
         H           -1.266066143068    -0.869606387872    -1.587970461457     1.007825032230
         H           -2.423764143068    -1.262756387872    -0.306689461457     1.007825032230
         H           -0.892147143068    -2.162904387872    -0.419586461457     1.007825032230
         H           -0.781026143068     1.781169612128     0.344799538543     1.007825032230
         H            2.370497856932    -0.811534387872    -0.173438461457     1.007825032230

  Basis Set: AUG-CC-PVTZ
    Blend: AUG-CC-PVTZ
  Basis Set: (AUG-CC-PVTZ AUX)
    Blend: AUG-CC-PVTZ-JKFIT
	 Reference Energy          =    -341.8378240397681225 [Eh]
	 Singles Energy            =      -0.0000000000000000 [Eh]
	 Same-Spin Energy          =      -0.3268132307386217 [Eh]
	 Opposite-Spin Energy      =      -1.0111614164330323 [Eh]
	 Correlation Energy        =      -1.3379746471716540 [Eh]
	 Total Energy              =    -343.1757986869397996 [Eh]

	 ================> DF-SCS-MP2 Energies <==================
	-----------------------------------------------------------
	 SCS Same-Spin Scale       =       0.3333333333333333 [-]
	 SCS Opposite-Spin Scale   =       1.2000000000000000 [-]
	 SCS Same-Spin Energy      =      -0.1089377435795406 [Eh]
	 SCS Opposite-Spin Energy  =      -1.2133936997196386 [Eh]
	 SCS Correlation Energy    =      -1.3223314432991793 [Eh]
	 SCS Total Energy          =    -343.1601554830672853 [Eh]
	-----------------------------------------------------------

  Dipole Moment: [D]
     X:     1.1755      Y:    -1.7521      Z:     0.3136     Total:     2.1331

*** Psi4 exiting successfully. Buy a developer a beer!
