                               Psi4 1.4a3.dev225

  ==> Input File <==

--------------------------------------------------------------------------
#psi4
#
memory 32 gb

molecule  {
0 1
  O       -1.3959680    -1.1167090    -0.2833280
  O        1.5522570     0.9331460    -0.3210200
  O        1.1768320    -1.1502310     0.4959580
  C       -0.6816250     0.0987340    -0.4130150
  C       -1.2926720     1.1882940     0.4648960
  C        0.7742003    -0.1460395    -0.0278013
  H       -0.7109810     0.4129130    -1.4639800
  H       -1.2242180     0.8953450     1.5161010
  H       -2.3476110     1.2964270     0.2055410
  H       -0.7844450     2.1448300     0.3211210
  H       -0.8100540    -1.7212800     0.2125920
  H        2.4531110     0.6959320    -0.0164550
units angstrom
no_reorient  #important for SAPT in psi4, default
symmetry c1  #important for SAPT in psi4, default
}

set PROPERTIES_ORIGIN ["COM"]
properties('MP2/aug-cc-pvtz', properties = ['dipole'])
--------------------------------------------------------------------------

    Molecular point group: c1
  Charge       = 0
  Multiplicity = 1
  Basis Set: AUG-CC-PVTZ
    Blend: AUG-CC-PVTZ
  Basis Set: (AUG-CC-PVTZ AUX)
    Blend: AUG-CC-PVTZ-JKFIT

    Orbital Energies [Eh]
    ---------------------

    Doubly Occupied:

       1A    -20.632399     2A    -20.576019     3A    -20.564230
       4A    -11.403636     5A    -11.310680     6A    -11.233831
       7A     -1.482677     8A     -1.391532     9A     -1.364619
      10A     -1.050274    11A     -0.916342    12A     -0.810947
      13A     -0.743394    14A     -0.727656    15A     -0.669831
      16A     -0.643464    17A     -0.627846    18A     -0.590329
      19A     -0.568653    20A     -0.542822    21A     -0.534123
      22A     -0.508051    23A     -0.468212    24A     -0.456244

  @DF-RHF Final Energy:  -341.83793773385929

   => Energetics <=

    Nuclear Repulsion Energy =            249.6242297307923081
    One-Electron Energy =                -963.2887121643303772
    Two-Electron Energy =                 371.8265446996787773
    Total Energy =                       -341.8379377338592917
  Basis Set: (AUG-CC-PVTZ AUX)
    Blend: AUG-CC-PVTZ-RI
    Molecular point group: c1

    Geometry (in Angstrom), charge = 0, multiplicity = 1:

       Center              X                  Y                   Z               Mass
    ------------   -----------------  -----------------  -----------------  -----------------
         O           -1.434521131199    -1.073515872688    -0.275955611547    15.994914619570
         O            1.513703868801     0.976339127312    -0.313647611547    15.994914619570
         O            1.138278868801    -1.107037872688     0.503330388453    15.994914619570
         C           -0.720178131199     0.141927127312    -0.405642611547    12.000000000000
         C           -1.331225131199     1.231487127312     0.472268388453    12.000000000000
         C            0.735647168801    -0.102846372688    -0.020428911547    12.000000000000
         H           -0.749534131199     0.456106127312    -1.456607611547     1.007825032230
         H           -1.262771131199     0.938538127312     1.523473388453     1.007825032230
         H           -2.386164131199     1.339620127312     0.212913388453     1.007825032230
         H           -0.822998131199     2.188023127312     0.328493388453     1.007825032230
         H           -0.848607131199    -1.678086872688     0.219964388453     1.007825032230
         H            2.414557868801     0.739125127312    -0.009082611547     1.007825032230

  Basis Set: AUG-CC-PVTZ
    Blend: AUG-CC-PVTZ
  Basis Set: (AUG-CC-PVTZ AUX)
    Blend: AUG-CC-PVTZ-JKFIT
	 Reference Energy          =    -341.8379377338592917 [Eh]
	 Singles Energy            =      -0.0000000000000000 [Eh]
	 Same-Spin Energy          =      -0.3268183066431403 [Eh]
	 Opposite-Spin Energy      =      -1.0111338749749161 [Eh]
	 Correlation Energy        =      -1.3379521816180564 [Eh]
	 Total Energy              =    -343.1758899154773417 [Eh]

	 ================> DF-SCS-MP2 Energies <==================
	-----------------------------------------------------------
	 SCS Same-Spin Scale       =       0.3333333333333333 [-]
	 SCS Opposite-Spin Scale   =       1.2000000000000000 [-]
	 SCS Same-Spin Energy      =      -0.1089394355477134 [Eh]
	 SCS Opposite-Spin Energy  =      -1.2133606499698992 [Eh]
	 SCS Correlation Energy    =      -1.3223000855176126 [Eh]
	 SCS Total Energy          =    -343.1602378193769027 [Eh]
	-----------------------------------------------------------

  Dipole Moment: [D]
     X:     1.3193      Y:     1.8382      Z:     0.1160     Total:     2.2656

*** Psi4 exiting successfully. Buy a developer a beer!
