                               Psi4 1.4a3.dev225

  ==> Input File <==

--------------------------------------------------------------------------
#psi4
#
memory 32 gb

molecule  {
0 1
  O       -1.3959680    -1.1167090    -0.2833280
  O        1.5522570     0.9331460    -0.3210200
  O        1.1768320    -1.1502310     0.4959580
  C       -0.6816250     0.0987340    -0.4130150
  C       -1.2926720     1.1882940     0.4648960
  C        0.7675010    -0.1293310    -0.0365160
  H       -0.7109810     0.4129130    -1.4639800
  H       -1.2242180     0.8953450     1.5161010
  H       -2.3476110     1.2964270     0.2055410
  H       -0.7844450     2.1448300     0.3211210
  H       -0.8220468    -1.7089053     0.2024412
  H        2.4531110     0.6959320    -0.0164550
units angstrom
no_reorient  #important for SAPT in psi4, default
symmetry c1  #important for SAPT in psi4, default
}

set PROPERTIES_ORIGIN ["COM"]
properties('MP2/aug-cc-pvtz', properties = ['dipole'])
--------------------------------------------------------------------------

    Molecular point group: c1
  Charge       = 0
  Multiplicity = 1
  Basis Set: AUG-CC-PVTZ
    Blend: AUG-CC-PVTZ
  Basis Set: (AUG-CC-PVTZ AUX)
    Blend: AUG-CC-PVTZ-JKFIT

    Orbital Energies [Eh]
    ---------------------

    Doubly Occupied:

       1A    -20.635843     2A    -20.572127     3A    -20.563534
       4A    -11.405499     5A    -11.311615     6A    -11.234989
       7A     -1.481799     8A     -1.389155     9A     -1.363577
      10A     -1.054440    11A     -0.920029    12A     -0.816184
      13A     -0.745535    14A     -0.726143    15A     -0.671040
      16A     -0.644326    17A     -0.626026    18A     -0.591070
      19A     -0.570215    20A     -0.543900    21A     -0.533241
      22A     -0.501790    23A     -0.468979    24A     -0.457925

  @DF-RHF Final Energy:  -341.83797374575460

   => Energetics <=

    Nuclear Repulsion Energy =            249.6860630067235434
    One-Electron Energy =                -963.3901121412515067
    Two-Electron Energy =                 371.8660753887733676
    Total Energy =                       -341.8379737457545957
  Basis Set: (AUG-CC-PVTZ AUX)
    Blend: AUG-CC-PVTZ-RI
    Molecular point group: c1

    Geometry (in Angstrom), charge = 0, multiplicity = 1:

       Center              X                  Y                   Z               Mass
    ------------   -----------------  -----------------  -----------------  -----------------
         O           -1.433493956880    -1.075881412231    -0.274680431383    15.994914619570
         O            1.514731043120     0.973973587769    -0.312372431383    15.994914619570
         O            1.139306043120    -1.109403412231     0.504605568617    15.994914619570
         C           -0.719150956880     0.139561587769    -0.404367431383    12.000000000000
         C           -1.330197956880     1.229121587769     0.473543568617    12.000000000000
         C            0.729975043120    -0.088503412231    -0.027868431383    12.000000000000
         H           -0.748506956880     0.453740587769    -1.455332431383     1.007825032230
         H           -1.261743956880     0.936172587769     1.524748568617     1.007825032230
         H           -2.385136956880     1.337254587769     0.214188568617     1.007825032230
         H           -0.821970956880     2.185657587769     0.329768568617     1.007825032230
         H           -0.859572756880    -1.668077712231     0.211088768617     1.007825032230
         H            2.415585043120     0.736759587769    -0.007807431383     1.007825032230

  Basis Set: AUG-CC-PVTZ
    Blend: AUG-CC-PVTZ
  Basis Set: (AUG-CC-PVTZ AUX)
    Blend: AUG-CC-PVTZ-JKFIT
	 Reference Energy          =    -341.8379737457545957 [Eh]
	 Singles Energy            =      -0.0000000000000000 [Eh]
	 Same-Spin Energy          =      -0.3269439637224162 [Eh]
	 Opposite-Spin Energy      =      -1.0111948918796585 [Eh]
	 Correlation Energy        =      -1.3381388556020748 [Eh]
	 Total Energy              =    -343.1761126013566923 [Eh]

	 ================> DF-SCS-MP2 Energies <==================
	-----------------------------------------------------------
	 SCS Same-Spin Scale       =       0.3333333333333333 [-]
	 SCS Opposite-Spin Scale   =       1.2000000000000000 [-]
	 SCS Same-Spin Energy      =      -0.1089813212408054 [Eh]
	 SCS Opposite-Spin Energy  =      -1.2134338702555902 [Eh]
	 SCS Correlation Energy    =      -1.3224151914963957 [Eh]
	 SCS Total Energy          =    -343.1603889372510139 [Eh]
	-----------------------------------------------------------

  Dipole Moment: [D]
     X:     1.2841      Y:     1.9807      Z:     0.0529     Total:     2.3611

*** Psi4 exiting successfully. Buy a developer a beer!
