                               Psi4 1.3.2 release

  ==> Input File <==

--------------------------------------------------------------------------
#psi4
#
memory 32 gb

molecule  {
0 1
  O       -1.4344650     1.0675660     0.2191520
  O        1.4425540    -1.0727980    -0.0074420
  O        1.2409190     1.1848430    -0.0695910
  C       -0.7273960    -0.1479950     0.3622400
  C       -1.3608000    -1.1844980    -0.5490290
  C        0.8210267     0.2618946     0.0384747
  H       -0.7692630    -0.5063940     1.4052130
  H       -1.2645370    -0.8668950    -1.5888250
  H       -2.4222350    -1.2600450    -0.3075440
  H       -0.8906180    -2.1601930    -0.4204410
  H       -0.7794970     1.7838810     0.3439450
  H        2.3720270    -0.8088230    -0.1742930
units angstrom
no_reorient  #important for SAPT in psi4, default
symmetry c1  #important for SAPT in psi4, default
}

set PROPERTIES_ORIGIN ["COM"]
properties('MP2/aug-cc-pvtz', properties = ['dipole'])
--------------------------------------------------------------------------

    Molecular point group: c1
  Charge       = 0
  Multiplicity = 1
  Basis Set: AUG-CC-PVTZ
    Blend: AUG-CC-PVTZ
  Basis Set: (AUG-CC-PVTZ AUX)
    Blend: AUG-CC-PVTZ-JKFIT

    Orbital Energies [Eh]
    ---------------------

    Doubly Occupied:

       1A    -20.606065     2A    -20.593616     3A    -20.563713
       4A    -11.382047     5A    -11.304729     6A    -11.222241
       7A     -1.594161     8A     -1.371653     9A     -1.368297
      10A     -1.026604    11A     -0.883829    12A     -0.788738
      13A     -0.764607    14A     -0.745372    15A     -0.709511
      16A     -0.660842    17A     -0.634607    18A     -0.579080
      19A     -0.566091    20A     -0.547274    21A     -0.533919
      22A     -0.521613    23A     -0.463888    24A     -0.422367

  @DF-RHF Final Energy:  -341.75448290937675

   => Energetics <=

    Nuclear Repulsion Energy =            250.5833872230613224
    One-Electron Energy =                -964.9660121480768566
    Two-Electron Energy =                 372.6281420156387867
    Total Energy =                       -341.7544829093767476
  Basis Set: (AUG-CC-PVTZ AUX)
    Blend: AUG-CC-PVTZ-RI
    Molecular point group: c1

    Geometry (in Angstrom), charge = 0, multiplicity = 1:

       Center              X                  Y                   Z               Mass
    ------------   -----------------  -----------------  -----------------  -----------------
         O           -1.445441641016     1.043438410164     0.221977017072    15.994914619570
         O            1.431577358984    -1.096925589836    -0.004616982928    15.994914619570
         O            1.229942358984     1.160715410164    -0.066765982928    15.994914619570
         C           -0.738372641016    -0.172122589836     0.365065017072    12.000000000000
         C           -1.371776641016    -1.208625589836    -0.546203982928    12.000000000000
         C            0.810050058984     0.237767010164     0.041299717072    12.000000000000
         H           -0.780239641016    -0.530521589836     1.408038017072     1.007825032230
         H           -1.275513641016    -0.891022589836    -1.585999982928     1.007825032230
         H           -2.433211641016    -1.284172589836    -0.304718982928     1.007825032230
         H           -0.901594641016    -2.184320589836    -0.417615982928     1.007825032230
         H           -0.790473641016     1.759753410164     0.346770017072     1.007825032230
         H            2.361050358984    -0.832950589836    -0.171467982928     1.007825032230

  Basis Set: AUG-CC-PVTZ
    Blend: AUG-CC-PVTZ
  Basis Set: (AUG-CC-PVTZ AUX)
    Blend: AUG-CC-PVTZ-JKFIT
	 Reference Energy          =    -341.7544829093767476 [Eh]
	 Singles Energy            =      -0.0000000000000000 [Eh]
	 Same-Spin Energy          =      -0.3240743844061480 [Eh]
	 Opposite-Spin Energy      =      -1.0067323832697361 [Eh]
	 Correlation Energy        =      -1.3308067676758841 [Eh]
	 Total Energy              =    -343.0852896770526286 [Eh]

	 ================> DF-SCS-MP2 Energies <==================
	-----------------------------------------------------------
	 SCS Same-Spin Scale       =       0.3333333333333333 [-]
	 SCS Opposite-Spin Scale   =       1.2000000000000000 [-]
	 SCS Same-Spin Energy      =      -0.1080247948020493 [Eh]
	 SCS Opposite-Spin Energy  =      -1.2080788599236834 [Eh]
	 SCS Correlation Energy    =      -1.3161036547257328 [Eh]
	 SCS Total Energy          =    -343.0705865641024843 [Eh]
	-----------------------------------------------------------

  Dipole Moment: [D]
     X:     1.4835      Y:    -0.2885      Z:     0.2134     Total:     1.5262

*** Psi4 exiting successfully. Buy a developer a beer!
