                               Psi4 1.3.2 release

  ==> Input File <==

--------------------------------------------------------------------------
#psi4
#
memory 32 gb

molecule  {
0 1
  O       -1.4344650     1.0675660     0.2191520
  O        1.4425540    -1.0727980    -0.0074420
  O        1.2409190     1.1848430    -0.0695910
  C       -0.7273960    -0.1479950     0.3622400
  C       -1.3608000    -1.1844980    -0.5490290
  C        0.7386720     0.0808740     0.0596700
  H       -0.7692630    -0.5063940     1.4052130
  H       -1.2645370    -0.8668950    -1.5888250
  H       -2.4222350    -1.2600450    -0.3075440
  H       -0.8906180    -2.1601930    -0.4204410
  H       -0.7794970     1.7838810     0.3439450
  H        2.1824415    -0.8626662    -0.1402602
units angstrom
no_reorient  #important for SAPT in psi4, default
symmetry c1  #important for SAPT in psi4, default
}

set PROPERTIES_ORIGIN ["COM"]
properties('MP2/aug-cc-pvtz', properties = ['dipole'])
--------------------------------------------------------------------------

    Molecular point group: c1
  Charge       = 0
  Multiplicity = 1
  Basis Set: AUG-CC-PVTZ
    Blend: AUG-CC-PVTZ
  Basis Set: (AUG-CC-PVTZ AUX)
    Blend: AUG-CC-PVTZ-JKFIT

    Orbital Energies [Eh]
    ---------------------

    Doubly Occupied:

       1A    -20.617683     2A    -20.574832     3A    -20.568489
       4A    -11.407775     5A    -11.312903     6A    -11.232923
       7A     -1.524898     8A     -1.403941     9A     -1.366912
      10A     -1.061560    11A     -0.939419    12A     -0.841064
      13A     -0.743402    14A     -0.739037    15A     -0.695180
      16A     -0.649271    17A     -0.630068    18A     -0.587678
      19A     -0.562938    20A     -0.544147    21A     -0.539518
      22A     -0.506352    23A     -0.477186    24A     -0.456791

  @DF-RHF Final Energy:  -341.79345797055572

   => Energetics <=

    Nuclear Repulsion Energy =            251.0938770236189157
    One-Electron Energy =                -965.8067365110184710
    Two-Electron Energy =                 372.9194015168438341
    Total Energy =                       -341.7934579705557212
  Basis Set: (AUG-CC-PVTZ AUX)
    Blend: AUG-CC-PVTZ-RI
    Molecular point group: c1

    Geometry (in Angstrom), charge = 0, multiplicity = 1:

       Center              X                  Y                   Z               Mass
    ------------   -----------------  -----------------  -----------------  -----------------
         O           -1.432342638214     1.068168720398     0.218771004892    15.994914619570
         O            1.444676361786    -1.072195279602    -0.007822995108    15.994914619570
         O            1.243041361786     1.185445720398    -0.069971995108    15.994914619570
         C           -0.725273638214    -0.147392279602     0.361859004892    12.000000000000
         C           -1.358677638214    -1.183895279602    -0.549409995108    12.000000000000
         C            0.740794361786     0.081476720398     0.059289004892    12.000000000000
         H           -0.767140638214    -0.505791279602     1.404832004892     1.007825032230
         H           -1.262414638214    -0.866292279602    -1.589205995108     1.007825032230
         H           -2.420112638214    -1.259442279602    -0.307924995108     1.007825032230
         H           -0.888495638214    -2.159590279602    -0.420821995108     1.007825032230
         H           -0.777374638214     1.784483720398     0.343564004892     1.007825032230
         H            2.184563861786    -0.862063479602    -0.140641195108     1.007825032230

  Basis Set: AUG-CC-PVTZ
    Blend: AUG-CC-PVTZ
  Basis Set: (AUG-CC-PVTZ AUX)
    Blend: AUG-CC-PVTZ-JKFIT
	 Reference Energy          =    -341.7934579705557212 [Eh]
	 Singles Energy            =      -0.0000000000000000 [Eh]
	 Same-Spin Energy          =      -0.3247059763962296 [Eh]
	 Opposite-Spin Energy      =      -1.0065588819755220 [Eh]
	 Correlation Energy        =      -1.3312648583717515 [Eh]
	 Total Energy              =    -343.1247228289274744 [Eh]

	 ================> DF-SCS-MP2 Energies <==================
	-----------------------------------------------------------
	 SCS Same-Spin Scale       =       0.3333333333333333 [-]
	 SCS Opposite-Spin Scale   =       1.2000000000000000 [-]
	 SCS Same-Spin Energy      =      -0.1082353254654098 [Eh]
	 SCS Opposite-Spin Energy  =      -1.2078706583706265 [Eh]
	 SCS Correlation Energy    =      -1.3161059838360363 [Eh]
	 SCS Total Energy          =    -343.1095639543917741 [Eh]
	-----------------------------------------------------------

  Dipole Moment: [D]
     X:     0.9593      Y:    -1.8202      Z:     0.3506     Total:     2.0872

*** Psi4 exiting successfully. Buy a developer a beer!
