                               Psi4 1.3.2 release

  ==> Input File <==

--------------------------------------------------------------------------
#psi4
#
memory 32 gb

molecule  {
0 1
  O       -1.4344650     1.0675660     0.2191520
  O        1.4425540    -1.0727980    -0.0074420
  O        1.2409190     1.1848430    -0.0695910
  C       -0.7273960    -0.1479950     0.3622400
  C       -1.3608000    -1.1844980    -0.5490290
  C        0.6346330     0.2513952     0.0695896
  H       -0.7692630    -0.5063940     1.4052130
  H       -1.2645370    -0.8668950    -1.5888250
  H       -2.4222350    -1.2600450    -0.3075440
  H       -0.8906180    -2.1601930    -0.4204410
  H       -0.7794970     1.7838810     0.3439450
  H        2.3720270    -0.8088230    -0.1742930
units angstrom
no_reorient  #important for SAPT in psi4, default
symmetry c1  #important for SAPT in psi4, default
}

set PROPERTIES_ORIGIN ["COM"]
properties('MP2/aug-cc-pvtz', properties = ['dipole'])
--------------------------------------------------------------------------

    Molecular point group: c1
  Charge       = 0
  Multiplicity = 1
  Basis Set: AUG-CC-PVTZ
    Blend: AUG-CC-PVTZ
  Basis Set: (AUG-CC-PVTZ AUX)
    Blend: AUG-CC-PVTZ-JKFIT

    Orbital Energies [Eh]
    ---------------------

    Doubly Occupied:

       1A    -20.604285     2A    -20.576505     3A    -20.572344
       4A    -11.403770     5A    -11.319861     6A    -11.236996
       7A     -1.516304     8A     -1.389468     9A     -1.327098
      10A     -1.063186    11A     -0.930137    12A     -0.789993
      13A     -0.746430    14A     -0.718716    15A     -0.703187
      16A     -0.632111    17A     -0.622332    18A     -0.585708
      19A     -0.565617    20A     -0.548194    21A     -0.546251
      22A     -0.496944    23A     -0.476896    24A     -0.454786

  @DF-RHF Final Energy:  -341.79687425211273

   => Energetics <=

    Nuclear Repulsion Energy =            250.3431092081849272
    One-Electron Energy =                -964.6257235038424369
    Two-Electron Energy =                 372.4857400435447516
    Total Energy =                       -341.7968742521127297
  Basis Set: (AUG-CC-PVTZ AUX)
    Blend: AUG-CC-PVTZ-RI
    Molecular point group: c1

    Geometry (in Angstrom), charge = 0, multiplicity = 1:

       Center              X                  Y                   Z               Mass
    ------------   -----------------  -----------------  -----------------  -----------------
         O           -1.420597896560     1.044837837347     0.217829824198    15.994914619570
         O            1.456421103440    -1.095526162653    -0.008764175802    15.994914619570
         O            1.254786103440     1.162114837347    -0.070913175802    15.994914619570
         C           -0.713528896560    -0.170723162653     0.360917824198    12.000000000000
         C           -1.346932896560    -1.207226162653    -0.550351175802    12.000000000000
         C            0.648500103440     0.228667037347     0.068267424198    12.000000000000
         H           -0.755395896560    -0.529122162653     1.403890824198     1.007825032230
         H           -1.250669896560    -0.889623162653    -1.590147175802     1.007825032230
         H           -2.408367896560    -1.282773162653    -0.308866175802     1.007825032230
         H           -0.876750896560    -2.182921162653    -0.421763175802     1.007825032230
         H           -0.765629896560     1.761152837347     0.342622824198     1.007825032230
         H            2.385894103440    -0.831551162653    -0.175615175802     1.007825032230

  Basis Set: AUG-CC-PVTZ
    Blend: AUG-CC-PVTZ
  Basis Set: (AUG-CC-PVTZ AUX)
    Blend: AUG-CC-PVTZ-JKFIT
	 Reference Energy          =    -341.7968742521127297 [Eh]
	 Singles Energy            =      -0.0000000000000000 [Eh]
	 Same-Spin Energy          =      -0.3272561520024804 [Eh]
	 Opposite-Spin Energy      =      -1.0134435392028112 [Eh]
	 Correlation Energy        =      -1.3406996912052915 [Eh]
	 Total Energy              =    -343.1375739433180456 [Eh]

	 ================> DF-SCS-MP2 Energies <==================
	-----------------------------------------------------------
	 SCS Same-Spin Scale       =       0.3333333333333333 [-]
	 SCS Opposite-Spin Scale   =       1.2000000000000000 [-]
	 SCS Same-Spin Energy      =      -0.1090853840008268 [Eh]
	 SCS Opposite-Spin Energy  =      -1.2161322470433733 [Eh]
	 SCS Correlation Energy    =      -1.3252176310442001 [Eh]
	 SCS Total Energy          =    -343.1220918831569406 [Eh]
	-----------------------------------------------------------

  Dipole Moment: [D]
     X:     0.3063      Y:    -0.3916      Z:     0.3617     Total:     0.6148

*** Psi4 exiting successfully. Buy a developer a beer!
