                               Psi4 1.3.2 release

  ==> Input File <==

--------------------------------------------------------------------------
#psi4
#
memory 32 gb

molecule  {
0 1
  O       -1.4163974     1.0673755     0.1473890
  O        1.4425540    -1.0727980    -0.0074420
  O        1.2409190     1.1848430    -0.0695910
  C       -0.7273960    -0.1479950     0.3622400
  C       -1.3608000    -1.1844980    -0.5490290
  C        0.7386720     0.0808740     0.0596700
  H       -0.7374534    -0.5519102     1.3892486
  H       -1.2645370    -0.8668950    -1.5888250
  H       -2.4222350    -1.2600450    -0.3075440
  H       -0.8906180    -2.1601930    -0.4204410
  H       -0.7794970     1.7838810     0.3439450
  H        2.3720270    -0.8088230    -0.1742930
units angstrom
no_reorient  #important for SAPT in psi4, default
symmetry c1  #important for SAPT in psi4, default
}

set PROPERTIES_ORIGIN ["COM"]
properties('MP2/aug-cc-pvtz', properties = ['dipole'])
--------------------------------------------------------------------------

    Molecular point group: c1
  Charge       = 0
  Multiplicity = 1
  Basis Set: AUG-CC-PVTZ
    Blend: AUG-CC-PVTZ
  Basis Set: (AUG-CC-PVTZ AUX)
    Blend: AUG-CC-PVTZ-JKFIT

    Orbital Energies [Eh]
    ---------------------

    Doubly Occupied:

       1A    -20.632956     2A    -20.569283     3A    -20.568966
       4A    -11.401558     5A    -11.312104     6A    -11.230444
       7A     -1.479224     8A     -1.386965     9A     -1.361951
      10A     -1.053839    11A     -0.918349    12A     -0.809983
      13A     -0.737533    14A     -0.721040    15A     -0.695946
      16A     -0.639090    17A     -0.620098    18A     -0.584671
      19A     -0.559262    20A     -0.542102    21A     -0.532171
      22A     -0.498507    23A     -0.476391    24A     -0.454609

  @DF-RHF Final Energy:  -341.83483623659913

   => Energetics <=

    Nuclear Repulsion Energy =            250.0493235300620540
    One-Electron Energy =                -964.1942381786186615
    Two-Electron Energy =                 372.3100784119574200
    Total Energy =                       -341.8348362365991306
  Basis Set: (AUG-CC-PVTZ AUX)
    Blend: AUG-CC-PVTZ-RI
    Molecular point group: c1

    Geometry (in Angstrom), charge = 0, multiplicity = 1:

       Center              X                  Y                   Z               Mass
    ------------   -----------------  -----------------  -----------------  -----------------
         O           -1.419963226675     1.067918850996     0.160317001242    15.994914619570
         O            1.438988173325    -1.072254649004     0.005486001242    15.994914619570
         O            1.237353173325     1.185386350996    -0.056662998758    15.994914619570
         C           -0.730961826675    -0.147451649004     0.375168001242    12.000000000000
         C           -1.364365826675    -1.183954649004    -0.536100998758    12.000000000000
         C            0.735106173325     0.081417350996     0.072598001242    12.000000000000
         H           -0.741019226675    -0.551366849004     1.402176601242     1.007825032230
         H           -1.268102826675    -0.866351649004    -1.575896998758     1.007825032230
         H           -2.425800826675    -1.259501649004    -0.294615998758     1.007825032230
         H           -0.894183826675    -2.159649649004    -0.407512998758     1.007825032230
         H           -0.783062826675     1.784424350996     0.356873001242     1.007825032230
         H            2.368461173325    -0.808279649004    -0.161364998758     1.007825032230

  Basis Set: AUG-CC-PVTZ
    Blend: AUG-CC-PVTZ
  Basis Set: (AUG-CC-PVTZ AUX)
    Blend: AUG-CC-PVTZ-JKFIT
	 Reference Energy          =    -341.8348362365991306 [Eh]
	 Singles Energy            =      -0.0000000000000000 [Eh]
	 Same-Spin Energy          =      -0.3273281995112712 [Eh]
	 Opposite-Spin Energy      =      -1.0119699623895306 [Eh]
	 Correlation Energy        =      -1.3392981619008018 [Eh]
	 Total Energy              =    -343.1741343984999162 [Eh]

	 ================> DF-SCS-MP2 Energies <==================
	-----------------------------------------------------------
	 SCS Same-Spin Scale       =       0.3333333333333333 [-]
	 SCS Opposite-Spin Scale   =       1.2000000000000000 [-]
	 SCS Same-Spin Energy      =      -0.1091093998370904 [Eh]
	 SCS Opposite-Spin Energy  =      -1.2143639548674368 [Eh]
	 SCS Correlation Energy    =      -1.3234733547045272 [Eh]
	 SCS Total Energy          =    -343.1583095913036345 [Eh]
	-----------------------------------------------------------

  Dipole Moment: [D]
     X:     1.1611      Y:    -1.8175      Z:     0.4587     Total:     2.2049

*** Psi4 exiting successfully. Buy a developer a beer!
