                               Psi4 1.3.2 release

  ==> Input File <==

--------------------------------------------------------------------------
#psi4
#
memory 32 gb

molecule  {
0 1
  O       -1.4344650     1.0675660     0.2191520
  O        1.4425540    -1.0727980    -0.0074420
  O        1.2409190     1.1848430    -0.0695910
  C       -0.7149255    -0.1193350     0.3194318
  C       -1.3608000    -1.1844980    -0.5490290
  C        0.7386720     0.0808740     0.0596700
  H       -0.7692630    -0.5063940     1.4052130
  H       -1.2465248    -0.8355225    -1.5768769
  H       -2.4222350    -1.2600450    -0.3075440
  H       -0.8906180    -2.1601930    -0.4204410
  H       -0.7794970     1.7838810     0.3439450
  H        2.3720270    -0.8088230    -0.1742930
units angstrom
no_reorient  #important for SAPT in psi4, default
symmetry c1  #important for SAPT in psi4, default
}

set PROPERTIES_ORIGIN ["COM"]
properties('MP2/aug-cc-pvtz', properties = ['dipole'])
--------------------------------------------------------------------------

    Molecular point group: c1
  Charge       = 0
  Multiplicity = 1
  Basis Set: AUG-CC-PVTZ
    Blend: AUG-CC-PVTZ
  Basis Set: (AUG-CC-PVTZ AUX)
    Blend: AUG-CC-PVTZ-JKFIT

    Orbital Energies [Eh]
    ---------------------

    Doubly Occupied:

       1A    -20.634477     2A    -20.570471     3A    -20.569785
       4A    -11.403144     5A    -11.312525     6A    -11.231756
       7A     -1.481067     8A     -1.392846     9A     -1.366954
      10A     -1.054602    11A     -0.921762    12A     -0.809512
      13A     -0.744209    14A     -0.722655    15A     -0.689417
      16A     -0.639527    17A     -0.621337    18A     -0.590329
      19A     -0.561283    20A     -0.543624    21A     -0.538592
      22A     -0.500649    23A     -0.474805    24A     -0.446416

  @DF-RHF Final Energy:  -341.83361580812624

   => Energetics <=

    Nuclear Repulsion Energy =            250.2883271231755202
    One-Electron Energy =                -964.6003979878955761
    Two-Electron Energy =                 372.4784550565937593
    Total Energy =                       -341.8336158081262397
  Basis Set: (AUG-CC-PVTZ AUX)
    Blend: AUG-CC-PVTZ-RI
    Molecular point group: c1

    Geometry (in Angstrom), charge = 0, multiplicity = 1:

       Center              X                  Y                   Z               Mass
    ------------   -----------------  -----------------  -----------------  -----------------
         O           -1.436328658498     1.063394818050     0.224723974222    15.994914619570
         O            1.440690341502    -1.076969181950    -0.001870025778    15.994914619570
         O            1.239055341502     1.180671818050    -0.064019025778    15.994914619570
         C           -0.716789158498    -0.123506181950     0.325003774222    12.000000000000
         C           -1.362663658498    -1.188669181950    -0.543457025778    12.000000000000
         C            0.736808341502     0.076702818050     0.065241974222    12.000000000000
         H           -0.771126658498    -0.510565181950     1.410784974222     1.007825032230
         H           -1.248388458498    -0.839693681950    -1.571304925778     1.007825032230
         H           -2.424098658498    -1.264216181950    -0.301972025778     1.007825032230
         H           -0.892481658498    -2.164364181950    -0.414869025778     1.007825032230
         H           -0.781360658498     1.779709818050     0.349516974222     1.007825032230
         H            2.370163341502    -0.812994181950    -0.168721025778     1.007825032230

  Basis Set: AUG-CC-PVTZ
    Blend: AUG-CC-PVTZ
  Basis Set: (AUG-CC-PVTZ AUX)
    Blend: AUG-CC-PVTZ-JKFIT
	 Reference Energy          =    -341.8336158081262397 [Eh]
	 Singles Energy            =      -0.0000000000000000 [Eh]
	 Same-Spin Energy          =      -0.3274270190604071 [Eh]
	 Opposite-Spin Energy      =      -1.0118373585043545 [Eh]
	 Correlation Energy        =      -1.3392643775647617 [Eh]
	 Total Energy              =    -343.1728801856909854 [Eh]

	 ================> DF-SCS-MP2 Energies <==================
	-----------------------------------------------------------
	 SCS Same-Spin Scale       =       0.3333333333333333 [-]
	 SCS Opposite-Spin Scale   =       1.2000000000000000 [-]
	 SCS Same-Spin Energy      =      -0.1091423396868023 [Eh]
	 SCS Opposite-Spin Energy  =      -1.2142048302052253 [Eh]
	 SCS Correlation Energy    =      -1.3233471698920276 [Eh]
	 SCS Total Energy          =    -343.1569629780182709 [Eh]
	-----------------------------------------------------------

  Dipole Moment: [D]
     X:     1.1697      Y:    -1.7648      Z:     0.2541     Total:     2.1325

*** Psi4 exiting successfully. Buy a developer a beer!
