                               Psi4 1.3.2 release

  ==> Input File <==

--------------------------------------------------------------------------
#psi4
#
memory 32 gb

molecule  {
0 1
  O       -1.4344650     1.0675660     0.2191520
  O        1.4425540    -1.0727980    -0.0074420
  O        1.2409190     1.1848430    -0.0695910
  C       -0.7066718    -0.1352201     0.3662303
  C       -1.3608000    -1.1844980    -0.5490290
  C        0.7386720     0.0808740     0.0596700
  H       -0.7692630    -0.5063940     1.4052130
  H       -1.2645370    -0.8668950    -1.5888250
  H       -2.4222350    -1.2600450    -0.3075440
  H       -0.8906180    -2.1601930    -0.4204410
  H       -0.7673359     1.7721357     0.3463675
  H        2.3720270    -0.8088230    -0.1742930
units angstrom
no_reorient  #important for SAPT in psi4, default
symmetry c1  #important for SAPT in psi4, default
}

set PROPERTIES_ORIGIN ["COM"]
properties('MP2/aug-cc-pvtz', properties = ['dipole'])
--------------------------------------------------------------------------

    Molecular point group: c1
  Charge       = 0
  Multiplicity = 1
  Basis Set: AUG-CC-PVTZ
    Blend: AUG-CC-PVTZ
  Basis Set: (AUG-CC-PVTZ AUX)
    Blend: AUG-CC-PVTZ-JKFIT

    Orbital Energies [Eh]
    ---------------------

    Doubly Occupied:

       1A    -20.634755     2A    -20.570932     3A    -20.568151
       4A    -11.403898     5A    -11.310657     6A    -11.232399
       7A     -1.481441     8A     -1.388206     9A     -1.363050
      10A     -1.051959    11A     -0.921380    12A     -0.811550
      13A     -0.740136    14A     -0.723730    15A     -0.690774
      16A     -0.639054    17A     -0.621931    18A     -0.584142
      19A     -0.559644    20A     -0.542868    21A     -0.535665
      22A     -0.500706    23A     -0.474280    24A     -0.455856

  @DF-RHF Final Energy:  -341.83585635126741

   => Energetics <=

    Nuclear Repulsion Energy =            249.8493623797957923
    One-Electron Energy =                -963.7561126489366643
    Two-Electron Energy =                 372.0708939178734340
    Total Energy =                       -341.8358563512674095
  Basis Set: (AUG-CC-PVTZ AUX)
    Blend: AUG-CC-PVTZ-RI
    Molecular point group: c1

    Geometry (in Angstrom), charge = 0, multiplicity = 1:

       Center              X                  Y                   Z               Mass
    ------------   -----------------  -----------------  -----------------  -----------------
         O           -1.437363266543     1.065994751336     0.218593001483    15.994914619570
         O            1.439655733457    -1.074369248664    -0.008000998517    15.994914619570
         O            1.238020733457     1.183271751336    -0.070149998517    15.994914619570
         C           -0.709570066543    -0.136791348664     0.365671301483    12.000000000000
         C           -1.363698266543    -1.186069248664    -0.549587998517    12.000000000000
         C            0.735773733457     0.079302751336     0.059111001483    12.000000000000
         H           -0.772161266543    -0.507965248664     1.404654001483     1.007825032230
         H           -1.267435266543    -0.868466248664    -1.589383998517     1.007825032230
         H           -2.425133266543    -1.261616248664    -0.308102998517     1.007825032230
         H           -0.893516266543    -2.161764248664    -0.420999998517     1.007825032230
         H           -0.770234166543     1.770564451336     0.345808501483     1.007825032230
         H            2.369128733457    -0.810394248664    -0.174851998517     1.007825032230

  Basis Set: AUG-CC-PVTZ
    Blend: AUG-CC-PVTZ
  Basis Set: (AUG-CC-PVTZ AUX)
    Blend: AUG-CC-PVTZ-JKFIT
	 Reference Energy          =    -341.8358563512674095 [Eh]
	 Singles Energy            =      -0.0000000000000000 [Eh]
	 Same-Spin Energy          =      -0.3272609809902293 [Eh]
	 Opposite-Spin Energy      =      -1.0120280976915148 [Eh]
	 Correlation Energy        =      -1.3392890786817442 [Eh]
	 Total Energy              =    -343.1751454299491684 [Eh]

	 ================> DF-SCS-MP2 Energies <==================
	-----------------------------------------------------------
	 SCS Same-Spin Scale       =       0.3333333333333333 [-]
	 SCS Opposite-Spin Scale   =       1.2000000000000000 [-]
	 SCS Same-Spin Energy      =      -0.1090869936634098 [Eh]
	 SCS Opposite-Spin Energy  =      -1.2144337172298176 [Eh]
	 SCS Correlation Energy    =      -1.3235207108932274 [Eh]
	 SCS Total Energy          =    -343.1593770621606154 [Eh]
	-----------------------------------------------------------

  Dipole Moment: [D]
     X:     1.2420      Y:    -1.8441      Z:     0.3224     Total:     2.2466

*** Psi4 exiting successfully. Buy a developer a beer!
