                               Psi4 1.3.2 release

  ==> Input File <==

--------------------------------------------------------------------------
#psi4
#
memory 32 gb

molecule  {
0 1
  O       -1.4344650     1.0675660     0.2191520
  O        1.4425540    -1.0727980    -0.0074420
  O        1.2409190     1.1848430    -0.0695910
  C       -0.7273960    -0.1479950     0.3622400
  C       -1.3608000    -1.1844980    -0.5490290
  C        0.6974946    -0.0096363     0.0702676
  H       -0.7692630    -0.5063940     1.4052130
  H       -1.2645370    -0.8668950    -1.5888250
  H       -2.4222350    -1.2600450    -0.3075440
  H       -0.8906180    -2.1601930    -0.4204410
  H       -0.7794970     1.7838810     0.3439450
  H        2.3720270    -0.8088230    -0.1742930
units angstrom
no_reorient  #important for SAPT in psi4, default
symmetry c1  #important for SAPT in psi4, default
}

set PROPERTIES_ORIGIN ["COM"]
properties('MP2/aug-cc-pvtz', properties = ['dipole'])
--------------------------------------------------------------------------

    Molecular point group: c1
  Charge       = 0
  Multiplicity = 1
  Basis Set: AUG-CC-PVTZ
    Blend: AUG-CC-PVTZ
  Basis Set: (AUG-CC-PVTZ AUX)
    Blend: AUG-CC-PVTZ-JKFIT

    Orbital Energies [Eh]
    ---------------------

    Doubly Occupied:

       1A    -20.650595     2A    -20.569418     3A    -20.551629
       4A    -11.411751     5A    -11.314368     6A    -11.236303
       7A     -1.496873     8A     -1.380340     9A     -1.314611
      10A     -1.070294    11A     -0.934133    12A     -0.834344
      13A     -0.744679    14A     -0.721793    15A     -0.697172
      16A     -0.642674    17A     -0.607502    18A     -0.586427
      19A     -0.564340    20A     -0.547403    21A     -0.524133
      22A     -0.472508    23A     -0.463464    24A     -0.456990

  @DF-RHF Final Energy:  -341.81494674678686

   => Energetics <=

    Nuclear Repulsion Energy =            249.6246624272709482
    One-Electron Energy =                -963.2917278715273142
    Two-Electron Energy =                 371.8521186974695638
    Total Energy =                       -341.8149467467868590
  Basis Set: (AUG-CC-PVTZ AUX)
    Blend: AUG-CC-PVTZ-RI
    Molecular point group: c1

    Geometry (in Angstrom), charge = 0, multiplicity = 1:

       Center              X                  Y                   Z               Mass
    ------------   -----------------  -----------------  -----------------  -----------------
         O           -1.428976492653     1.079629785149     0.217739456022    15.994914619570
         O            1.448042507347    -1.060734214851    -0.008854543978    15.994914619570
         O            1.246407507347     1.196906785149    -0.071003543978    15.994914619570
         C           -0.721907492653    -0.135931214851     0.360827456022    12.000000000000
         C           -1.355311492653    -1.172434214851    -0.550441543978    12.000000000000
         C            0.702983107347     0.002427485149     0.068855056022    12.000000000000
         H           -0.763774492653    -0.494330214851     1.403800456022     1.007825032230
         H           -1.259048492653    -0.854831214851    -1.590237543978     1.007825032230
         H           -2.416746492653    -1.247981214851    -0.308956543978     1.007825032230
         H           -0.885129492653    -2.148129214851    -0.421853543978     1.007825032230
         H           -0.774008492653     1.795944785149     0.342532456022     1.007825032230
         H            2.377515507347    -0.796759214851    -0.175705543978     1.007825032230

  Basis Set: AUG-CC-PVTZ
    Blend: AUG-CC-PVTZ
  Basis Set: (AUG-CC-PVTZ AUX)
    Blend: AUG-CC-PVTZ-JKFIT
	 Reference Energy          =    -341.8149467467868590 [Eh]
	 Singles Energy            =      -0.0000000000000000 [Eh]
	 Same-Spin Energy          =      -0.3293872702109054 [Eh]
	 Opposite-Spin Energy      =      -1.0154168748311014 [Eh]
	 Correlation Energy        =      -1.3448041450420067 [Eh]
	 Total Energy              =    -343.1597508918288781 [Eh]

	 ================> DF-SCS-MP2 Energies <==================
	-----------------------------------------------------------
	 SCS Same-Spin Scale       =       0.3333333333333333 [-]
	 SCS Opposite-Spin Scale   =       1.2000000000000000 [-]
	 SCS Same-Spin Energy      =      -0.1097957567369685 [Eh]
	 SCS Opposite-Spin Energy  =      -1.2185002497973216 [Eh]
	 SCS Correlation Energy    =      -1.3282960065342901 [Eh]
	 SCS Total Energy          =    -343.1432427533211467 [Eh]
	-----------------------------------------------------------

  Dipole Moment: [D]
     X:     1.0923      Y:    -2.4863      Z:     0.3505     Total:     2.7382

*** Psi4 exiting successfully. Buy a developer a beer!
