                               Psi4 1.3.2 release

  ==> Input File <==

--------------------------------------------------------------------------
#psi4
#
memory 32 gb

molecule  {
0 1
  O       -1.4639989     1.0455238     0.1863472
  O        1.4425540    -1.0727980    -0.0074420
  O        1.2409190     1.1848430    -0.0695910
  C       -0.7273960    -0.1479950     0.3622400
  C       -1.3957749    -1.1479192    -0.5647830
  C        0.7386720     0.0808740     0.0596700
  H       -0.7692630    -0.5063940     1.4052130
  H       -1.2645370    -0.8668950    -1.5888250
  H       -2.4222350    -1.2600450    -0.3075440
  H       -0.8906180    -2.1601930    -0.4204410
  H       -0.7794970     1.7838810     0.3439450
  H        2.3720270    -0.8088230    -0.1742930
units angstrom
no_reorient  #important for SAPT in psi4, default
symmetry c1  #important for SAPT in psi4, default
}

set PROPERTIES_ORIGIN ["COM"]
properties('MP2/aug-cc-pvtz', properties = ['dipole'])
--------------------------------------------------------------------------

    Molecular point group: c1
  Charge       = 0
  Multiplicity = 1
  Basis Set: AUG-CC-PVTZ
    Blend: AUG-CC-PVTZ
  Basis Set: (AUG-CC-PVTZ AUX)
    Blend: AUG-CC-PVTZ-JKFIT

    Orbital Energies [Eh]
    ---------------------

    Doubly Occupied:

       1A    -20.634824     2A    -20.571989     3A    -20.570390
       4A    -11.405021     5A    -11.310656     6A    -11.230014
       7A     -1.480949     8A     -1.384846     9A     -1.359302
      10A     -1.049213    11A     -0.920350    12A     -0.809210
      13A     -0.734989    14A     -0.723099    15A     -0.689222
      16A     -0.638418    17A     -0.622554    18A     -0.585257
      19A     -0.565381    20A     -0.539157    21A     -0.522521
      22A     -0.501041    23A     -0.476576    24A     -0.454821

  @DF-RHF Final Energy:  -341.82840929681572

   => Energetics <=

    Nuclear Repulsion Energy =            249.4162461798600248
    One-Electron Energy =                -962.9297066795443243
    Two-Electron Energy =                 371.6850512028685216
    Total Energy =                       -341.8284092968157211
  Basis Set: (AUG-CC-PVTZ AUX)
    Blend: AUG-CC-PVTZ-RI
    Molecular point group: c1

    Geometry (in Angstrom), charge = 0, multiplicity = 1:

       Center              X                  Y                   Z               Mass
    ------------   -----------------  -----------------  -----------------  -----------------
         O           -1.454090146948     1.044564325893     0.194275024255    15.994914619570
         O            1.452462753052    -1.073757474107     0.000485824255    15.994914619570
         O            1.250827753052     1.183883525893    -0.061663175745    15.994914619570
         C           -0.717487246948    -0.148954474107     0.370167824255    12.000000000000
         C           -1.385866146948    -1.148878674107    -0.556855175745    12.000000000000
         C            0.748580753052     0.079914525893     0.067597824255    12.000000000000
         H           -0.759354246948    -0.507353474107     1.413140824255     1.007825032230
         H           -1.254628246948    -0.867854474107    -1.580897175745     1.007825032230
         H           -2.412326246948    -1.261004474107    -0.299616175745     1.007825032230
         H           -0.880709246948    -2.161152474107    -0.412513175745     1.007825032230
         H           -0.769588246948     1.782921525893     0.351872824255     1.007825032230
         H            2.381935753052    -0.809782474107    -0.166365175745     1.007825032230

  Basis Set: AUG-CC-PVTZ
    Blend: AUG-CC-PVTZ
  Basis Set: (AUG-CC-PVTZ AUX)
    Blend: AUG-CC-PVTZ-JKFIT
	 Reference Energy          =    -341.8284092968157211 [Eh]
	 Singles Energy            =      -0.0000000000000000 [Eh]
	 Same-Spin Energy          =      -0.3278924386993404 [Eh]
	 Opposite-Spin Energy      =      -1.0136062525409817 [Eh]
	 Correlation Energy        =      -1.3414986912403219 [Eh]
	 Total Energy              =    -343.1699079880560248 [Eh]

	 ================> DF-SCS-MP2 Energies <==================
	-----------------------------------------------------------
	 SCS Same-Spin Scale       =       0.3333333333333333 [-]
	 SCS Opposite-Spin Scale   =       1.2000000000000000 [-]
	 SCS Same-Spin Energy      =      -0.1092974795664468 [Eh]
	 SCS Opposite-Spin Energy  =      -1.2163275030491780 [Eh]
	 SCS Correlation Energy    =      -1.3256249826156248 [Eh]
	 SCS Total Energy          =    -343.1540342794313574 [Eh]
	-----------------------------------------------------------

  Dipole Moment: [D]
     X:     1.2757      Y:    -1.7627      Z:     0.3661     Total:     2.2065

*** Psi4 exiting successfully. Buy a developer a beer!
