                               Psi4 1.3.2 release

  ==> Input File <==

--------------------------------------------------------------------------
#psi4
#
memory 32 gb

molecule  {
0 1
  O       -1.4344650     1.0675660     0.2191520
  O        1.4425540    -1.0727980    -0.0074420
  O        1.2027524     1.2022399    -0.0622972
  C       -0.7345874    -0.0956283     0.3623887
  C       -1.3608000    -1.1844980    -0.5490290
  C        0.7386720     0.0808740     0.0596700
  H       -0.7692630    -0.5063940     1.4052130
  H       -1.2645370    -0.8668950    -1.5888250
  H       -2.4222350    -1.2600450    -0.3075440
  H       -0.8906180    -2.1601930    -0.4204410
  H       -0.7794970     1.7838810     0.3439450
  H        2.3720270    -0.8088230    -0.1742930
units angstrom
no_reorient  #important for SAPT in psi4, default
symmetry c1  #important for SAPT in psi4, default
}

set PROPERTIES_ORIGIN ["COM"]
properties('MP2/aug-cc-pvtz', properties = ['dipole'])
--------------------------------------------------------------------------

    Molecular point group: c1
  Charge       = 0
  Multiplicity = 1
  Basis Set: AUG-CC-PVTZ
    Blend: AUG-CC-PVTZ
  Basis Set: (AUG-CC-PVTZ AUX)
    Blend: AUG-CC-PVTZ-JKFIT

    Orbital Energies [Eh]
    ---------------------

    Doubly Occupied:

       1A    -20.637721     2A    -20.570643     3A    -20.569476
       4A    -11.402419     5A    -11.309772     6A    -11.229817
       7A     -1.480319     8A     -1.400810     9A     -1.370595
      10A     -1.043404    11A     -0.914699    12A     -0.813990
      13A     -0.746980    14A     -0.723462    15A     -0.692395
      16A     -0.639651    17A     -0.622432    18A     -0.593841
      19A     -0.560036    20A     -0.544457    21A     -0.531830
      22A     -0.501667    23A     -0.467365    24A     -0.447791

  @DF-RHF Final Energy:  -341.83421560471828

   => Energetics <=

    Nuclear Repulsion Energy =            250.1452757270186567
    One-Electron Energy =                -964.3278344828555646
    Two-Electron Energy =                 372.3483431511186268
    Total Energy =                       -341.8342156047182812
  Basis Set: (AUG-CC-PVTZ AUX)
    Blend: AUG-CC-PVTZ-RI
    Molecular point group: c1

    Geometry (in Angstrom), charge = 0, multiplicity = 1:

       Center              X                  Y                   Z               Mass
    ------------   -----------------  -----------------  -----------------  -----------------
         O           -1.426725735178     1.057495513978     0.217836345143    15.994914619570
         O            1.450293264822    -1.082868486022    -0.008757654857    15.994914619570
         O            1.210491664822     1.192169413978    -0.063612854857    15.994914619570
         C           -0.726848135178    -0.105698786022     0.361073045143    12.000000000000
         C           -1.353060735178    -1.194568486022    -0.550344654857    12.000000000000
         C            0.746411264822     0.070803513978     0.058354345143    12.000000000000
         H           -0.761523735178    -0.516464486022     1.403897345143     1.007825032230
         H           -1.256797735178    -0.876965486022    -1.590140654857     1.007825032230
         H           -2.414495735178    -1.270115486022    -0.308859654857     1.007825032230
         H           -0.882878735178    -2.170263486022    -0.421756654857     1.007825032230
         H           -0.771757735178     1.773810513978     0.342629345143     1.007825032230
         H            2.379766264822    -0.818893486022    -0.175608654857     1.007825032230

  Basis Set: AUG-CC-PVTZ
    Blend: AUG-CC-PVTZ
  Basis Set: (AUG-CC-PVTZ AUX)
    Blend: AUG-CC-PVTZ-JKFIT
	 Reference Energy          =    -341.8342156047182812 [Eh]
	 Singles Energy            =      -0.0000000000000000 [Eh]
	 Same-Spin Energy          =      -0.3272087181652399 [Eh]
	 Opposite-Spin Energy      =      -1.0112178925389879 [Eh]
	 Correlation Energy        =      -1.3384266107042277 [Eh]
	 Total Energy              =    -343.1726422154225133 [Eh]

	 ================> DF-SCS-MP2 Energies <==================
	-----------------------------------------------------------
	 SCS Same-Spin Scale       =       0.3333333333333333 [-]
	 SCS Opposite-Spin Scale   =       1.2000000000000000 [-]
	 SCS Same-Spin Energy      =      -0.1090695727217466 [Eh]
	 SCS Opposite-Spin Energy  =      -1.2134614710467855 [Eh]
	 SCS Correlation Energy    =      -1.3225310437685320 [Eh]
	 SCS Total Energy          =    -343.1567466484868305 [Eh]
	-----------------------------------------------------------

  Dipole Moment: [D]
     X:     1.2834      Y:    -1.7048      Z:     0.2911     Total:     2.1537

*** Psi4 exiting successfully. Buy a developer a beer!
