                               Psi4 1.3.2 release

  ==> Input File <==

--------------------------------------------------------------------------
#psi4
#
memory 32 gb

molecule  {
0 1
  O       -1.4344650     1.0675660     0.2191520
  O        1.4425540    -1.0727980    -0.0074420
  O        1.2409190     1.1848430    -0.0695910
  C       -0.7306348    -0.1553587     0.3727706
  C       -1.3608000    -1.1844980    -0.5490290
  C        0.7386720     0.0808740     0.0596700
  H       -0.7692630    -0.5063940     1.4052130
  H       -1.2690592    -0.8748001    -1.5916146
  H       -2.4222350    -1.2600450    -0.3075440
  H       -0.8906180    -2.1601930    -0.4204410
  H       -0.7794970     1.7838810     0.3439450
  H        2.3720270    -0.8088230    -0.1742930
units angstrom
no_reorient  #important for SAPT in psi4, default
symmetry c1  #important for SAPT in psi4, default
}

set PROPERTIES_ORIGIN ["COM"]
properties('MP2/aug-cc-pvtz', properties = ['dipole'])
--------------------------------------------------------------------------

    Molecular point group: c1
  Charge       = 0
  Multiplicity = 1
  Basis Set: AUG-CC-PVTZ
    Blend: AUG-CC-PVTZ
  Basis Set: (AUG-CC-PVTZ AUX)
    Blend: AUG-CC-PVTZ-JKFIT

    Orbital Energies [Eh]
    ---------------------

    Doubly Occupied:

       1A    -20.633943     2A    -20.570620     3A    -20.566221
       4A    -11.403611     5A    -11.311388     6A    -11.231489
       7A     -1.480007     8A     -1.385423     9A     -1.360651
      10A     -1.053140    11A     -0.917907    12A     -0.812783
      13A     -0.737315    14A     -0.721973    15A     -0.691596
      16A     -0.639159    17A     -0.621582    18A     -0.584058
      19A     -0.561570    20A     -0.542026    21A     -0.532942
      22A     -0.500105    23A     -0.474313    24A     -0.455904

  @DF-RHF Final Energy:  -341.83668385861779

   => Energetics <=

    Nuclear Repulsion Energy =            249.4891835667332884
    One-Electron Energy =                -963.0722850961229824
    Two-Electron Energy =                 371.7464176707719616
    Total Energy =                       -341.8366838586177892
  Basis Set: (AUG-CC-PVTZ AUX)
    Blend: AUG-CC-PVTZ-RI
    Molecular point group: c1

    Geometry (in Angstrom), charge = 0, multiplicity = 1:

       Center              X                  Y                   Z               Mass
    ------------   -----------------  -----------------  -----------------  -----------------
         O           -1.433982569883     1.068635965109     0.217779613310    15.994914619570
         O            1.443036430117    -1.071728034891    -0.008814386690    15.994914619570
         O            1.241401430117     1.185912965109    -0.070963386690    15.994914619570
         C           -0.730152369883    -0.154288734891     0.371398213310    12.000000000000
         C           -1.360317569883    -1.183428034891    -0.550401386690    12.000000000000
         C            0.739154430117     0.081943965109     0.058297613310    12.000000000000
         H           -0.768780569883    -0.505324034891     1.403840613310     1.007825032230
         H           -1.268576769883    -0.873730134891    -1.592986986690     1.007825032230
         H           -2.421752569883    -1.258975034891    -0.308916386690     1.007825032230
         H           -0.890135569883    -2.159123034891    -0.421813386690     1.007825032230
         H           -0.779014569883     1.784950965109     0.342572613310     1.007825032230
         H            2.372509430117    -0.807753034891    -0.175665386690     1.007825032230

  Basis Set: AUG-CC-PVTZ
    Blend: AUG-CC-PVTZ
  Basis Set: (AUG-CC-PVTZ AUX)
    Blend: AUG-CC-PVTZ-JKFIT
	 Reference Energy          =    -341.8366838586177892 [Eh]
	 Singles Energy            =      -0.0000000000000000 [Eh]
	 Same-Spin Energy          =      -0.3270926909774450 [Eh]
	 Opposite-Spin Energy      =      -1.0117985384311421 [Eh]
	 Correlation Energy        =      -1.3388912294085871 [Eh]
	 Total Energy              =    -343.1755750880263918 [Eh]

	 ================> DF-SCS-MP2 Energies <==================
	-----------------------------------------------------------
	 SCS Same-Spin Scale       =       0.3333333333333333 [-]
	 SCS Opposite-Spin Scale   =       1.2000000000000000 [-]
	 SCS Same-Spin Energy      =      -0.1090308969924817 [Eh]
	 SCS Opposite-Spin Energy  =      -1.2141582461173706 [Eh]
	 SCS Correlation Energy    =      -1.3231891431098521 [Eh]
	 SCS Total Energy          =    -343.1598730017276466 [Eh]
	-----------------------------------------------------------

  Dipole Moment: [D]
     X:     1.2355      Y:    -1.8603      Z:     0.3206     Total:     2.2561

*** Psi4 exiting successfully. Buy a developer a beer!
