                               Psi4 1.3.2 release

  ==> Input File <==

--------------------------------------------------------------------------
#psi4
#
memory 32 gb

molecule  {
0 1
  O       -1.4344650     1.0675660     0.2191520
  O        1.4226456    -1.0849232    -0.0036540
  O        1.2217538     1.1936824    -0.0668106
  C       -0.7273960    -0.1479950     0.3622400
  C       -1.3608000    -1.1844980    -0.5490290
  C        0.7386720     0.0808740     0.0596700
  H       -0.7692630    -0.5063940     1.4052130
  H       -1.2645370    -0.8668950    -1.5888250
  H       -2.4222350    -1.2600450    -0.3075440
  H       -0.8906180    -2.1601930    -0.4204410
  H       -0.7794970     1.7838810     0.3439450
  H        2.3720270    -0.8088230    -0.1742930
units angstrom
no_reorient  #important for SAPT in psi4, default
symmetry c1  #important for SAPT in psi4, default
}

set PROPERTIES_ORIGIN ["COM"]
properties('MP2/aug-cc-pvtz', properties = ['dipole'])
--------------------------------------------------------------------------

    Molecular point group: c1
  Charge       = 0
  Multiplicity = 1
  Basis Set: AUG-CC-PVTZ
    Blend: AUG-CC-PVTZ
  Basis Set: (AUG-CC-PVTZ AUX)
    Blend: AUG-CC-PVTZ-JKFIT

    Orbital Energies [Eh]
    ---------------------

    Doubly Occupied:

       1A    -20.638768     2A    -20.571919     3A    -20.565171
       4A    -11.403736     5A    -11.309169     6A    -11.230380
       7A     -1.478431     8A     -1.387106     9A     -1.361536
      10A     -1.051574    11A     -0.916447    12A     -0.807611
      13A     -0.738412    14A     -0.721482    15A     -0.690312
      16A     -0.639367    17A     -0.622277    18A     -0.583827
      19A     -0.560608    20A     -0.541231    21A     -0.533148
      22A     -0.501789    23A     -0.473611    24A     -0.453082

  @DF-RHF Final Energy:  -341.83410416582768

   => Energetics <=

    Nuclear Repulsion Energy =            249.7690758251963530
    One-Electron Energy =                -963.6443698413994525
    Two-Electron Energy =                 372.0411898503753605
    Total Energy =                       -341.8341041658276822
  Basis Set: (AUG-CC-PVTZ AUX)
    Blend: AUG-CC-PVTZ-RI
    Molecular point group: c1

    Geometry (in Angstrom), charge = 0, multiplicity = 1:

       Center              X                  Y                   Z               Mass
    ------------   -----------------  -----------------  -----------------  -----------------
         O           -1.427523114514     1.068149744477     0.217985038459    15.994914619570
         O            1.429587485486    -1.084339455523    -0.004820961541    15.994914619570
         O            1.228695685486     1.194266144477    -0.067977561541    15.994914619570
         C           -0.720454114514    -0.147411255523     0.361073038459    12.000000000000
         C           -1.353858114514    -1.183914255523    -0.550195961541    12.000000000000
         C            0.745613885486     0.081457744477     0.058503038459    12.000000000000
         H           -0.762321114514    -0.505810255523     1.404046038459     1.007825032230
         H           -1.257595114514    -0.866311255523    -1.589991961541     1.007825032230
         H           -2.415293114514    -1.259461255523    -0.308710961541     1.007825032230
         H           -0.883676114514    -2.159609255523    -0.421607961541     1.007825032230
         H           -0.772555114514     1.784464744477     0.342778038459     1.007825032230
         H            2.378968885486    -0.808239255523    -0.175459961541     1.007825032230

  Basis Set: AUG-CC-PVTZ
    Blend: AUG-CC-PVTZ
  Basis Set: (AUG-CC-PVTZ AUX)
    Blend: AUG-CC-PVTZ-JKFIT
	 Reference Energy          =    -341.8341041658276822 [Eh]
	 Singles Energy            =      -0.0000000000000000 [Eh]
	 Same-Spin Energy          =      -0.3276694310432678 [Eh]
	 Opposite-Spin Energy      =      -1.0128464856389594 [Eh]
	 Correlation Energy        =      -1.3405159166822274 [Eh]
	 Total Energy              =    -343.1746200825099322 [Eh]

	 ================> DF-SCS-MP2 Energies <==================
	-----------------------------------------------------------
	 SCS Same-Spin Scale       =       0.3333333333333333 [-]
	 SCS Opposite-Spin Scale   =       1.2000000000000000 [-]
	 SCS Same-Spin Energy      =      -0.1092231436810893 [Eh]
	 SCS Opposite-Spin Energy  =      -1.2154157827667513 [Eh]
	 SCS Correlation Energy    =      -1.3246389264478406 [Eh]
	 SCS Total Energy          =    -343.1587430922755289 [Eh]
	-----------------------------------------------------------

  Dipole Moment: [D]
     X:     1.3404      Y:    -1.8537      Z:     0.2944     Total:     2.3064

*** Psi4 exiting successfully. Buy a developer a beer!
