                               Psi4 1.3.2 release

  ==> Input File <==

--------------------------------------------------------------------------
#psi4
#
memory 32 gb

molecule  {
0 1
  O       -1.4344650     1.0675660     0.2191520
  O        1.5009688    -1.0343291    -0.0186787
  O        1.2974735     1.1563183    -0.0776927
  C       -0.7273960    -0.1479950     0.3622400
  C       -1.3608000    -1.1844980    -0.5490290
  C        0.7386720     0.0808740     0.0596700
  H       -0.7692630    -0.5063940     1.4052130
  H       -1.2645370    -0.8668950    -1.5888250
  H       -2.4222350    -1.2600450    -0.3075440
  H       -0.8906180    -2.1601930    -0.4204410
  H       -0.7794970     1.7838810     0.3439450
  H        2.3720270    -0.8088230    -0.1742930
units angstrom
no_reorient  #important for SAPT in psi4, default
symmetry c1  #important for SAPT in psi4, default
}

set PROPERTIES_ORIGIN ["COM"]
properties('MP2/aug-cc-pvtz', properties = ['dipole'])
--------------------------------------------------------------------------

    Molecular point group: c1
  Charge       = 0
  Multiplicity = 1
  Basis Set: AUG-CC-PVTZ
    Blend: AUG-CC-PVTZ
  Basis Set: (AUG-CC-PVTZ AUX)
    Blend: AUG-CC-PVTZ-JKFIT

    Orbital Energies [Eh]
    ---------------------

    Doubly Occupied:

       1A    -20.618790     2A    -20.572539     3A    -20.565941
       4A    -11.403289     5A    -11.318415     6A    -11.234761
       7A     -1.486865     8A     -1.386932     9A     -1.362606
      10A     -1.058680    11A     -0.925855    12A     -0.826281
      13A     -0.742457    14A     -0.720874    15A     -0.693524
      16A     -0.638493    17A     -0.619096    18A     -0.588811
      19A     -0.564045    20A     -0.545814    21A     -0.536452
      22A     -0.494956    23A     -0.475355    24A     -0.458371

  @DF-RHF Final Energy:  -341.83523495743236

   => Energetics <=

    Nuclear Repulsion Energy =            249.4228909122081745
    One-Electron Energy =                -962.8378414048914919
    Two-Electron Energy =                 371.5797155352510117
    Total Energy =                       -341.8352349574323625
  Basis Set: (AUG-CC-PVTZ AUX)
    Blend: AUG-CC-PVTZ-RI
    Molecular point group: c1

    Geometry (in Angstrom), charge = 0, multiplicity = 1:

       Center              X                  Y                   Z               Mass
    ------------   -----------------  -----------------  -----------------  -----------------
         O           -1.454890177405     1.065799319744     0.222587607125    15.994914619570
         O            1.480543622595    -1.036095780256    -0.015243092875    15.994914619570
         O            1.277048322595     1.154551619744    -0.074257092875    15.994914619570
         C           -0.747821177405    -0.149761680256     0.365675607125    12.000000000000
         C           -1.381225177405    -1.186264680256    -0.545593392875    12.000000000000
         C            0.718246822595     0.079107319744     0.063105607125    12.000000000000
         H           -0.789688177405    -0.508160680256     1.408648607125     1.007825032230
         H           -1.284962177405    -0.868661680256    -1.585389392875     1.007825032230
         H           -2.442660177405    -1.261811680256    -0.304108392875     1.007825032230
         H           -0.911043177405    -2.161959680256    -0.417005392875     1.007825032230
         H           -0.799922177405     1.782114319744     0.347380607125     1.007825032230
         H            2.351601822595    -0.810589680256    -0.170857392875     1.007825032230

  Basis Set: AUG-CC-PVTZ
    Blend: AUG-CC-PVTZ
  Basis Set: (AUG-CC-PVTZ AUX)
    Blend: AUG-CC-PVTZ-JKFIT
	 Reference Energy          =    -341.8352349574323625 [Eh]
	 Singles Energy            =      -0.0000000000000000 [Eh]
	 Same-Spin Energy          =      -0.3257440162185142 [Eh]
	 Opposite-Spin Energy      =      -1.0089500969075733 [Eh]
	 Correlation Energy        =      -1.3346941131260874 [Eh]
	 Total Energy              =    -343.1699290705584531 [Eh]

	 ================> DF-SCS-MP2 Energies <==================
	-----------------------------------------------------------
	 SCS Same-Spin Scale       =       0.3333333333333333 [-]
	 SCS Opposite-Spin Scale   =       1.2000000000000000 [-]
	 SCS Same-Spin Energy      =      -0.1085813387395047 [Eh]
	 SCS Opposite-Spin Energy  =      -1.2107401162890878 [Eh]
	 SCS Correlation Energy    =      -1.3193214550285925 [Eh]
	 SCS Total Energy          =    -343.1545564124609768 [Eh]
	-----------------------------------------------------------

  Dipole Moment: [D]
     X:     0.8651      Y:    -1.7979      Z:     0.3518     Total:     2.0260

*** Psi4 exiting successfully. Buy a developer a beer!
