                               Psi4 1.3.2 release

  ==> Input File <==

--------------------------------------------------------------------------
#psi4
#
memory 32 gb

molecule  {
0 1
  O       -1.4344650     1.0675660     0.2191520
  O        1.5005108    -1.0344610    -0.0212149
  O        1.2409190     1.1848430    -0.0695910
  C       -0.7380773    -0.0694835     0.3594850
  C       -1.3608000    -1.1844980    -0.5490290
  C        0.7386720     0.0808740     0.0596700
  H       -0.7692630    -0.5063940     1.4052130
  H       -1.2645370    -0.8668950    -1.5888250
  H       -2.4222350    -1.2600450    -0.3075440
  H       -0.8906180    -2.1601930    -0.4204410
  H       -0.7794970     1.7838810     0.3439450
  H        2.3720270    -0.8088230    -0.1742930
units angstrom
no_reorient  #important for SAPT in psi4, default
symmetry c1  #important for SAPT in psi4, default
}

set PROPERTIES_ORIGIN ["COM"]
properties('MP2/aug-cc-pvtz', properties = ['dipole'])
--------------------------------------------------------------------------

    Molecular point group: c1
  Charge       = 0
  Multiplicity = 1
  Basis Set: AUG-CC-PVTZ
    Blend: AUG-CC-PVTZ
  Basis Set: (AUG-CC-PVTZ AUX)
    Blend: AUG-CC-PVTZ-JKFIT

    Orbital Energies [Eh]
    ---------------------

    Doubly Occupied:

       1A    -20.624653     2A    -20.578081     3A    -20.564668
       4A    -11.401657     5A    -11.316479     6A    -11.232299
       7A     -1.486927     8A     -1.414059     9A     -1.371018
      10A     -1.044231    11A     -0.920213    12A     -0.829274
      13A     -0.757554    14A     -0.721899    15A     -0.694979
      16A     -0.638459    17A     -0.620596    18A     -0.605070
      19A     -0.561703    20A     -0.548357    21A     -0.531219
      22A     -0.497962    23A     -0.465751    24A     -0.447408

  @DF-RHF Final Energy:  -341.83093226496885

   => Energetics <=

    Nuclear Repulsion Energy =            250.1409530640240746
    One-Electron Energy =                -964.1947365850240885
    Two-Electron Energy =                 372.2228512560311628
    Total Energy =                       -341.8309322649688511
  Basis Set: (AUG-CC-PVTZ AUX)
    Blend: AUG-CC-PVTZ-RI
    Molecular point group: c1

    Geometry (in Angstrom), charge = 0, multiplicity = 1:

       Center              X                  Y                   Z               Mass
    ------------   -----------------  -----------------  -----------------  -----------------
         O           -1.443337738225     1.050290576668     0.221966051595    15.994914619570
         O            1.491638061775    -1.051736423332    -0.018400848405    15.994914619570
         O            1.232046261775     1.167567576668    -0.066776948405    15.994914619570
         C           -0.746950038225    -0.086758923332     0.362299051595    12.000000000000
         C           -1.369672738225    -1.201773423332    -0.546214948405    12.000000000000
         C            0.729799261775     0.063598576668     0.062484051595    12.000000000000
         H           -0.778135738225    -0.523669423332     1.408027051595     1.007825032230
         H           -1.273409738225    -0.884170423332    -1.586010948405     1.007825032230
         H           -2.431107738225    -1.277320423332    -0.304729948405     1.007825032230
         H           -0.899490738225    -2.177468423332    -0.417626948405     1.007825032230
         H           -0.788369738225     1.766605576668     0.346759051595     1.007825032230
         H            2.363154261775    -0.826098423332    -0.171478948405     1.007825032230

  Basis Set: AUG-CC-PVTZ
    Blend: AUG-CC-PVTZ
  Basis Set: (AUG-CC-PVTZ AUX)
    Blend: AUG-CC-PVTZ-JKFIT
	 Reference Energy          =    -341.8309322649688511 [Eh]
	 Singles Energy            =      -0.0000000000000000 [Eh]
	 Same-Spin Energy          =      -0.3258887678145300 [Eh]
	 Opposite-Spin Energy      =      -1.0081927894828793 [Eh]
	 Correlation Energy        =      -1.3340815572974094 [Eh]
	 Total Energy              =    -343.1650138222662463 [Eh]

	 ================> DF-SCS-MP2 Energies <==================
	-----------------------------------------------------------
	 SCS Same-Spin Scale       =       0.3333333333333333 [-]
	 SCS Opposite-Spin Scale   =       1.2000000000000000 [-]
	 SCS Same-Spin Energy      =      -0.1086295892715100 [Eh]
	 SCS Opposite-Spin Energy  =      -1.2098313473794551 [Eh]
	 SCS Correlation Energy    =      -1.3184609366509652 [Eh]
	 SCS Total Energy          =    -343.1493932016198301 [Eh]
	-----------------------------------------------------------

  Dipole Moment: [D]
     X:     0.9494      Y:    -1.5957      Z:     0.3272     Total:     1.8854

*** Psi4 exiting successfully. Buy a developer a beer!
