                               Psi4 1.3.2 release

  ==> Input File <==

--------------------------------------------------------------------------
#psi4
#
memory 32 gb

molecule  {
0 1
  O       -1.4344650     1.0675660     0.2191520
  O        1.4425540    -1.0727980    -0.0074420
  O        1.2409190     1.1848430    -0.0695910
  C       -0.7273960    -0.1479950     0.3622400
  C       -1.3608000    -1.1844980    -0.5490290
  C        0.5450498     0.0506475     0.0996301
  H       -0.7692630    -0.5063940     1.4052130
  H       -1.2645370    -0.8668950    -1.5888250
  H       -2.4222350    -1.2600450    -0.3075440
  H       -0.8906180    -2.1601930    -0.4204410
  H       -0.7794970     1.7838810     0.3439450
  H        2.3720270    -0.8088230    -0.1742930
units angstrom
no_reorient  #important for SAPT in psi4, default
symmetry c1  #important for SAPT in psi4, default
}

set PROPERTIES_ORIGIN ["COM"]
properties('MP2/aug-cc-pvtz', properties = ['dipole'])
--------------------------------------------------------------------------

    Molecular point group: c1
  Charge       = 0
  Multiplicity = 1
  Basis Set: AUG-CC-PVTZ
    Blend: AUG-CC-PVTZ
  Basis Set: (AUG-CC-PVTZ AUX)
    Blend: AUG-CC-PVTZ-JKFIT

    Orbital Energies [Eh]
    ---------------------

    Doubly Occupied:

       1A    -20.615561     2A    -20.580591     3A    -20.562397
       4A    -11.421293     5A    -11.316393     6A    -11.249013
       7A     -1.432267     8A     -1.389881     9A     -1.301514
      10A     -1.111403    11A     -0.958967    12A     -0.807622
      13A     -0.745737    14A     -0.721340    15A     -0.684161
      16A     -0.625536    17A     -0.592260    18A     -0.575703
      19A     -0.573846    20A     -0.552006    21A     -0.544578
      22A     -0.482276    23A     -0.462659    24A     -0.459788

  @DF-RHF Final Energy:  -341.76004630737611

   => Energetics <=

    Nuclear Repulsion Energy =            250.0434734126351941
    One-Electron Energy =                -964.0734539562383816
    Two-Electron Energy =                 372.2699342362270727
    Total Energy =                       -341.7600463073761148
  Basis Set: (AUG-CC-PVTZ AUX)
    Blend: AUG-CC-PVTZ-RI
    Molecular point group: c1

    Geometry (in Angstrom), charge = 0, multiplicity = 1:

       Center              X                  Y                   Z               Mass
    ------------   -----------------  -----------------  -----------------  -----------------
         O           -1.408657674716     1.071594774728     0.213825834228    15.994914619570
         O            1.468361325284    -1.068769225272    -0.012768165772    15.994914619570
         O            1.266726325284     1.188871774728    -0.074917165772    15.994914619570
         C           -0.701588674716    -0.143966225272     0.356913834228    12.000000000000
         C           -1.334992674716    -1.180469225272    -0.554355165772    12.000000000000
         C            0.570857125284     0.054676274728     0.094303934228    12.000000000000
         H           -0.743455674716    -0.502365225272     1.399886834228     1.007825032230
         H           -1.238729674716    -0.862866225272    -1.594151165772     1.007825032230
         H           -2.396427674716    -1.256016225272    -0.312870165772     1.007825032230
         H           -0.864810674716    -2.156164225272    -0.425767165772     1.007825032230
         H           -0.753689674716     1.787909774728     0.338618834228     1.007825032230
         H            2.397834325284    -0.804794225272    -0.179619165772     1.007825032230

  Basis Set: AUG-CC-PVTZ
    Blend: AUG-CC-PVTZ
  Basis Set: (AUG-CC-PVTZ AUX)
    Blend: AUG-CC-PVTZ-JKFIT
	 Reference Energy          =    -341.7600463073761148 [Eh]
	 Singles Energy            =      -0.0000000000000000 [Eh]
	 Same-Spin Energy          =      -0.3330687703793112 [Eh]
	 Opposite-Spin Energy      =      -1.0232263255481839 [Eh]
	 Correlation Energy        =      -1.3562950959274951 [Eh]
	 Total Energy              =    -343.1163414033036361 [Eh]

	 ================> DF-SCS-MP2 Energies <==================
	-----------------------------------------------------------
	 SCS Same-Spin Scale       =       0.3333333333333333 [-]
	 SCS Opposite-Spin Scale   =       1.2000000000000000 [-]
	 SCS Same-Spin Energy      =      -0.1110229234597704 [Eh]
	 SCS Opposite-Spin Energy  =      -1.2278715906578206 [Eh]
	 SCS Correlation Energy    =      -1.3388945141175910 [Eh]
	 SCS Total Energy          =    -343.0989408214937271 [Eh]
	-----------------------------------------------------------

  Dipole Moment: [D]
     X:     0.1123      Y:    -1.9327      Z:     0.4568     Total:     1.9891

*** Psi4 exiting successfully. Buy a developer a beer!
