                               Psi4 1.3.2 release

  ==> Input File <==

--------------------------------------------------------------------------
#psi4
#
memory 32 gb

molecule  {
0 1
  O       -1.4344650     1.0675660     0.2191520
  O        1.4523518    -1.0666254    -0.0097513
  O        1.2409190     1.1848430    -0.0695910
  C       -0.7294562    -0.1349475     0.3618383
  C       -1.3608000    -1.1844980    -0.5490290
  C        0.7386720     0.0808740     0.0596700
  H       -0.7692630    -0.5063940     1.4052130
  H       -1.2645370    -0.8668950    -1.5888250
  H       -2.4222350    -1.2600450    -0.3075440
  H       -0.8906180    -2.1601930    -0.4204410
  H       -0.7794970     1.7838810     0.3439450
  H        2.3720270    -0.8088230    -0.1742930
units angstrom
no_reorient  #important for SAPT in psi4, default
symmetry c1  #important for SAPT in psi4, default
}

set PROPERTIES_ORIGIN ["COM"]
properties('MP2/aug-cc-pvtz', properties = ['dipole'])
--------------------------------------------------------------------------

    Molecular point group: c1
  Charge       = 0
  Multiplicity = 1
  Basis Set: AUG-CC-PVTZ
    Blend: AUG-CC-PVTZ
  Basis Set: (AUG-CC-PVTZ AUX)
    Blend: AUG-CC-PVTZ-JKFIT

    Orbital Energies [Eh]
    ---------------------

    Doubly Occupied:

       1A    -20.632562     2A    -20.569495     3A    -20.568862
       4A    -11.403104     5A    -11.312146     6A    -11.231619
       7A     -1.481161     8A     -1.389634     9A     -1.364772
      10A     -1.051778    11A     -0.918761    12A     -0.814611
      13A     -0.740957    14A     -0.722578    15A     -0.691837
      16A     -0.639209    17A     -0.621305    18A     -0.587452
      19A     -0.561626    20A     -0.543615    21A     -0.534085
      22A     -0.499706    23A     -0.473149    24A     -0.453843

  @DF-RHF Final Energy:  -341.83779693651013

   => Energetics <=

    Nuclear Repulsion Energy =            249.7200256060550032
    One-Electron Energy =                -963.4999182850225452
    Two-Electron Energy =                 371.9420957424574681
    Total Energy =                       -341.8377969365101308
  Basis Set: (AUG-CC-PVTZ AUX)
    Blend: AUG-CC-PVTZ-RI
    Molecular point group: c1

    Geometry (in Angstrom), charge = 0, multiplicity = 1:

       Center              X                  Y                   Z               Mass
    ------------   -----------------  -----------------  -----------------  -----------------
         O           -1.435930947759     1.064730323087     0.219615780333    15.994914619570
         O            1.450885852241    -1.069461076913    -0.009287519667    15.994914619570
         O            1.239453052241     1.182007323087    -0.069127219667    15.994914619570
         C           -0.730922147759    -0.137783176913     0.362302080333    12.000000000000
         C           -1.362265947759    -1.187333676913    -0.548565219667    12.000000000000
         C            0.737206052241     0.078038323087     0.060133780333    12.000000000000
         H           -0.770728947759    -0.509229676913     1.405676780333     1.007825032230
         H           -1.266002947759    -0.869730676913    -1.588361219667     1.007825032230
         H           -2.423700947759    -1.262880676913    -0.307080219667     1.007825032230
         H           -0.892083947759    -2.163028676913    -0.419977219667     1.007825032230
         H           -0.780962947759     1.781045323087     0.344408780333     1.007825032230
         H            2.370561052241    -0.811658676913    -0.173829219667     1.007825032230

  Basis Set: AUG-CC-PVTZ
    Blend: AUG-CC-PVTZ
  Basis Set: (AUG-CC-PVTZ AUX)
    Blend: AUG-CC-PVTZ-JKFIT
	 Reference Energy          =    -341.8377969365101308 [Eh]
	 Singles Energy            =      -0.0000000000000000 [Eh]
	 Same-Spin Energy          =      -0.3268735724421781 [Eh]
	 Opposite-Spin Energy      =      -1.0110459182069711 [Eh]
	 Correlation Energy        =      -1.3379194906491492 [Eh]
	 Total Energy              =    -343.1757164271592728 [Eh]

	 ================> DF-SCS-MP2 Energies <==================
	-----------------------------------------------------------
	 SCS Same-Spin Scale       =       0.3333333333333333 [-]
	 SCS Opposite-Spin Scale   =       1.2000000000000000 [-]
	 SCS Same-Spin Energy      =      -0.1089578574807260 [Eh]
	 SCS Opposite-Spin Energy  =      -1.2132551018483653 [Eh]
	 SCS Correlation Energy    =      -1.3222129593290912 [Eh]
	 SCS Total Energy          =    -343.1600098958392095 [Eh]
	-----------------------------------------------------------

  Dipole Moment: [D]
     X:     1.1799      Y:    -1.8018      Z:     0.3125     Total:     2.1764

*** Psi4 exiting successfully. Buy a developer a beer!
