                               Psi4 1.3.2 release

  ==> Input File <==

--------------------------------------------------------------------------
#psi4
#
memory 32 gb

molecule  {
0 1
  O       -1.4344650     1.0675660     0.2191520
  O        1.4425540    -1.0727980    -0.0074420
  O        1.2409190     1.1848430    -0.0695910
  C       -0.7339216    -0.1628008     0.3832309
  C       -1.3608000    -1.1844980    -0.5490290
  C        0.7386720     0.0808740     0.0596700
  H       -0.7692630    -0.5063940     1.4052130
  H       -1.2735885    -0.8827288    -1.5943249
  H       -2.4222350    -1.2600450    -0.3075440
  H       -0.8906180    -2.1601930    -0.4204410
  H       -0.7794970     1.7838810     0.3439450
  H        2.3720270    -0.8088230    -0.1742930
units angstrom
no_reorient  #important for SAPT in psi4, default
symmetry c1  #important for SAPT in psi4, default
}

set PROPERTIES_ORIGIN ["COM"]
properties('MP2/aug-cc-pvtz', properties = ['dipole'])
--------------------------------------------------------------------------

    Molecular point group: c1
  Charge       = 0
  Multiplicity = 1
  Basis Set: AUG-CC-PVTZ
    Blend: AUG-CC-PVTZ
  Basis Set: (AUG-CC-PVTZ AUX)
    Blend: AUG-CC-PVTZ-JKFIT

    Orbital Energies [Eh]
    ---------------------

    Doubly Occupied:

       1A    -20.633815     2A    -20.570754     3A    -20.565428
       4A    -11.403732     5A    -11.311343     6A    -11.231537
       7A     -1.479786     8A     -1.384317     9A     -1.359000
      10A     -1.052997    11A     -0.917226    12A     -0.813723
      13A     -0.736045    14A     -0.721734    15A     -0.692067
      16A     -0.639073    17A     -0.621591    18A     -0.583141
      19A     -0.561749    20A     -0.541686    21A     -0.531738
      22A     -0.500045    23A     -0.474376    24A     -0.456865

  @DF-RHF Final Energy:  -341.83602761281952

   => Energetics <=

    Nuclear Repulsion Energy =            249.3246970520448542
    One-Electron Energy =                -962.7539135012040106
    Two-Electron Energy =                 371.5931888363396638
    Total Energy =                       -341.8360276128195210
  Basis Set: (AUG-CC-PVTZ AUX)
    Blend: AUG-CC-PVTZ-RI
    Molecular point group: c1

    Geometry (in Angstrom), charge = 0, multiplicity = 1:

       Center              X                  Y                   Z               Mass
    ------------   -----------------  -----------------  -----------------  -----------------
         O           -1.433493782658     1.069716650565     0.216415737032    15.994914619570
         O            1.443525217342    -1.070647349435    -0.010178262968    15.994914619570
         O            1.241890217342     1.186993650565    -0.072327262968    15.994914619570
         C           -0.732950382658    -0.160650149435     0.380494637032    12.000000000000
         C           -1.359828782658    -1.182347349435    -0.551765262968    12.000000000000
         C            0.739643217342     0.083024650565     0.056933737032    12.000000000000
         H           -0.768291782658    -0.504243349435     1.402476737032     1.007825032230
         H           -1.272617282658    -0.880578149435    -1.597061162968     1.007825032230
         H           -2.421263782658    -1.257894349435    -0.310280262968     1.007825032230
         H           -0.889646782658    -2.158042349435    -0.423177262968     1.007825032230
         H           -0.778525782658     1.786031650565     0.341208737032     1.007825032230
         H            2.372998217342    -0.806672349435    -0.177029262968     1.007825032230

  Basis Set: AUG-CC-PVTZ
    Blend: AUG-CC-PVTZ
  Basis Set: (AUG-CC-PVTZ AUX)
    Blend: AUG-CC-PVTZ-JKFIT
	 Reference Energy          =    -341.8360276128195210 [Eh]
	 Singles Energy            =      -0.0000000000000000 [Eh]
	 Same-Spin Energy          =      -0.3270591456781990 [Eh]
	 Opposite-Spin Energy      =      -1.0118717825841528 [Eh]
	 Correlation Energy        =      -1.3389309282623518 [Eh]
	 Total Energy              =    -343.1749585410818781 [Eh]

	 ================> DF-SCS-MP2 Energies <==================
	-----------------------------------------------------------
	 SCS Same-Spin Scale       =       0.3333333333333333 [-]
	 SCS Opposite-Spin Scale   =       1.2000000000000000 [-]
	 SCS Same-Spin Energy      =      -0.1090197152260663 [Eh]
	 SCS Opposite-Spin Energy  =      -1.2142461391009833 [Eh]
	 SCS Correlation Energy    =      -1.3232658543270497 [Eh]
	 SCS Total Energy          =    -343.1592934671465969 [Eh]
	-----------------------------------------------------------

  Dipole Moment: [D]
     X:     1.2465      Y:    -1.8795      Z:     0.3321     Total:     2.2796

*** Psi4 exiting successfully. Buy a developer a beer!
