                               Psi4 1.3.2 release

  ==> Input File <==

--------------------------------------------------------------------------
#psi4
#
memory 32 gb

molecule  {
0 1
  O       -1.4344650     1.0675660     0.2191520
  O        1.4425540    -1.0727980    -0.0074420
  O        1.2409190     1.1848430    -0.0695910
  C       -0.7273960    -0.1479950     0.3622400
  C       -1.3608000    -1.1844980    -0.5490290
  C        0.7288034     0.0746808     0.0615899
  H       -0.7692630    -0.5063940     1.4052130
  H       -1.2645370    -0.8668950    -1.5888250
  H       -2.4222350    -1.2600450    -0.3075440
  H       -0.8906180    -2.1601930    -0.4204410
  H       -0.7794970     1.7838810     0.3439450
  H        2.3743244    -0.8170655    -0.1743161
units angstrom
no_reorient  #important for SAPT in psi4, default
symmetry c1  #important for SAPT in psi4, default
}

set PROPERTIES_ORIGIN ["COM"]
properties('MP2/aug-cc-pvtz', properties = ['dipole'])
--------------------------------------------------------------------------

    Molecular point group: c1
  Charge       = 0
  Multiplicity = 1
  Basis Set: AUG-CC-PVTZ
    Blend: AUG-CC-PVTZ
  Basis Set: (AUG-CC-PVTZ AUX)
    Blend: AUG-CC-PVTZ-JKFIT

    Orbital Energies [Eh]
    ---------------------

    Doubly Occupied:

       1A    -20.634108     2A    -20.569026     3A    -20.567603
       4A    -11.404665     5A    -11.312051     6A    -11.232287
       7A     -1.477938     8A     -1.384795     9A     -1.359135
      10A     -1.055932    11A     -0.921063    12A     -0.813472
      13A     -0.738621    14A     -0.721187    15A     -0.691538
      16A     -0.637699    17A     -0.619462    18A     -0.585555
      19A     -0.561901    20A     -0.543059    21A     -0.533445
      22A     -0.496914    23A     -0.474485    24A     -0.456053

  @DF-RHF Final Energy:  -341.83576278633927

   => Energetics <=

    Nuclear Repulsion Energy =            249.6357819930848905
    One-Electron Energy =                -963.3591035510276015
    Two-Electron Energy =                 371.8875587716033806
    Total Energy =                       -341.8357627863392736
  Basis Set: (AUG-CC-PVTZ AUX)
    Blend: AUG-CC-PVTZ-RI
    Molecular point group: c1

    Geometry (in Angstrom), charge = 0, multiplicity = 1:

       Center              X                  Y                   Z               Mass
    ------------   -----------------  -----------------  -----------------  -----------------
         O           -1.433175247116     1.068483730277     0.218896333962    15.994914619570
         O            1.443843752884    -1.071880269723    -0.007697666038    15.994914619570
         O            1.242208752884     1.185760730277    -0.069846666038    15.994914619570
         C           -0.726106247116    -0.147077269723     0.361984333962    12.000000000000
         C           -1.359510247116    -1.183580269723    -0.549284666038    12.000000000000
         C            0.730093152884     0.075598530277     0.061334233962    12.000000000000
         H           -0.767973247116    -0.505476269723     1.404957333962     1.007825032230
         H           -1.263247247116    -0.865977269723    -1.589080666038     1.007825032230
         H           -2.420945247116    -1.259127269723    -0.307799666038     1.007825032230
         H           -0.889328247116    -2.159275269723    -0.420696666038     1.007825032230
         H           -0.778207247116     1.784798730277     0.343689333962     1.007825032230
         H            2.375614152884    -0.816147769723    -0.174571766038     1.007825032230

  Basis Set: AUG-CC-PVTZ
    Blend: AUG-CC-PVTZ
  Basis Set: (AUG-CC-PVTZ AUX)
    Blend: AUG-CC-PVTZ-JKFIT
	 Reference Energy          =    -341.8357627863392736 [Eh]
	 Singles Energy            =      -0.0000000000000000 [Eh]
	 Same-Spin Energy          =      -0.3273757030602228 [Eh]
	 Opposite-Spin Energy      =      -1.0121934363024283 [Eh]
	 Correlation Energy        =      -1.3395691393626512 [Eh]
	 Total Energy              =    -343.1753319257019257 [Eh]

	 ================> DF-SCS-MP2 Energies <==================
	-----------------------------------------------------------
	 SCS Same-Spin Scale       =       0.3333333333333333 [-]
	 SCS Opposite-Spin Scale   =       1.2000000000000000 [-]
	 SCS Same-Spin Energy      =      -0.1091252343534076 [Eh]
	 SCS Opposite-Spin Energy  =      -1.2146321235629138 [Eh]
	 SCS Correlation Energy    =      -1.3237573579163215 [Eh]
	 SCS Total Energy          =    -343.1595201442556231 [Eh]
	-----------------------------------------------------------

  Dipole Moment: [D]
     X:     1.1822      Y:    -1.8944      Z:     0.3158     Total:     2.2552

*** Psi4 exiting successfully. Buy a developer a beer!
