                               Psi4 1.3.2 release

  ==> Input File <==

--------------------------------------------------------------------------
#psi4
#
memory 32 gb

molecule  {
0 1
  O       -1.4344650     1.0675660     0.2191520
  O        1.4327026    -1.0788828    -0.0051276
  O        1.2409190     1.1848430    -0.0695910
  C       -0.7252241    -0.1610250     0.3626187
  C       -1.3608000    -1.1844980    -0.5490290
  C        0.7386720     0.0808740     0.0596700
  H       -0.7692630    -0.5063940     1.4052130
  H       -1.2645370    -0.8668950    -1.5888250
  H       -2.4222350    -1.2600450    -0.3075440
  H       -0.8906180    -2.1601930    -0.4204410
  H       -0.7794970     1.7838810     0.3439450
  H        2.3720270    -0.8088230    -0.1742930
units angstrom
no_reorient  #important for SAPT in psi4, default
symmetry c1  #important for SAPT in psi4, default
}

set PROPERTIES_ORIGIN ["COM"]
properties('MP2/aug-cc-pvtz', properties = ['dipole'])
--------------------------------------------------------------------------

    Molecular point group: c1
  Charge       = 0
  Multiplicity = 1
  Basis Set: AUG-CC-PVTZ
    Blend: AUG-CC-PVTZ
  Basis Set: (AUG-CC-PVTZ AUX)
    Blend: AUG-CC-PVTZ-JKFIT

    Orbital Energies [Eh]
    ---------------------

    Doubly Occupied:

       1A    -20.635541     2A    -20.571463     3A    -20.565194
       4A    -11.403927     5A    -11.310909     6A    -11.231333
       7A     -1.479359     8A     -1.384436     9A     -1.358998
      10A     -1.054903    11A     -0.918530    12A     -0.809389
      13A     -0.736751    14A     -0.721491    15A     -0.690376
      16A     -0.639216    17A     -0.621830    18A     -0.583311
      19A     -0.561179    20A     -0.540987    21A     -0.533838
      22A     -0.500714    23A     -0.475310    24A     -0.455236

  @DF-RHF Final Energy:  -341.83531285259016

   => Energetics <=

    Nuclear Repulsion Energy =            249.5899164705008957
    One-Electron Energy =                -963.2820163040671559
    Two-Electron Energy =                 371.8567869809761532
    Total Energy =                       -341.8353128525901639
  Basis Set: (AUG-CC-PVTZ AUX)
    Blend: AUG-CC-PVTZ-RI
    Molecular point group: c1

    Geometry (in Angstrom), charge = 0, multiplicity = 1:

       Center              X                  Y                   Z               Mass
    ------------   -----------------  -----------------  -----------------  -----------------
         O           -1.433004177591     1.070383732942     0.218690323053    15.994914619570
         O            1.434163422409    -1.076065067058    -0.005589276947    15.994914619570
         O            1.242379822409     1.187660732942    -0.070052676947    15.994914619570
         C           -0.723763277591    -0.158207267058     0.362157023053    12.000000000000
         C           -1.359339177591    -1.181680267058    -0.549490676947    12.000000000000
         C            0.740132822409     0.083691732942     0.059208323053    12.000000000000
         H           -0.767802177591    -0.503576267058     1.404751323053     1.007825032230
         H           -1.263076177591    -0.864077267058    -1.589286676947     1.007825032230
         H           -2.420774177591    -1.257227267058    -0.308005676947     1.007825032230
         H           -0.889157177591    -2.157375267058    -0.420902676947     1.007825032230
         H           -0.778036177591     1.786698732942     0.343483323053     1.007825032230
         H            2.373487822409    -0.806005267058    -0.174754676947     1.007825032230

  Basis Set: AUG-CC-PVTZ
    Blend: AUG-CC-PVTZ
  Basis Set: (AUG-CC-PVTZ AUX)
    Blend: AUG-CC-PVTZ-JKFIT
	 Reference Energy          =    -341.8353128525901639 [Eh]
	 Singles Energy            =      -0.0000000000000000 [Eh]
	 Same-Spin Energy          =      -0.3274234725486205 [Eh]
	 Opposite-Spin Energy      =      -1.0125041755705739 [Eh]
	 Correlation Energy        =      -1.3399276481191944 [Eh]
	 Total Energy              =    -343.1752405007093785 [Eh]

	 ================> DF-SCS-MP2 Energies <==================
	-----------------------------------------------------------
	 SCS Same-Spin Scale       =       0.3333333333333333 [-]
	 SCS Opposite-Spin Scale   =       1.2000000000000000 [-]
	 SCS Same-Spin Energy      =      -0.1091411575162068 [Eh]
	 SCS Opposite-Spin Energy  =      -1.2150050106846886 [Eh]
	 SCS Correlation Energy    =      -1.3241461682008955 [Eh]
	 SCS Total Energy          =    -343.1594590207910755 [Eh]
	-----------------------------------------------------------

  Dipole Moment: [D]
     X:     1.2672      Y:    -1.8799      Z:     0.3042     Total:     2.2874

*** Psi4 exiting successfully. Buy a developer a beer!
