                               Psi4 1.3.2 release

  ==> Input File <==

--------------------------------------------------------------------------
#psi4
#
memory 32 gb

molecule  {
0 1
  O       -1.4449207     1.0617821     0.2222148
  O        1.4425540    -1.0727980    -0.0074420
  O        1.2409190     1.1848430    -0.0695910
  C       -0.7273960    -0.1479950     0.3622400
  C       -1.3608000    -1.1844980    -0.5490290
  C        0.7410950     0.0681002     0.0620367
  H       -0.7692630    -0.5063940     1.4052130
  H       -1.2645370    -0.8668950    -1.5888250
  H       -2.4222350    -1.2600450    -0.3075440
  H       -0.8906180    -2.1601930    -0.4204410
  H       -0.7794970     1.7838810     0.3439450
  H        2.3720270    -0.8088230    -0.1742930
units angstrom
no_reorient  #important for SAPT in psi4, default
symmetry c1  #important for SAPT in psi4, default
}

set PROPERTIES_ORIGIN ["COM"]
properties('MP2/aug-cc-pvtz', properties = ['dipole'])
--------------------------------------------------------------------------

    Molecular point group: c1
  Charge       = 0
  Multiplicity = 1
  Basis Set: AUG-CC-PVTZ
    Blend: AUG-CC-PVTZ
  Basis Set: (AUG-CC-PVTZ AUX)
    Blend: AUG-CC-PVTZ-JKFIT

    Orbital Energies [Eh]
    ---------------------

    Doubly Occupied:

       1A    -20.637847     2A    -20.568297     3A    -20.568069
       4A    -11.404608     5A    -11.311251     6A    -11.231291
       7A     -1.483442     8A     -1.384296     9A     -1.358390
      10A     -1.053207    11A     -0.919767    12A     -0.814542
      13A     -0.738471    14A     -0.722326    15A     -0.690370
      16A     -0.639869    17A     -0.621160    18A     -0.585309
      19A     -0.560788    20A     -0.542320    21A     -0.532577
      22A     -0.497244    23A     -0.473410    24A     -0.454234

  @DF-RHF Final Energy:  -341.83518079077953

   => Energetics <=

    Nuclear Repulsion Energy =            249.5066982833849352
    One-Electron Energy =                -963.0975915160240675
    Two-Electron Energy =                 371.7557124418596004
    Total Energy =                       -341.8351807907795319
  Basis Set: (AUG-CC-PVTZ AUX)
    Blend: AUG-CC-PVTZ-RI
    Molecular point group: c1

    Geometry (in Angstrom), charge = 0, multiplicity = 1:

       Center              X                  Y                   Z               Mass
    ------------   -----------------  -----------------  -----------------  -----------------
         O           -1.443385986647     1.064512227462     0.221355189919    15.994914619570
         O            1.444088713353    -1.070067872538    -0.008301610081    15.994914619570
         O            1.242453713353     1.187573127462    -0.070450610081    15.994914619570
         C           -0.725861286647    -0.145264872538     0.361380389919    12.000000000000
         C           -1.359265286647    -1.181767872538    -0.549888610081    12.000000000000
         C            0.742629713353     0.070830327462     0.061177089919    12.000000000000
         H           -0.767728286647    -0.503663872538     1.404353389919     1.007825032230
         H           -1.263002286647    -0.864164872538    -1.589684610081     1.007825032230
         H           -2.420700286647    -1.257314872538    -0.308403610081     1.007825032230
         H           -0.889083286647    -2.157462872538    -0.421300610081     1.007825032230
         H           -0.777962286647     1.786611127462     0.343085389919     1.007825032230
         H            2.373561713353    -0.806092872538    -0.175152610081     1.007825032230

  Basis Set: AUG-CC-PVTZ
    Blend: AUG-CC-PVTZ
  Basis Set: (AUG-CC-PVTZ AUX)
    Blend: AUG-CC-PVTZ-JKFIT
	 Reference Energy          =    -341.8351807907795319 [Eh]
	 Singles Energy            =      -0.0000000000000000 [Eh]
	 Same-Spin Energy          =      -0.3274753136101463 [Eh]
	 Opposite-Spin Energy      =      -1.0123706959448060 [Eh]
	 Correlation Energy        =      -1.3398460095549523 [Eh]
	 Total Energy              =    -343.1750268003344786 [Eh]

	 ================> DF-SCS-MP2 Energies <==================
	-----------------------------------------------------------
	 SCS Same-Spin Scale       =       0.3333333333333333 [-]
	 SCS Opposite-Spin Scale   =       1.2000000000000000 [-]
	 SCS Same-Spin Energy      =      -0.1091584378700488 [Eh]
	 SCS Opposite-Spin Energy  =      -1.2148448351337671 [Eh]
	 SCS Correlation Energy    =      -1.3240032730038158 [Eh]
	 SCS Total Energy          =    -343.1591840637833570 [Eh]
	-----------------------------------------------------------

  Dipole Moment: [D]
     X:     1.2706      Y:    -1.9294      Z:     0.3036     Total:     2.3300

*** Psi4 exiting successfully. Buy a developer a beer!
