                               Psi4 1.4a3.dev225

  ==> Input File <==

--------------------------------------------------------------------------
#psi4
#
memory 32 gb

molecule  {
0 1
  O       -1.3959680    -1.1167090    -0.2833280
  O        1.5522570     0.9331460    -0.3210200
  O        1.1768320    -1.1502310     0.4959580
  C       -0.6816250     0.0987340    -0.4130150
  C       -1.3126822     1.2239742     0.4936452
  C        0.7675010    -0.1293310    -0.0365160
  H       -0.7109810     0.4129130    -1.4639800
  H       -1.2242180     0.8953450     1.5161010
  H       -2.3476110     1.2964270     0.2055410
  H       -0.7844450     2.1448300     0.3211210
  H       -0.8100540    -1.7212800     0.2125920
  H        2.4531110     0.6959320    -0.0164550
units angstrom
no_reorient  #important for SAPT in psi4, default
symmetry c1  #important for SAPT in psi4, default
}

set PROPERTIES_ORIGIN ["COM"]
properties('MP2/aug-cc-pvtz', properties = ['dipole'])
--------------------------------------------------------------------------

    Molecular point group: c1
  Charge       = 0
  Multiplicity = 1
  Basis Set: AUG-CC-PVTZ
    Blend: AUG-CC-PVTZ
  Basis Set: (AUG-CC-PVTZ AUX)
    Blend: AUG-CC-PVTZ-JKFIT

    Orbital Energies [Eh]
    ---------------------

    Doubly Occupied:

       1A    -20.635590     2A    -20.571813     3A    -20.564826
       4A    -11.405106     5A    -11.312744     6A    -11.234033
       7A     -1.481381     8A     -1.386815     9A     -1.360206
      10A     -1.046054    11A     -0.922368    12A     -0.814433
      13A     -0.742937    14A     -0.725706    15A     -0.668354
      16A     -0.641508    17A     -0.625599    18A     -0.585108
      19A     -0.573505    20A     -0.551779    21A     -0.534100
      22A     -0.501555    23A     -0.470400    24A     -0.449799

  @DF-RHF Final Energy:  -341.83537792470560

   => Energetics <=

    Nuclear Repulsion Energy =            248.7931718691131948
    One-Electron Energy =                -961.6456581897548404
    Two-Electron Energy =                 371.0171083959360772
    Total Energy =                       -341.8353779247055968
  Basis Set: (AUG-CC-PVTZ AUX)
    Blend: AUG-CC-PVTZ-RI
    Molecular point group: c1

    Geometry (in Angstrom), charge = 0, multiplicity = 1:

       Center              X                  Y                   Z               Mass
    ------------   -----------------  -----------------  -----------------  -----------------
         O           -1.430961118213    -1.080498573687    -0.278625937842    15.994914619570
         O            1.517263881787     0.969356426313    -0.316317937842    15.994914619570
         O            1.141838881787    -1.114020573687     0.500660062158    15.994914619570
         C           -0.716618118213     0.134944426313    -0.408312937842    12.000000000000
         C           -1.347675318213     1.260184626313     0.498347262158    12.000000000000
         C            0.732507881787    -0.093120573687    -0.031813937842    12.000000000000
         H           -0.745974118213     0.449123426313    -1.459277937842     1.007825032230
         H           -1.259211118213     0.931555426313     1.520803062158     1.007825032230
         H           -2.382604118213     1.332637426313     0.210243062158     1.007825032230
         H           -0.819438118213     2.181040426313     0.325823062158     1.007825032230
         H           -0.845047118213    -1.685069573687     0.217294062158     1.007825032230
         H            2.418117881787     0.732142426313    -0.011752937842     1.007825032230

  Basis Set: AUG-CC-PVTZ
    Blend: AUG-CC-PVTZ
  Basis Set: (AUG-CC-PVTZ AUX)
    Blend: AUG-CC-PVTZ-JKFIT
	 Reference Energy          =    -341.8353779247055968 [Eh]
	 Singles Energy            =      -0.0000000000000000 [Eh]
	 Same-Spin Energy          =      -0.3270201781284774 [Eh]
	 Opposite-Spin Energy      =      -1.0116941800726269 [Eh]
	 Correlation Energy        =      -1.3387143582011043 [Eh]
	 Total Energy              =    -343.1740922829067131 [Eh]

	 ================> DF-SCS-MP2 Energies <==================
	-----------------------------------------------------------
	 SCS Same-Spin Scale       =       0.3333333333333333 [-]
	 SCS Opposite-Spin Scale   =       1.2000000000000000 [-]
	 SCS Same-Spin Energy      =      -0.1090067260428258 [Eh]
	 SCS Opposite-Spin Energy  =      -1.2140330160871522 [Eh]
	 SCS Correlation Energy    =      -1.3230397421299780 [Eh]
	 SCS Total Energy          =    -343.1584176668355894 [Eh]
	-----------------------------------------------------------

  Dipole Moment: [D]
     X:     1.2898      Y:     1.9497      Z:     0.0546     Total:     2.3384

*** Psi4 exiting successfully. Buy a developer a beer!
