                               Psi4 1.3.2 release

  ==> Input File <==

--------------------------------------------------------------------------
#psi4
#
memory 32 gb

molecule  {
0 1
  O       -1.4759567     1.0438793     0.2314663
  O        1.4425540    -1.0727980    -0.0074420
  O        1.2409190     1.1848430    -0.0695910
  C       -0.7273960    -0.1479950     0.3622400
  C       -1.3608000    -1.1844980    -0.5490290
  C        0.7476924     0.0296839     0.0692732
  H       -0.7692630    -0.5063940     1.4052130
  H       -1.2645370    -0.8668950    -1.5888250
  H       -2.4222350    -1.2600450    -0.3075440
  H       -0.8906180    -2.1601930    -0.4204410
  H       -0.7794970     1.7838810     0.3439450
  H        2.3720270    -0.8088230    -0.1742930
units angstrom
no_reorient  #important for SAPT in psi4, default
symmetry c1  #important for SAPT in psi4, default
}

set PROPERTIES_ORIGIN ["COM"]
properties('MP2/aug-cc-pvtz', properties = ['dipole'])
--------------------------------------------------------------------------

    Molecular point group: c1
  Charge       = 0
  Multiplicity = 1
  Basis Set: AUG-CC-PVTZ
    Blend: AUG-CC-PVTZ
  Basis Set: (AUG-CC-PVTZ AUX)
    Blend: AUG-CC-PVTZ-JKFIT

    Orbital Energies [Eh]
    ---------------------

    Doubly Occupied:

       1A    -20.648909     2A    -20.571094     3A    -20.561539
       4A    -11.407805     5A    -11.310835     6A    -11.230813
       7A     -1.498427     8A     -1.375429     9A     -1.344921
      10A     -1.053169    11A     -0.923932    12A     -0.823448
      13A     -0.739105    14A     -0.723280    15A     -0.689111
      16A     -0.643254    17A     -0.618131    18A     -0.585880
      19A     -0.558889    20A     -0.542676    21A     -0.526456
      22A     -0.487634    23A     -0.469781    24A     -0.452573

  @DF-RHF Final Energy:  -341.82542416968528

   => Energetics <=

    Nuclear Repulsion Energy =            249.1127459293562083
    One-Electron Energy =                -962.3021527287743311
    Two-Electron Energy =                 371.3639826297327886
    Total Energy =                       -341.8254241696852773
  Basis Set: (AUG-CC-PVTZ AUX)
    Blend: AUG-CC-PVTZ-RI
    Molecular point group: c1

    Geometry (in Angstrom), charge = 0, multiplicity = 1:

       Center              X                  Y                   Z               Mass
    ------------   -----------------  -----------------  -----------------  -----------------
         O           -1.469787514592     1.054910385978     0.227998553362    15.994914619570
         O            1.448723185408    -1.061766914022    -0.010909746638    15.994914619570
         O            1.247088185408     1.195874085978    -0.073058746638    15.994914619570
         C           -0.721226814592    -0.136963914022     0.358772253362    12.000000000000
         C           -1.354630814592    -1.173466914022    -0.552496746638    12.000000000000
         C            0.753861585408     0.040714985978     0.065805453362    12.000000000000
         H           -0.763093814592    -0.495362914022     1.401745253362     1.007825032230
         H           -1.258367814592    -0.855863914022    -1.592292746638     1.007825032230
         H           -2.416065814592    -1.249013914022    -0.311011746638     1.007825032230
         H           -0.884448814592    -2.149161914022    -0.423908746638     1.007825032230
         H           -0.773327814592     1.794912085978     0.340477253362     1.007825032230
         H            2.378196185408    -0.797791914022    -0.177760746638     1.007825032230

  Basis Set: AUG-CC-PVTZ
    Blend: AUG-CC-PVTZ
  Basis Set: (AUG-CC-PVTZ AUX)
    Blend: AUG-CC-PVTZ-JKFIT
	 Reference Energy          =    -341.8254241696852773 [Eh]
	 Singles Energy            =      -0.0000000000000000 [Eh]
	 Same-Spin Energy          =      -0.3285591966413630 [Eh]
	 Opposite-Spin Energy      =      -1.0143644869691739 [Eh]
	 Correlation Energy        =      -1.3429236836105369 [Eh]
	 Total Energy              =    -343.1683478532958134 [Eh]

	 ================> DF-SCS-MP2 Energies <==================
	-----------------------------------------------------------
	 SCS Same-Spin Scale       =       0.3333333333333333 [-]
	 SCS Opposite-Spin Scale   =       1.2000000000000000 [-]
	 SCS Same-Spin Energy      =      -0.1095197322137876 [Eh]
	 SCS Opposite-Spin Energy  =      -1.2172373843630087 [Eh]
	 SCS Correlation Energy    =      -1.3267571165767964 [Eh]
	 SCS Total Energy          =    -343.1521812862620777 [Eh]
	-----------------------------------------------------------

  Dipole Moment: [D]
     X:     1.4015      Y:    -2.1904      Z:     0.2893     Total:     2.6164

*** Psi4 exiting successfully. Buy a developer a beer!
