                               Psi4 1.3.2 release

  ==> Input File <==

--------------------------------------------------------------------------
#psi4
#
memory 32 gb

molecule  {
0 1
  O       -1.4344650     1.0675660     0.2191520
  O        1.4425540    -1.0727980    -0.0074420
  O        1.2409190     1.1848430    -0.0695910
  C       -0.7273960    -0.1479950     0.3622400
  C       -1.3608000    -1.1844980    -0.5490290
  C        0.7386720     0.0808740     0.0596700
  H       -0.7692630    -0.5063940     1.4052130
  H       -1.2645370    -0.8668950    -1.5888250
  H       -2.4222350    -1.2600450    -0.3075440
  H       -0.8906180    -2.1601930    -0.4204410
  H       -0.7794970     1.7838810     0.3439450
  H        2.2772342    -0.8357446    -0.1572766
units angstrom
no_reorient  #important for SAPT in psi4, default
symmetry c1  #important for SAPT in psi4, default
}

set PROPERTIES_ORIGIN ["COM"]
properties('MP2/aug-cc-pvtz', properties = ['dipole'])
--------------------------------------------------------------------------

    Molecular point group: c1
  Charge       = 0
  Multiplicity = 1
  Basis Set: AUG-CC-PVTZ
    Blend: AUG-CC-PVTZ
  Basis Set: (AUG-CC-PVTZ AUX)
    Blend: AUG-CC-PVTZ-JKFIT

    Orbital Energies [Eh]
    ---------------------

    Doubly Occupied:

       1A    -20.626998     2A    -20.572592     3A    -20.567728
       4A    -11.405600     5A    -11.312147     6A    -11.232189
       7A     -1.497947     8A     -1.395051     9A     -1.364885
      10A     -1.056885    11A     -0.927396    12A     -0.826458
      13A     -0.741022    14A     -0.731516    15A     -0.693219
      16A     -0.644452    17A     -0.625974    18A     -0.586384
      19A     -0.562174    20A     -0.543223    21A     -0.536973
      22A     -0.503194    23A     -0.475718    24A     -0.455684

  @DF-RHF Final Energy:  -341.83246293776193

   => Energetics <=

    Nuclear Repulsion Energy =            250.3089772074890220
    One-Electron Energy =                -964.5120620737233139
    Two-Electron Energy =                 372.3706219284724170
    Total Energy =                       -341.8324629377619317
  Basis Set: (AUG-CC-PVTZ AUX)
    Blend: AUG-CC-PVTZ-RI
    Molecular point group: c1

    Geometry (in Angstrom), charge = 0, multiplicity = 1:

       Center              X                  Y                   Z               Mass
    ------------   -----------------  -----------------  -----------------  -----------------
         O           -1.433403758489     1.067867356943     0.218961488410    15.994914619570
         O            1.443615241511    -1.072496643057    -0.007632511590    15.994914619570
         O            1.241980241511     1.185144356943    -0.069781511590    15.994914619570
         C           -0.726334758489    -0.147693643057     0.362049488410    12.000000000000
         C           -1.359738758489    -1.184196643057    -0.549219511590    12.000000000000
         C            0.739733241511     0.081175356943     0.059479488410    12.000000000000
         H           -0.768201758489    -0.506092643057     1.405022488410     1.007825032230
         H           -1.263475758489    -0.866593643057    -1.589015511590     1.007825032230
         H           -2.421173758489    -1.259743643057    -0.307734511590     1.007825032230
         H           -0.889556758489    -2.159891643057    -0.420631511590     1.007825032230
         H           -0.778435758489     1.784182356943     0.343754488410     1.007825032230
         H            2.278295441511    -0.835443243057    -0.157467111590     1.007825032230

  Basis Set: AUG-CC-PVTZ
    Blend: AUG-CC-PVTZ
  Basis Set: (AUG-CC-PVTZ AUX)
    Blend: AUG-CC-PVTZ-JKFIT
	 Reference Energy          =    -341.8324629377619317 [Eh]
	 Singles Energy            =      -0.0000000000000000 [Eh]
	 Same-Spin Energy          =      -0.3258744476147605 [Eh]
	 Opposite-Spin Energy      =      -1.0089652588878817 [Eh]
	 Correlation Energy        =      -1.3348397065026423 [Eh]
	 Total Energy              =    -343.1673026442645664 [Eh]

	 ================> DF-SCS-MP2 Energies <==================
	-----------------------------------------------------------
	 SCS Same-Spin Scale       =       0.3333333333333333 [-]
	 SCS Opposite-Spin Scale   =       1.2000000000000000 [-]
	 SCS Same-Spin Energy      =      -0.1086248158715868 [Eh]
	 SCS Opposite-Spin Energy  =      -1.2107583106654580 [Eh]
	 SCS Correlation Energy    =      -1.3193831265370448 [Eh]
	 SCS Total Energy          =    -343.1518460642989794 [Eh]
	-----------------------------------------------------------

  Dipole Moment: [D]
     X:     1.0925      Y:    -1.8359      Z:     0.3298     Total:     2.1617

*** Psi4 exiting successfully. Buy a developer a beer!
