                               Psi4 1.3.2 release

  ==> Input File <==

--------------------------------------------------------------------------
#psi4
#
memory 32 gb

molecule  {
0 1
  O       -1.4344650     1.0675660     0.2191520
  O        1.4425540    -1.0727980    -0.0074420
  O        1.2409190     1.1848430    -0.0695910
  C       -0.7273960    -0.1479950     0.3622400
  C       -1.3608000    -1.1844980    -0.5490290
  C        0.7989828     0.1161721     0.0480483
  H       -0.7692630    -0.5063940     1.4052130
  H       -1.2645370    -0.8668950    -1.5888250
  H       -2.4222350    -1.2600450    -0.3075440
  H       -0.8906180    -2.1601930    -0.4204410
  H       -0.7794970     1.7838810     0.3439450
  H        2.3567628    -0.7598119    -0.1738877
units angstrom
no_reorient  #important for SAPT in psi4, default
symmetry c1  #important for SAPT in psi4, default
}

set PROPERTIES_ORIGIN ["COM"]
properties('MP2/aug-cc-pvtz', properties = ['dipole'])
--------------------------------------------------------------------------

    Molecular point group: c1
  Charge       = 0
  Multiplicity = 1
  Basis Set: AUG-CC-PVTZ
    Blend: AUG-CC-PVTZ
  Basis Set: (AUG-CC-PVTZ AUX)
    Blend: AUG-CC-PVTZ-JKFIT

    Orbital Energies [Eh]
    ---------------------

    Doubly Occupied:

       1A    -20.634230     2A    -20.579202     3A    -20.563575
       4A    -11.397259     5A    -11.307004     6A    -11.226612
       7A     -1.499183     8A     -1.408103     9A     -1.366494
      10A     -1.039180    11A     -0.903436    12A     -0.803208
      13A     -0.745407    14A     -0.725873    15A     -0.689342
      16A     -0.649953    17A     -0.632705    18A     -0.581701
      19A     -0.559637    20A     -0.540501    21A     -0.537853
      22A     -0.518845    23A     -0.469456    24A     -0.442858

  @DF-RHF Final Energy:  -341.83243639926667

   => Energetics <=

    Nuclear Repulsion Energy =            249.7971129756870141
    One-Electron Energy =                -963.6158658873786180
    Two-Electron Energy =                 371.9863165124249349
    Total Energy =                       -341.8324363992666690
  Basis Set: (AUG-CC-PVTZ AUX)
    Blend: AUG-CC-PVTZ-RI
    Molecular point group: c1

    Geometry (in Angstrom), charge = 0, multiplicity = 1:

       Center              X                  Y                   Z               Mass
    ------------   -----------------  -----------------  -----------------  -----------------
         O           -1.442332619845     1.062312601131     0.220696449460    15.994914619570
         O            1.434686380155    -1.078051398869    -0.005897550540    15.994914619570
         O            1.233051380155     1.179589601131    -0.068046550540    15.994914619570
         C           -0.735263619845    -0.153248398869     0.363784449460    12.000000000000
         C           -1.368667619845    -1.189751398869    -0.547484550540    12.000000000000
         C            0.791115180155     0.110918701131     0.049592749460    12.000000000000
         H           -0.777130619845    -0.511647398869     1.406757449460     1.007825032230
         H           -1.272404619845    -0.872148398869    -1.587280550540     1.007825032230
         H           -2.430102619845    -1.265298398869    -0.305999550540     1.007825032230
         H           -0.898485619845    -2.165446398869    -0.418896550540     1.007825032230
         H           -0.787364619845     1.778627601131     0.345489449460     1.007825032230
         H            2.348895180155    -0.765065298869    -0.172343250540     1.007825032230

  Basis Set: AUG-CC-PVTZ
    Blend: AUG-CC-PVTZ
  Basis Set: (AUG-CC-PVTZ AUX)
    Blend: AUG-CC-PVTZ-JKFIT
	 Reference Energy          =    -341.8324363992666690 [Eh]
	 Singles Energy            =      -0.0000000000000000 [Eh]
	 Same-Spin Energy          =      -0.3260987882062721 [Eh]
	 Opposite-Spin Energy      =      -1.0097878208516193 [Eh]
	 Correlation Energy        =      -1.3358866090578914 [Eh]
	 Total Energy              =    -343.1683230083245348 [Eh]

	 ================> DF-SCS-MP2 Energies <==================
	-----------------------------------------------------------
	 SCS Same-Spin Scale       =       0.3333333333333333 [-]
	 SCS Opposite-Spin Scale   =       1.2000000000000000 [-]
	 SCS Same-Spin Energy      =      -0.1086995960687574 [Eh]
	 SCS Opposite-Spin Energy  =      -1.2117453850219431 [Eh]
	 SCS Correlation Energy    =      -1.3204449810907004 [Eh]
	 SCS Total Energy          =    -343.1528813803573712 [Eh]
	-----------------------------------------------------------

  Dipole Moment: [D]
     X:     1.4927      Y:    -1.5178      Z:     0.2628     Total:     2.1450

*** Psi4 exiting successfully. Buy a developer a beer!
