                               Psi4 1.3.2 release

  ==> Input File <==

--------------------------------------------------------------------------
#psi4
#
memory 32 gb

molecule  {
0 1
  O       -1.4040696     1.0881272     0.2521311
  O        1.4425540    -1.0727980    -0.0074420
  O        1.2409190     1.1848430    -0.0695910
  C       -0.7273960    -0.1479950     0.3622400
  C       -1.3250534    -1.2198140    -0.5321648
  C        0.7386720     0.0808740     0.0596700
  H       -0.7692630    -0.5063940     1.4052130
  H       -1.2645370    -0.8668950    -1.5888250
  H       -2.4222350    -1.2600450    -0.3075440
  H       -0.8906180    -2.1601930    -0.4204410
  H       -0.7794970     1.7838810     0.3439450
  H        2.3720270    -0.8088230    -0.1742930
units angstrom
no_reorient  #important for SAPT in psi4, default
symmetry c1  #important for SAPT in psi4, default
}

set PROPERTIES_ORIGIN ["COM"]
properties('MP2/aug-cc-pvtz', properties = ['dipole'])
--------------------------------------------------------------------------

    Molecular point group: c1
  Charge       = 0
  Multiplicity = 1
  Basis Set: AUG-CC-PVTZ
    Blend: AUG-CC-PVTZ
  Basis Set: (AUG-CC-PVTZ AUX)
    Blend: AUG-CC-PVTZ-JKFIT

    Orbital Energies [Eh]
    ---------------------

    Doubly Occupied:

       1A    -20.633360     2A    -20.569092     3A    -20.563812
       4A    -11.402097     5A    -11.313034     6A    -11.234069
       7A     -1.479636     8A     -1.390206     9A     -1.364676
      10A     -1.057867    11A     -0.917788    12A     -0.816506
      13A     -0.742540    14A     -0.721387    15A     -0.693044
      16A     -0.640049    17A     -0.621832    18A     -0.587396
      19A     -0.571013    20A     -0.541429    21A     -0.532425
      22A     -0.499254    23A     -0.471493    24A     -0.453725

  @DF-RHF Final Energy:  -341.83453241655531

   => Energetics <=

    Nuclear Repulsion Energy =            249.9461952270525558
    One-Electron Energy =                -963.9259925485976055
    Two-Electron Energy =                 372.1452649049896877
    Total Energy =                       -341.8345324165553052
  Basis Set: (AUG-CC-PVTZ AUX)
    Blend: AUG-CC-PVTZ-RI
    Molecular point group: c1

    Geometry (in Angstrom), charge = 0, multiplicity = 1:

       Center              X                  Y                   Z               Mass
    ------------   -----------------  -----------------  -----------------  -----------------
         O           -1.414234022909     1.089181459572     0.244024279133    15.994914619570
         O            1.432389577091    -1.071743740428    -0.015548820867    15.994914619570
         O            1.230754577091     1.185897259572    -0.077697820867    15.994914619570
         C           -0.737560422909    -0.146940740428     0.354133179133    12.000000000000
         C           -1.335217822909    -1.218759740428    -0.540271620867    12.000000000000
         C            0.728507577091     0.081928259572     0.051563179133    12.000000000000
         H           -0.779427422909    -0.505339740428     1.397106179133     1.007825032230
         H           -1.274701422909    -0.865840740428    -1.596931820867     1.007825032230
         H           -2.432399422909    -1.258990740428    -0.315650820867     1.007825032230
         H           -0.900782422909    -2.159138740428    -0.428547820867     1.007825032230
         H           -0.789661422909     1.784935259572     0.335838179133     1.007825032230
         H            2.361862577091    -0.807768740428    -0.182399820867     1.007825032230

  Basis Set: AUG-CC-PVTZ
    Blend: AUG-CC-PVTZ
  Basis Set: (AUG-CC-PVTZ AUX)
    Blend: AUG-CC-PVTZ-JKFIT
	 Reference Energy          =    -341.8345324165553052 [Eh]
	 Singles Energy            =      -0.0000000000000000 [Eh]
	 Same-Spin Energy          =      -0.3265879181118329 [Eh]
	 Opposite-Spin Energy      =      -1.0104476291203448 [Eh]
	 Correlation Energy        =      -1.3370355472321775 [Eh]
	 Total Energy              =    -343.1715679637874814 [Eh]

	 ================> DF-SCS-MP2 Energies <==================
	-----------------------------------------------------------
	 SCS Same-Spin Scale       =       0.3333333333333333 [-]
	 SCS Opposite-Spin Scale   =       1.2000000000000000 [-]
	 SCS Same-Spin Energy      =      -0.1088626393706109 [Eh]
	 SCS Opposite-Spin Energy  =      -1.2125371549444137 [Eh]
	 SCS Correlation Energy    =      -1.3213997943150246 [Eh]
	 SCS Total Energy          =    -343.1559322108703327 [Eh]
	-----------------------------------------------------------

  Dipole Moment: [D]
     X:     1.1695      Y:    -1.9058      Z:     0.2498     Total:     2.2499

*** Psi4 exiting successfully. Buy a developer a beer!
