                               Psi4 1.3.2 release

  ==> Input File <==

--------------------------------------------------------------------------
#psi4
#
memory 32 gb

molecule  {
0 1
  O       -1.4784316     1.0339557     0.1700227
  O        1.4425540    -1.0727980    -0.0074420
  O        1.2409190     1.1848430    -0.0695910
  C       -0.7273960    -0.1479950     0.3622400
  C       -1.4129596    -1.1291700    -0.5722376
  C        0.7386720     0.0808740     0.0596700
  H       -0.7692630    -0.5063940     1.4052130
  H       -1.2645370    -0.8668950    -1.5888250
  H       -2.4222350    -1.2600450    -0.3075440
  H       -0.8906180    -2.1601930    -0.4204410
  H       -0.7794970     1.7838810     0.3439450
  H        2.3720270    -0.8088230    -0.1742930
units angstrom
no_reorient  #important for SAPT in psi4, default
symmetry c1  #important for SAPT in psi4, default
}

set PROPERTIES_ORIGIN ["COM"]
properties('MP2/aug-cc-pvtz', properties = ['dipole'])
--------------------------------------------------------------------------

    Molecular point group: c1
  Charge       = 0
  Multiplicity = 1
  Basis Set: AUG-CC-PVTZ
    Blend: AUG-CC-PVTZ
  Basis Set: (AUG-CC-PVTZ AUX)
    Blend: AUG-CC-PVTZ-JKFIT

    Orbital Energies [Eh]
    ---------------------

    Doubly Occupied:

       1A    -20.635222     2A    -20.572792     3A    -20.572137
       4A    -11.405827     5A    -11.310495     6A    -11.229749
       7A     -1.481356     8A     -1.384435     9A     -1.357942
      10A     -1.047307    11A     -0.921476    12A     -0.808423
      13A     -0.733465    14A     -0.723619    15A     -0.688410
      16A     -0.637896    17A     -0.623460    18A     -0.585640
      19A     -0.568741    20A     -0.539589    21A     -0.513175
      22A     -0.501203    23A     -0.477265    24A     -0.454551

  @DF-RHF Final Energy:  -341.82051263659173

   => Energetics <=

    Nuclear Repulsion Energy =            249.3199448644980691
    One-Electron Energy =                -962.7325686739233106
    Two-Electron Energy =                 371.5921111728334836
    Total Energy =                       -341.8205126365917295
  Basis Set: (AUG-CC-PVTZ AUX)
    Blend: AUG-CC-PVTZ-RI
    Molecular point group: c1

    Geometry (in Angstrom), charge = 0, multiplicity = 1:

       Center              X                  Y                   Z               Mass
    ------------   -----------------  -----------------  -----------------  -----------------
         O           -1.463668265361     1.032552386325     0.181844310631    15.994914619570
         O            1.457317334639    -1.074201313675     0.004379610631    15.994914619570
         O            1.255682334639     1.183439686325    -0.057769389369    15.994914619570
         C           -0.712632665361    -0.149398313675     0.374061610631    12.000000000000
         C           -1.398196265361    -1.130573313675    -0.560415989369    12.000000000000
         C            0.753435334639     0.079470686325     0.071491610631    12.000000000000
         H           -0.754499665361    -0.507797313675     1.417034610631     1.007825032230
         H           -1.249773665361    -0.868298313675    -1.577003389369     1.007825032230
         H           -2.407471665361    -1.261448313675    -0.295722389369     1.007825032230
         H           -0.875854665361    -2.161596313675    -0.408619389369     1.007825032230
         H           -0.764733665361     1.782477686325     0.355766610631     1.007825032230
         H            2.386790334639    -0.810226313675    -0.162471389369     1.007825032230

  Basis Set: AUG-CC-PVTZ
    Blend: AUG-CC-PVTZ
  Basis Set: (AUG-CC-PVTZ AUX)
    Blend: AUG-CC-PVTZ-JKFIT
	 Reference Energy          =    -341.8205126365917295 [Eh]
	 Singles Energy            =      -0.0000000000000000 [Eh]
	 Same-Spin Energy          =      -0.3283469855567319 [Eh]
	 Opposite-Spin Energy      =      -1.0147369630785199 [Eh]
	 Correlation Energy        =      -1.3430839486352517 [Eh]
	 Total Energy              =    -343.1635965852269692 [Eh]

	 ================> DF-SCS-MP2 Energies <==================
	-----------------------------------------------------------
	 SCS Same-Spin Scale       =       0.3333333333333333 [-]
	 SCS Opposite-Spin Scale   =       1.2000000000000000 [-]
	 SCS Same-Spin Energy      =      -0.1094489951855773 [Eh]
	 SCS Opposite-Spin Energy  =      -1.2176843556942238 [Eh]
	 SCS Correlation Energy    =      -1.3271333508798011 [Eh]
	 SCS Total Energy          =    -343.1476459874715488 [Eh]
	-----------------------------------------------------------

  Dipole Moment: [D]
     X:     1.3003      Y:    -1.7183      Z:     0.3942     Total:     2.1906

*** Psi4 exiting successfully. Buy a developer a beer!
