                               Psi4 1.3.2 release

  ==> Input File <==

--------------------------------------------------------------------------
#psi4
#
memory 32 gb

molecule  {
0 1
  O       -1.4344650     1.0675660     0.2191520
  O        1.4425540    -1.0727980    -0.0074420
  O        1.2409190     1.1848430    -0.0695910
  C       -0.7210633    -0.1335049     0.3409715
  C       -1.3608000    -1.1844980    -0.5490290
  C        0.7386720     0.0808740     0.0596700
  H       -0.7692630    -0.5063940     1.4052130
  H       -1.2555149    -0.8511580    -1.5830084
  H       -2.4222350    -1.2600450    -0.3075440
  H       -0.8906180    -2.1601930    -0.4204410
  H       -0.7794970     1.7838810     0.3439450
  H        2.3720270    -0.8088230    -0.1742930
units angstrom
no_reorient  #important for SAPT in psi4, default
symmetry c1  #important for SAPT in psi4, default
}

set PROPERTIES_ORIGIN ["COM"]
properties('MP2/aug-cc-pvtz', properties = ['dipole'])
--------------------------------------------------------------------------

    Molecular point group: c1
  Charge       = 0
  Multiplicity = 1
  Basis Set: AUG-CC-PVTZ
    Blend: AUG-CC-PVTZ
  Basis Set: (AUG-CC-PVTZ AUX)
    Blend: AUG-CC-PVTZ-JKFIT

    Orbital Energies [Eh]
    ---------------------

    Doubly Occupied:

       1A    -20.634286     2A    -20.570155     3A    -20.568709
       4A    -11.403302     5A    -11.311883     6A    -11.231548
       7A     -1.480653     8A     -1.389504     9A     -1.364828
      10A     -1.053871    11A     -0.920143    12A     -0.810548
      13A     -0.741370    14A     -0.722470    15A     -0.690227
      16A     -0.639395    17A     -0.621460    18A     -0.587546
      19A     -0.561273    20A     -0.542953    21A     -0.536437
      22A     -0.500386    23A     -0.474479    24A     -0.451074

  @DF-RHF Final Energy:  -341.83606059306499

   => Energetics <=

    Nuclear Repulsion Energy =            249.9738445853562609
    One-Electron Energy =                -964.0028103340878260
    Two-Electron Energy =                 372.1929051556666082
    Total Energy =                       -341.8360605930649854
  Basis Set: (AUG-CC-PVTZ AUX)
    Blend: AUG-CC-PVTZ-RI
    Molecular point group: c1

    Geometry (in Angstrom), charge = 0, multiplicity = 1:

       Center              X                  Y                   Z               Mass
    ------------   -----------------  -----------------  -----------------  -----------------
         O           -1.435409937056     1.065458498516     0.221921661954    15.994914619570
         O            1.441609062944    -1.074905501484    -0.004672338046    15.994914619570
         O            1.239974062944     1.182735498516    -0.066821338046    15.994914619570
         C           -0.722008237056    -0.135612401484     0.343741161954    12.000000000000
         C           -1.361744937056    -1.186605501484    -0.546259338046    12.000000000000
         C            0.737727062944     0.078766498516     0.062439661954    12.000000000000
         H           -0.770207937056    -0.508501501484     1.407982661954     1.007825032230
         H           -1.256459837056    -0.853265501484    -1.580238738046     1.007825032230
         H           -2.423179937056    -1.262152501484    -0.304774338046     1.007825032230
         H           -0.891562937056    -2.162300501484    -0.417671338046     1.007825032230
         H           -0.780441937056     1.781773498516     0.346714661954     1.007825032230
         H            2.371082062944    -0.810930501484    -0.171523338046     1.007825032230

  Basis Set: AUG-CC-PVTZ
    Blend: AUG-CC-PVTZ
  Basis Set: (AUG-CC-PVTZ AUX)
    Blend: AUG-CC-PVTZ-JKFIT
	 Reference Energy          =    -341.8360605930649854 [Eh]
	 Singles Energy            =      -0.0000000000000000 [Eh]
	 Same-Spin Energy          =      -0.3272604831018878 [Eh]
	 Opposite-Spin Energy      =      -1.0117426861139598 [Eh]
	 Correlation Energy        =      -1.3390031692158475 [Eh]
	 Total Energy              =    -343.1750637622808426 [Eh]

	 ================> DF-SCS-MP2 Energies <==================
	-----------------------------------------------------------
	 SCS Same-Spin Scale       =       0.3333333333333333 [-]
	 SCS Opposite-Spin Scale   =       1.2000000000000000 [-]
	 SCS Same-Spin Energy      =      -0.1090868277006292 [Eh]
	 SCS Opposite-Spin Energy  =      -1.2140912233367518 [Eh]
	 SCS Correlation Energy    =      -1.3231780510373810 [Eh]
	 SCS Total Energy          =    -343.1592386441023450 [Eh]
	-----------------------------------------------------------

  Dipole Moment: [D]
     X:     1.1984      Y:    -1.8029      Z:     0.2825     Total:     2.1832

*** Psi4 exiting successfully. Buy a developer a beer!
