                               Psi4 1.3.2 release

  ==> Input File <==

--------------------------------------------------------------------------
#psi4
#
memory 32 gb

molecule  {
0 1
  O       -1.4344650     1.0675660     0.2191520
  O        1.4425540    -1.0727980    -0.0074420
  O        1.2409190     1.1848430    -0.0695910
  C       -0.7273960    -0.1479950     0.3622400
  C       -1.3608000    -1.1844980    -0.5490290
  C        0.6418609     0.0657607     0.0796501
  H       -0.7692630    -0.5063940     1.4052130
  H       -1.2645370    -0.8668950    -1.5888250
  H       -2.4222350    -1.2600450    -0.3075440
  H       -0.8906180    -2.1601930    -0.4204410
  H       -0.7794970     1.7838810     0.3439450
  H        2.3720270    -0.8088230    -0.1742930
units angstrom
no_reorient  #important for SAPT in psi4, default
symmetry c1  #important for SAPT in psi4, default
}

set PROPERTIES_ORIGIN ["COM"]
properties('MP2/aug-cc-pvtz', properties = ['dipole'])
--------------------------------------------------------------------------

    Molecular point group: c1
  Charge       = 0
  Multiplicity = 1
  Basis Set: AUG-CC-PVTZ
    Blend: AUG-CC-PVTZ
  Basis Set: (AUG-CC-PVTZ AUX)
    Blend: AUG-CC-PVTZ-JKFIT

    Orbital Energies [Eh]
    ---------------------

    Doubly Occupied:

       1A    -20.625179     2A    -20.573330     3A    -20.567134
       4A    -11.412937     5A    -11.315223     6A    -11.239512
       7A     -1.454617     8A     -1.385386     9A     -1.335427
      10A     -1.078636    11A     -0.938478    12A     -0.810389
      13A     -0.740812    14A     -0.716085    15A     -0.693256
      16A     -0.628243    17A     -0.606040    18A     -0.584920
      19A     -0.567101    20A     -0.548395    21A     -0.537768
      22A     -0.483495    23A     -0.474717    24A     -0.464949

  @DF-RHF Final Energy:  -341.81484237528139

   => Energetics <=

    Nuclear Repulsion Energy =            249.7707595101607581
    One-Electron Energy =                -963.6071435894970136
    Two-Electron Energy =                 372.0215417040549255
    Total Energy =                       -341.8148423752813869
  Basis Set: (AUG-CC-PVTZ AUX)
    Blend: AUG-CC-PVTZ-RI
    Molecular point group: c1

    Geometry (in Angstrom), charge = 0, multiplicity = 1:

       Center              X                  Y                   Z               Mass
    ------------   -----------------  -----------------  -----------------  -----------------
         O           -1.421561277299     1.069580390772     0.216488896414    15.994914619570
         O            1.455457722701    -1.070783609228    -0.010105103586    15.994914619570
         O            1.253822722701     1.186857390772    -0.072254103586    15.994914619570
         C           -0.714492277299    -0.145980609228     0.359576896414    12.000000000000
         C           -1.347896277299    -1.182483609228    -0.551692103586    12.000000000000
         C            0.654764622701     0.067775090772     0.076986996414    12.000000000000
         H           -0.756359277299    -0.504379609228     1.402549896414     1.007825032230
         H           -1.251633277299    -0.864880609228    -1.591488103586     1.007825032230
         H           -2.409331277299    -1.258030609228    -0.310207103586     1.007825032230
         H           -0.877714277299    -2.158178609228    -0.423104103586     1.007825032230
         H           -0.766593277299     1.785895390772     0.341281896414     1.007825032230
         H            2.384930722701    -0.806808609228    -0.176956103586     1.007825032230

  Basis Set: AUG-CC-PVTZ
    Blend: AUG-CC-PVTZ
  Basis Set: (AUG-CC-PVTZ AUX)
    Blend: AUG-CC-PVTZ-JKFIT
	 Reference Energy          =    -341.8148423752813869 [Eh]
	 Singles Energy            =      -0.0000000000000000 [Eh]
	 Same-Spin Energy          =      -0.3295317245887921 [Eh]
	 Opposite-Spin Energy      =      -1.0164551164430704 [Eh]
	 Correlation Energy        =      -1.3459868410318625 [Eh]
	 Total Energy              =    -343.1608292163132319 [Eh]

	 ================> DF-SCS-MP2 Energies <==================
	-----------------------------------------------------------
	 SCS Same-Spin Scale       =       0.3333333333333333 [-]
	 SCS Opposite-Spin Scale   =       1.2000000000000000 [-]
	 SCS Same-Spin Energy      =      -0.1098439081962640 [Eh]
	 SCS Opposite-Spin Energy  =      -1.2197461397316844 [Eh]
	 SCS Correlation Energy    =      -1.3295900479279485 [Eh]
	 SCS Total Energy          =    -343.1444324232093095 [Eh]
	-----------------------------------------------------------

  Dipole Moment: [D]
     X:     0.6863      Y:    -1.8972      Z:     0.3809     Total:     2.0532

*** Psi4 exiting successfully. Buy a developer a beer!
