                               Psi4 1.3.2 release

  ==> Input File <==

--------------------------------------------------------------------------
#psi4
#
memory 32 gb

molecule  {
0 1
  O       -1.4344650     1.0675660     0.2191520
  O        1.4326262    -1.0789048    -0.0055505
  O        1.2313552     1.1893049    -0.0682057
  C       -0.7273960    -0.1479950     0.3622400
  C       -1.3608000    -1.1844980    -0.5490290
  C        0.7386720     0.0808740     0.0596700
  H       -0.7692630    -0.5063940     1.4052130
  H       -1.2645370    -0.8668950    -1.5888250
  H       -2.4222350    -1.2600450    -0.3075440
  H       -0.8906180    -2.1601930    -0.4204410
  H       -0.7794970     1.7838810     0.3439450
  H        2.3720270    -0.8088230    -0.1742930
units angstrom
no_reorient  #important for SAPT in psi4, default
symmetry c1  #important for SAPT in psi4, default
}

set PROPERTIES_ORIGIN ["COM"]
properties('MP2/aug-cc-pvtz', properties = ['dipole'])
--------------------------------------------------------------------------

    Molecular point group: c1
  Charge       = 0
  Multiplicity = 1
  Basis Set: AUG-CC-PVTZ
    Blend: AUG-CC-PVTZ
  Basis Set: (AUG-CC-PVTZ AUX)
    Blend: AUG-CC-PVTZ-JKFIT

    Orbital Energies [Eh]
    ---------------------

    Doubly Occupied:

       1A    -20.636440     2A    -20.571202     3A    -20.566103
       4A    -11.403607     5A    -11.310331     6A    -11.230927
       7A     -1.479303     8A     -1.386848     9A     -1.361886
      10A     -1.052452    11A     -0.917521    12A     -0.809744
      13A     -0.738453    14A     -0.721897    15A     -0.690720
      16A     -0.639315    17A     -0.621923    18A     -0.584471
      19A     -0.561016    20A     -0.541783    21A     -0.533652
      22A     -0.500994    23A     -0.473984    24A     -0.453860

  @DF-RHF Final Energy:  -341.83568857357079

   => Energetics <=

    Nuclear Repulsion Energy =            249.7082047875005628
    One-Electron Energy =                -963.5109193649459485
    Two-Electron Energy =                 371.9670260038745937
    Total Energy =                       -341.8356885735707920
  Basis Set: (AUG-CC-PVTZ AUX)
    Blend: AUG-CC-PVTZ-RI
    Molecular point group: c1

    Geometry (in Angstrom), charge = 0, multiplicity = 1:

       Center              X                  Y                   Z               Mass
    ------------   -----------------  -----------------  -----------------  -----------------
         O           -1.431002027373     1.067858224300     0.218569819868    15.994914619570
         O            1.436089172627    -1.078612575700    -0.006132680132    15.994914619570
         O            1.234818172627     1.189597124300    -0.068787880132    15.994914619570
         C           -0.723933027373    -0.147702775700     0.361657819868    12.000000000000
         C           -1.357337027373    -1.184205775700    -0.549611180132    12.000000000000
         C            0.742134972627     0.081166224300     0.059087819868    12.000000000000
         H           -0.765800027373    -0.506101775700     1.404630819868     1.007825032230
         H           -1.261074027373    -0.866602775700    -1.589407180132     1.007825032230
         H           -2.418772027373    -1.259752775700    -0.308126180132     1.007825032230
         H           -0.887155027373    -2.159900775700    -0.421023180132     1.007825032230
         H           -0.776034027373     1.784173224300     0.343362819868     1.007825032230
         H            2.375489972627    -0.808530775700    -0.174875180132     1.007825032230

  Basis Set: AUG-CC-PVTZ
    Blend: AUG-CC-PVTZ
  Basis Set: (AUG-CC-PVTZ AUX)
    Blend: AUG-CC-PVTZ-JKFIT
	 Reference Energy          =    -341.8356885735707920 [Eh]
	 Singles Energy            =      -0.0000000000000000 [Eh]
	 Same-Spin Energy          =      -0.3273994568439911 [Eh]
	 Opposite-Spin Energy      =      -1.0122900422810641 [Eh]
	 Correlation Energy        =      -1.3396894991250552 [Eh]
	 Total Energy              =    -343.1753780726958212 [Eh]

	 ================> DF-SCS-MP2 Energies <==================
	-----------------------------------------------------------
	 SCS Same-Spin Scale       =       0.3333333333333333 [-]
	 SCS Opposite-Spin Scale   =       1.2000000000000000 [-]
	 SCS Same-Spin Energy      =      -0.1091331522813304 [Eh]
	 SCS Opposite-Spin Energy  =      -1.2147480507372770 [Eh]
	 SCS Correlation Energy    =      -1.3238812030186073 [Eh]
	 SCS Total Energy          =    -343.1595697765894215 [Eh]
	-----------------------------------------------------------

  Dipole Moment: [D]
     X:     1.2823      Y:    -1.8475      Z:     0.3014     Total:     2.2691

*** Psi4 exiting successfully. Buy a developer a beer!
