                               Psi4 1.4a3.dev225

  ==> Input File <==

--------------------------------------------------------------------------
#psi4
#
memory 32 gb

molecule  {
0 1
  O       -1.3959680    -1.1167090    -0.2833280
  O        1.5522570     0.9331460    -0.3210200
  O        1.1768320    -1.1502310     0.4959580
  C       -0.6816250     0.0987340    -0.4130150
  C       -1.2926720     1.1882940     0.4648960
  C        0.7791170    -0.1136042    -0.0407272
  H       -0.7109810     0.4129130    -1.4639800
  H       -1.2242180     0.8953450     1.5161010
  H       -2.3476110     1.2964270     0.2055410
  H       -0.7844450     2.1448300     0.3211210
  H       -0.8100540    -1.7212800     0.2125920
  H        2.4531110     0.6959320    -0.0164550
units angstrom
no_reorient  #important for SAPT in psi4, default
symmetry c1  #important for SAPT in psi4, default
}

set PROPERTIES_ORIGIN ["COM"]
properties('MP2/aug-cc-pvtz', properties = ['dipole'])
--------------------------------------------------------------------------

    Molecular point group: c1
  Charge       = 0
  Multiplicity = 1
  Basis Set: AUG-CC-PVTZ
    Blend: AUG-CC-PVTZ
  Basis Set: (AUG-CC-PVTZ AUX)
    Blend: AUG-CC-PVTZ-JKFIT

    Orbital Energies [Eh]
    ---------------------

    Doubly Occupied:

       1A    -20.641553     2A    -20.568979     3A    -20.563895
       4A    -11.405870     5A    -11.310910     6A    -11.234275
       7A     -1.488508     8A     -1.385766     9A     -1.357533
      10A     -1.052314    11A     -0.920326    12A     -0.818913
      13A     -0.744404    14A     -0.727461    15A     -0.671258
      16A     -0.644547    17A     -0.626330    18A     -0.589496
      19A     -0.569760    20A     -0.542794    21A     -0.529630
      22A     -0.498500    23A     -0.466948    24A     -0.456225

  @DF-RHF Final Energy:  -341.83627786442344

   => Energetics <=

    Nuclear Repulsion Energy =            249.5341291518424214
    One-Electron Energy =                -963.1084231661702688
    Two-Electron Energy =                 371.7380161499044107
    Total Energy =                       -341.8362778644234368
  Basis Set: (AUG-CC-PVTZ AUX)
    Blend: AUG-CC-PVTZ-RI
    Molecular point group: c1

    Geometry (in Angstrom), charge = 0, multiplicity = 1:

       Center              X                  Y                   Z               Mass
    ------------   -----------------  -----------------  -----------------  -----------------
         O           -1.435176460421    -1.077839056919    -0.274232764925    15.994914619570
         O            1.513048539579     0.972015943081    -0.311924764925    15.994914619570
         O            1.137623539579    -1.111361056919     0.505053235075    15.994914619570
         C           -0.720833460421     0.137603943081    -0.403919764925    12.000000000000
         C           -1.331880460421     1.227163943081     0.473991235075    12.000000000000
         C            0.739908539579    -0.074734256919    -0.031631964925    12.000000000000
         H           -0.750189460421     0.451782943081    -1.454884764925     1.007825032230
         H           -1.263426460421     0.934214943081     1.525196235075     1.007825032230
         H           -2.386819460421     1.335296943081     0.214636235075     1.007825032230
         H           -0.823653460421     2.183699943081     0.330216235075     1.007825032230
         H           -0.849262460421    -1.682410056919     0.221687235075     1.007825032230
         H            2.413902539579     0.734801943081    -0.007359764925     1.007825032230

  Basis Set: AUG-CC-PVTZ
    Blend: AUG-CC-PVTZ
  Basis Set: (AUG-CC-PVTZ AUX)
    Blend: AUG-CC-PVTZ-JKFIT
	 Reference Energy          =    -341.8362778644234368 [Eh]
	 Singles Energy            =      -0.0000000000000000 [Eh]
	 Same-Spin Energy          =      -0.3273304790234323 [Eh]
	 Opposite-Spin Energy      =      -1.0118409115966944 [Eh]
	 Correlation Energy        =      -1.3391713906201268 [Eh]
	 Total Energy              =    -343.1754492550435884 [Eh]

	 ================> DF-SCS-MP2 Energies <==================
	-----------------------------------------------------------
	 SCS Same-Spin Scale       =       0.3333333333333333 [-]
	 SCS Opposite-Spin Scale   =       1.2000000000000000 [-]
	 SCS Same-Spin Energy      =      -0.1091101596744774 [Eh]
	 SCS Opposite-Spin Energy  =      -1.2142090939160333 [Eh]
	 SCS Correlation Energy    =      -1.3233192535905107 [Eh]
	 SCS Total Energy          =    -343.1595971180139486 [Eh]
	-----------------------------------------------------------

  Dipole Moment: [D]
     X:     1.3930      Y:     2.0914      Z:     0.0223     Total:     2.5129

*** Psi4 exiting successfully. Buy a developer a beer!
