                               Psi4 1.3.2 release

  ==> Input File <==

--------------------------------------------------------------------------
#psi4
#
memory 32 gb

molecule  {
0 1
  O       -1.4344650     1.0675660     0.2191520
  O        1.4425540    -1.0727980    -0.0074420
  O        1.2409190     1.1848430    -0.0695910
  C       -0.7406382    -0.1779178     0.4039379
  C       -1.3608000    -1.1844980    -0.5490290
  C        0.7386720     0.0808740     0.0596700
  H       -0.7692630    -0.5063940     1.4052130
  H       -1.2826665    -0.8986545    -1.5995063
  H       -2.4222350    -1.2600450    -0.3075440
  H       -0.8906180    -2.1601930    -0.4204410
  H       -0.7794970     1.7838810     0.3439450
  H        2.3720270    -0.8088230    -0.1742930
units angstrom
no_reorient  #important for SAPT in psi4, default
symmetry c1  #important for SAPT in psi4, default
}

set PROPERTIES_ORIGIN ["COM"]
properties('MP2/aug-cc-pvtz', properties = ['dipole'])
--------------------------------------------------------------------------

    Molecular point group: c1
  Charge       = 0
  Multiplicity = 1
  Basis Set: AUG-CC-PVTZ
    Blend: AUG-CC-PVTZ
  Basis Set: (AUG-CC-PVTZ AUX)
    Blend: AUG-CC-PVTZ-JKFIT

    Orbital Energies [Eh]
    ---------------------

    Doubly Occupied:

       1A    -20.633546     2A    -20.570995     3A    -20.563891
       4A    -11.404003     5A    -11.311429     6A    -11.231736
       7A     -1.479340     8A     -1.382444     9A     -1.355363
      10A     -1.052865    11A     -0.915983    12A     -0.815911
      13A     -0.733670    14A     -0.721117    15A     -0.692984
      16A     -0.638894    17A     -0.621545    18A     -0.581784
      19A     -0.562215    20A     -0.540866    21A     -0.529302
      22A     -0.499973    23A     -0.474638    24A     -0.457823

  @DF-RHF Final Energy:  -341.83334098153642

   => Energetics <=

    Nuclear Repulsion Energy =            248.9920801578195437
    One-Electron Energy =                -962.1062088691367080
    Two-Electron Energy =                 371.2807877297806840
    Total Energy =                       -341.8333409815364234
  Basis Set: (AUG-CC-PVTZ AUX)
    Blend: AUG-CC-PVTZ-RI
    Molecular point group: c1

    Geometry (in Angstrom), charge = 0, multiplicity = 1:

       Center              X                  Y                   Z               Mass
    ------------   -----------------  -----------------  -----------------  -----------------
         O           -1.432496931087     1.071909815108     0.213713776817    15.994914619570
         O            1.444522068913    -1.068454184892    -0.012880223183    15.994914619570
         O            1.242887068913     1.189186815108    -0.075029223183    15.994914619570
         C           -0.738670131087    -0.173573984892     0.398499676817    12.000000000000
         C           -1.358831931087    -1.180154184892    -0.554467223183    12.000000000000
         C            0.740640068913     0.085217815108     0.054231776817    12.000000000000
         H           -0.767294931087    -0.502050184892     1.399774776817     1.007825032230
         H           -1.280698431087    -0.894310684892    -1.604944523183     1.007825032230
         H           -2.420266931087    -1.255701184892    -0.312982223183     1.007825032230
         H           -0.888649931087    -2.155849184892    -0.425879223183     1.007825032230
         H           -0.777528931087     1.788224815108     0.338506776817     1.007825032230
         H            2.373995068913    -0.804479184892    -0.179731223183     1.007825032230

  Basis Set: AUG-CC-PVTZ
    Blend: AUG-CC-PVTZ
  Basis Set: (AUG-CC-PVTZ AUX)
    Blend: AUG-CC-PVTZ-JKFIT
	 Reference Energy          =    -341.8333409815364234 [Eh]
	 Singles Energy            =      -0.0000000000000000 [Eh]
	 Same-Spin Energy          =      -0.3270263714584712 [Eh]
	 Opposite-Spin Energy      =      -1.0121030320930191 [Eh]
	 Correlation Energy        =      -1.3391294035514902 [Eh]
	 Total Energy              =    -343.1724703850879337 [Eh]

	 ================> DF-SCS-MP2 Energies <==================
	-----------------------------------------------------------
	 SCS Same-Spin Scale       =       0.3333333333333333 [-]
	 SCS Opposite-Spin Scale   =       1.2000000000000000 [-]
	 SCS Same-Spin Energy      =      -0.1090087904861571 [Eh]
	 SCS Opposite-Spin Energy  =      -1.2145236385116229 [Eh]
	 SCS Correlation Energy    =      -1.3235324289977801 [Eh]
	 SCS Total Energy          =    -343.1568734105342173 [Eh]
	-----------------------------------------------------------

  Dipole Moment: [D]
     X:     1.2664      Y:    -1.9180      Z:     0.3531     Total:     2.3253

*** Psi4 exiting successfully. Buy a developer a beer!
