                               Psi4 1.3.2 release

  ==> Input File <==

--------------------------------------------------------------------------
#psi4
#
memory 32 gb

molecule  {
0 1
  O       -1.4344650     1.0675660     0.2191520
  O        1.4425540    -1.0727980    -0.0074420
  O        1.2784737     1.1661011    -0.0767273
  C       -0.7184184    -0.2000829     0.3617227
  C       -1.3608000    -1.1844980    -0.5490290
  C        0.7386720     0.0808740     0.0596700
  H       -0.7692630    -0.5063940     1.4052130
  H       -1.2645370    -0.8668950    -1.5888250
  H       -2.4222350    -1.2600450    -0.3075440
  H       -0.8906180    -2.1601930    -0.4204410
  H       -0.7794970     1.7838810     0.3439450
  H        2.3720270    -0.8088230    -0.1742930
units angstrom
no_reorient  #important for SAPT in psi4, default
symmetry c1  #important for SAPT in psi4, default
}

set PROPERTIES_ORIGIN ["COM"]
properties('MP2/aug-cc-pvtz', properties = ['dipole'])
--------------------------------------------------------------------------

    Molecular point group: c1
  Charge       = 0
  Multiplicity = 1
  Basis Set: AUG-CC-PVTZ
    Blend: AUG-CC-PVTZ
  Basis Set: (AUG-CC-PVTZ AUX)
    Blend: AUG-CC-PVTZ-JKFIT

    Orbital Energies [Eh]
    ---------------------

    Doubly Occupied:

       1A    -20.630449     2A    -20.571495     3A    -20.563336
       4A    -11.404914     5A    -11.314236     6A    -11.233011
       7A     -1.480652     8A     -1.378437     9A     -1.350037
      10A     -1.063350    11A     -0.922775    12A     -0.810640
      13A     -0.732415    14A     -0.720603    15A     -0.689547
      16A     -0.638908    17A     -0.621535    18A     -0.583238
      19A     -0.562202    20A     -0.539555    21A     -0.532485
      22A     -0.499176    23A     -0.478480    24A     -0.458966

  @DF-RHF Final Energy:  -341.83266027925538

   => Energetics <=

    Nuclear Repulsion Energy =            249.2292793981971215
    One-Electron Energy =                -962.5629962655948475
    Two-Electron Energy =                 371.5010565881423190
    Total Energy =                       -341.8326602792553786
  Basis Set: (AUG-CC-PVTZ AUX)
    Blend: AUG-CC-PVTZ-RI
    Molecular point group: c1

    Geometry (in Angstrom), charge = 0, multiplicity = 1:

       Center              X                  Y                   Z               Mass
    ------------   -----------------  -----------------  -----------------  -----------------
         O           -1.442333391384     1.077838263715     0.220488746833    15.994914619570
         O            1.434685608616    -1.062525736285    -0.006105253167    15.994914619570
         O            1.270605308616     1.176373363715    -0.075390553167    15.994914619570
         C           -0.726286791384    -0.189810636285     0.363059446833    12.000000000000
         C           -1.368668391384    -1.174225736285    -0.547692253167    12.000000000000
         C            0.730803608616     0.091146263715     0.061006746833    12.000000000000
         H           -0.777131391384    -0.496121736285     1.406549746833     1.007825032230
         H           -1.272405391384    -0.856622736285    -1.587488253167     1.007825032230
         H           -2.430103391384    -1.249772736285    -0.306207253167     1.007825032230
         H           -0.898486391384    -2.149920736285    -0.419104253167     1.007825032230
         H           -0.787365391384     1.794153263715     0.345281746833     1.007825032230
         H            2.364158608616    -0.798550736285    -0.172956253167     1.007825032230

  Basis Set: AUG-CC-PVTZ
    Blend: AUG-CC-PVTZ
  Basis Set: (AUG-CC-PVTZ AUX)
    Blend: AUG-CC-PVTZ-JKFIT
	 Reference Energy          =    -341.8326602792553786 [Eh]
	 Singles Energy            =      -0.0000000000000000 [Eh]
	 Same-Spin Energy          =      -0.3273623807044633 [Eh]
	 Opposite-Spin Energy      =      -1.0128251261069487 [Eh]
	 Correlation Energy        =      -1.3401875068114122 [Eh]
	 Total Energy              =    -343.1728477860667681 [Eh]

	 ================> DF-SCS-MP2 Energies <==================
	-----------------------------------------------------------
	 SCS Same-Spin Scale       =       0.3333333333333333 [-]
	 SCS Opposite-Spin Scale   =       1.2000000000000000 [-]
	 SCS Same-Spin Energy      =      -0.1091207935681544 [Eh]
	 SCS Opposite-Spin Energy  =      -1.2153901513283385 [Eh]
	 SCS Correlation Energy    =      -1.3245109448964929 [Eh]
	 SCS Total Energy          =    -343.1571712241518526 [Eh]
	-----------------------------------------------------------

  Dipole Moment: [D]
     X:     1.1631      Y:    -1.9656      Z:     0.3188     Total:     2.3061

*** Psi4 exiting successfully. Buy a developer a beer!
