                               Psi4 1.4a3.dev225

  ==> Input File <==

--------------------------------------------------------------------------
#psi4
#
memory 32 gb

molecule  {
0 1
  O       -1.3959680    -1.1167090    -0.2833280
  O        1.5522570     0.9331460    -0.3210200
  O        1.1768320    -1.1502310     0.4959580
  C       -0.6816250     0.0987340    -0.4130150
  C       -1.2926720     1.1882940     0.4648960
  C        0.7196595    -0.1218017    -0.0489458
  H       -0.7109810     0.4129130    -1.4639800
  H       -1.2242180     0.8953450     1.5161010
  H       -2.3476110     1.2964270     0.2055410
  H       -0.7844450     2.1448300     0.3211210
  H       -0.8100540    -1.7212800     0.2125920
  H        2.4531110     0.6959320    -0.0164550
units angstrom
no_reorient  #important for SAPT in psi4, default
symmetry c1  #important for SAPT in psi4, default
}

set PROPERTIES_ORIGIN ["COM"]
properties('MP2/aug-cc-pvtz', properties = ['dipole'])
--------------------------------------------------------------------------

    Molecular point group: c1
  Charge       = 0
  Multiplicity = 1
  Basis Set: AUG-CC-PVTZ
    Blend: AUG-CC-PVTZ
  Basis Set: (AUG-CC-PVTZ AUX)
    Blend: AUG-CC-PVTZ-JKFIT

    Orbital Energies [Eh]
    ---------------------

    Doubly Occupied:

       1A    -20.631407     2A    -20.570662     3A    -20.567647
       4A    -11.410087     5A    -11.313448     6A    -11.238890
       7A     -1.468916     8A     -1.383146     9A     -1.351039
      10A     -1.065288    11A     -0.929066    12A     -0.813981
      13A     -0.746928    14A     -0.719875    15A     -0.670763
      16A     -0.639847    17A     -0.617809    18A     -0.591138
      19A     -0.571426    20A     -0.546520    21A     -0.532265
      22A     -0.492979    23A     -0.473771    24A     -0.461045

  @DF-RHF Final Energy:  -341.82988612346412

   => Energetics <=

    Nuclear Repulsion Energy =            249.6301795395674503
    One-Electron Energy =                -963.3042450409232060
    Two-Electron Energy =                 371.8441793778915780
    Total Energy =                       -341.8298861234641208
  Basis Set: (AUG-CC-PVTZ AUX)
    Blend: AUG-CC-PVTZ-RI
    Molecular point group: c1

    Geometry (in Angstrom), charge = 0, multiplicity = 1:

       Center              X                  Y                   Z               Mass
    ------------   -----------------  -----------------  -----------------  -----------------
         O           -1.427251584548    -1.076746441690    -0.273137337353    15.994914619570
         O            1.520973415452     0.973108558310    -0.310829337353    15.994914619570
         O            1.145548415452    -1.110268441690     0.506148662647    15.994914619570
         C           -0.712908584548     0.138696558310    -0.402824337353    12.000000000000
         C           -1.323955584548     1.228256558310     0.475086662647    12.000000000000
         C            0.688375915452    -0.081839141690    -0.038755137353    12.000000000000
         H           -0.742264584548     0.452875558310    -1.453789337353     1.007825032230
         H           -1.255501584548     0.935307558310     1.526291662647     1.007825032230
         H           -2.378894584548     1.336389558310     0.215731662647     1.007825032230
         H           -0.815728584548     2.184792558310     0.331311662647     1.007825032230
         H           -0.841337584548    -1.681317441690     0.222782662647     1.007825032230
         H            2.421827415452     0.735894558310    -0.006264337353     1.007825032230

  Basis Set: AUG-CC-PVTZ
    Blend: AUG-CC-PVTZ
  Basis Set: (AUG-CC-PVTZ AUX)
    Blend: AUG-CC-PVTZ-JKFIT
	 Reference Energy          =    -341.8298861234641208 [Eh]
	 Singles Energy            =      -0.0000000000000000 [Eh]
	 Same-Spin Energy          =      -0.3282838777976478 [Eh]
	 Opposite-Spin Energy      =      -1.0138815154414011 [Eh]
	 Correlation Energy        =      -1.3421653932390489 [Eh]
	 Total Energy              =    -343.1720515167031635 [Eh]

	 ================> DF-SCS-MP2 Energies <==================
	-----------------------------------------------------------
	 SCS Same-Spin Scale       =       0.3333333333333333 [-]
	 SCS Opposite-Spin Scale   =       1.2000000000000000 [-]
	 SCS Same-Spin Energy      =      -0.1094279592658826 [Eh]
	 SCS Opposite-Spin Energy  =      -1.2166578185296812 [Eh]
	 SCS Correlation Energy    =      -1.3260857777955639 [Eh]
	 SCS Total Energy          =    -343.1559719012597043 [Eh]
	-----------------------------------------------------------

  Dipole Moment: [D]
     X:     1.0331      Y:     2.0024      Z:     0.0263     Total:     2.2533

*** Psi4 exiting successfully. Buy a developer a beer!
