                               Psi4 1.3.2 release

  ==> Input File <==

--------------------------------------------------------------------------
#psi4
#
memory 32 gb

molecule  {
0 1
  O       -1.4344650     1.0675660     0.2191520
  O        1.4425540    -1.0727980    -0.0074420
  O        1.2409190     1.1848430    -0.0695910
  C       -0.7273960    -0.1479950     0.3622400
  C       -1.3608000    -1.1844980    -0.5490290
  C        0.7189891     0.0684002     0.0635046
  H       -0.7692630    -0.5063940     1.4052130
  H       -1.2645370    -0.8668950    -1.5888250
  H       -2.4222350    -1.2600450    -0.3075440
  H       -0.8906180    -2.1601930    -0.4204410
  H       -0.7794970     1.7838810     0.3439450
  H        2.3765508    -0.8253275    -0.1743265
units angstrom
no_reorient  #important for SAPT in psi4, default
symmetry c1  #important for SAPT in psi4, default
}

set PROPERTIES_ORIGIN ["COM"]
properties('MP2/aug-cc-pvtz', properties = ['dipole'])
--------------------------------------------------------------------------

    Molecular point group: c1
  Charge       = 0
  Multiplicity = 1
  Basis Set: AUG-CC-PVTZ
    Blend: AUG-CC-PVTZ
  Basis Set: (AUG-CC-PVTZ AUX)
    Blend: AUG-CC-PVTZ-JKFIT

    Orbital Energies [Eh]
    ---------------------

    Doubly Occupied:

       1A    -20.634165     2A    -20.568176     3A    -20.567567
       4A    -11.405851     5A    -11.312564     6A    -11.233103
       7A     -1.475850     8A     -1.383625     9A     -1.355285
      10A     -1.058604    11A     -0.923468    12A     -0.815023
      13A     -0.738908    14A     -0.720108    15A     -0.691934
      16A     -0.636268    17A     -0.617311    18A     -0.585938
      19A     -0.562399    20A     -0.543779    21A     -0.532891
      22A     -0.493640    23A     -0.474428    24A     -0.457363

  @DF-RHF Final Energy:  -341.83411283274023

   => Energetics <=

    Nuclear Repulsion Energy =            249.6215495089087995
    One-Electron Energy =                -963.3348266650141341
    Two-Electron Energy =                 371.8791643233650461
    Total Energy =                       -341.8341128327402316
  Basis Set: (AUG-CC-PVTZ AUX)
    Blend: AUG-CC-PVTZ-RI
    Molecular point group: c1

    Geometry (in Angstrom), charge = 0, multiplicity = 1:

       Center              X                  Y                   Z               Mass
    ------------   -----------------  -----------------  -----------------  -----------------
         O           -1.431892057017     1.069413334582     0.218641246919    15.994914619570
         O            1.445126942983    -1.070950665418    -0.007952753081    15.994914619570
         O            1.243491942983     1.186690334582    -0.070101753081    15.994914619570
         C           -0.724823057017    -0.146147665418     0.361729246919    12.000000000000
         C           -1.358227057017    -1.182650665418    -0.549539753081    12.000000000000
         C            0.721562042983     0.070247534582     0.062993846919    12.000000000000
         H           -0.766690057017    -0.504546665418     1.404702246919     1.007825032230
         H           -1.261964057017    -0.865047665418    -1.589335753081     1.007825032230
         H           -2.419662057017    -1.258197665418    -0.308054753081     1.007825032230
         H           -0.888045057017    -2.158345665418    -0.420951753081     1.007825032230
         H           -0.776924057017     1.785728334582     0.343434246919     1.007825032230
         H            2.379123742983    -0.823480165418    -0.174837253081     1.007825032230

  Basis Set: AUG-CC-PVTZ
    Blend: AUG-CC-PVTZ
  Basis Set: (AUG-CC-PVTZ AUX)
    Blend: AUG-CC-PVTZ-JKFIT
	 Reference Energy          =    -341.8341128327402316 [Eh]
	 Singles Energy            =      -0.0000000000000000 [Eh]
	 Same-Spin Energy          =      -0.3276317312528879 [Eh]
	 Opposite-Spin Energy      =      -1.0126646436362012 [Eh]
	 Correlation Energy        =      -1.3402963748890890 [Eh]
	 Total Energy              =    -343.1744092076293100 [Eh]

	 ================> DF-SCS-MP2 Energies <==================
	-----------------------------------------------------------
	 SCS Same-Spin Scale       =       0.3333333333333333 [-]
	 SCS Opposite-Spin Scale   =       1.2000000000000000 [-]
	 SCS Same-Spin Energy      =      -0.1092105770842960 [Eh]
	 SCS Opposite-Spin Energy  =      -1.2151975723634414 [Eh]
	 SCS Correlation Energy    =      -1.3244081494477373 [Eh]
	 SCS Total Energy          =    -343.1585209821879516 [Eh]
	-----------------------------------------------------------

  Dipole Moment: [D]
     X:     1.1412      Y:    -1.9474      Z:     0.3230     Total:     2.2802

*** Psi4 exiting successfully. Buy a developer a beer!
