                               Psi4 1.3.2 release

  ==> Input File <==

--------------------------------------------------------------------------
#psi4
#
memory 32 gb

molecule  {
0 1
  O       -1.4344650     1.0675660     0.2191520
  O        1.4025289    -1.0966933     0.0001532
  O        1.2024415     1.2021829    -0.0639916
  C       -0.7273960    -0.1479950     0.3622400
  C       -1.3608000    -1.1844980    -0.5490290
  C        0.7386720     0.0808740     0.0596700
  H       -0.7692630    -0.5063940     1.4052130
  H       -1.2645370    -0.8668950    -1.5888250
  H       -2.4222350    -1.2600450    -0.3075440
  H       -0.8906180    -2.1601930    -0.4204410
  H       -0.7794970     1.7838810     0.3439450
  H        2.3720270    -0.8088230    -0.1742930
units angstrom
no_reorient  #important for SAPT in psi4, default
symmetry c1  #important for SAPT in psi4, default
}

set PROPERTIES_ORIGIN ["COM"]
properties('MP2/aug-cc-pvtz', properties = ['dipole'])
--------------------------------------------------------------------------

    Molecular point group: c1
  Charge       = 0
  Multiplicity = 1
  Basis Set: AUG-CC-PVTZ
    Blend: AUG-CC-PVTZ
  Basis Set: (AUG-CC-PVTZ AUX)
    Blend: AUG-CC-PVTZ-JKFIT

    Orbital Energies [Eh]
    ---------------------

    Doubly Occupied:

       1A    -20.643283     2A    -20.573331     3A    -20.563300
       4A    -11.404051     5A    -11.306840     6A    -11.229286
       7A     -1.476833     8A     -1.387798     9A     -1.360669
      10A     -1.049828    11A     -0.914382    12A     -0.803549
      13A     -0.738677    14A     -0.720306    15A     -0.689500
      16A     -0.639392    17A     -0.622939    18A     -0.582519
      19A     -0.559808    20A     -0.540147    21A     -0.532062
      22A     -0.503324    23A     -0.472735    24A     -0.451457

  @DF-RHF Final Energy:  -341.82988249777372

   => Energetics <=

    Nuclear Repulsion Energy =            249.9055346248713363
    One-Electron Energy =                -963.9387982159032617
    Two-Electron Energy =                 372.2033810932582583
    Total Energy =                       -341.8298824977737240
  Basis Set: (AUG-CC-PVTZ AUX)
    Blend: AUG-CC-PVTZ-RI
    Molecular point group: c1

    Geometry (in Angstrom), charge = 0, multiplicity = 1:

       Center              X                  Y                   Z               Mass
    ------------   -----------------  -----------------  -----------------  -----------------
         O           -1.420518209240     1.068730617395     0.216807836315    15.994914619570
         O            1.416475690760    -1.095528682605    -0.002190963685    15.994914619570
         O            1.216388290760     1.203347517395    -0.066335763685    15.994914619570
         C           -0.713449209240    -0.146830382605     0.359895836315    12.000000000000
         C           -1.346853209240    -1.183333382605    -0.551373163685    12.000000000000
         C            0.752618790760     0.082038617395     0.057325836315    12.000000000000
         H           -0.755316209240    -0.505229382605     1.402868836315     1.007825032230
         H           -1.250590209240    -0.865730382605    -1.591169163685     1.007825032230
         H           -2.408288209240    -1.258880382605    -0.309888163685     1.007825032230
         H           -0.876671209240    -2.159028382605    -0.422785163685     1.007825032230
         H           -0.765550209240     1.785045617395     0.341600836315     1.007825032230
         H            2.385973790760    -0.807658382605    -0.176637163685     1.007825032230

  Basis Set: AUG-CC-PVTZ
    Blend: AUG-CC-PVTZ
  Basis Set: (AUG-CC-PVTZ AUX)
    Blend: AUG-CC-PVTZ-JKFIT
	 Reference Energy          =    -341.8298824977737240 [Eh]
	 Singles Energy            =      -0.0000000000000000 [Eh]
	 Same-Spin Energy          =      -0.3282329727882732 [Eh]
	 Opposite-Spin Energy      =      -1.0140165532054528 [Eh]
	 Correlation Energy        =      -1.3422495259937262 [Eh]
	 Total Energy              =    -343.1721320237674604 [Eh]

	 ================> DF-SCS-MP2 Energies <==================
	-----------------------------------------------------------
	 SCS Same-Spin Scale       =       0.3333333333333333 [-]
	 SCS Opposite-Spin Scale   =       1.2000000000000000 [-]
	 SCS Same-Spin Energy      =      -0.1094109909294244 [Eh]
	 SCS Opposite-Spin Energy  =      -1.2168198638465433 [Eh]
	 SCS Correlation Energy    =      -1.3262308547759676 [Eh]
	 SCS Total Energy          =    -343.1561133525497098 [Eh]
	-----------------------------------------------------------

  Dipole Moment: [D]
     X:     1.4550      Y:    -1.8653      Z:     0.2804     Total:     2.3822

*** Psi4 exiting successfully. Buy a developer a beer!
