                               Psi4 1.3.2 release

  ==> Input File <==

--------------------------------------------------------------------------
#psi4
#
memory 32 gb

molecule  {
0 1
  O       -1.4344650     1.0675660     0.2191520
  O        1.4425540    -1.0727980    -0.0074420
  O        1.2409190     1.1848430    -0.0695910
  C       -0.7273960    -0.1479950     0.3622400
  C       -1.3608000    -1.1844980    -0.5490290
  C        0.7906915    -0.0043866     0.0547102
  H       -0.7692630    -0.5063940     1.4052130
  H       -1.2645370    -0.8668950    -1.5888250
  H       -2.4222350    -1.2600450    -0.3075440
  H       -0.8906180    -2.1601930    -0.4204410
  H       -0.7794970     1.7838810     0.3439450
  H        2.3720270    -0.8088230    -0.1742930
units angstrom
no_reorient  #important for SAPT in psi4, default
symmetry c1  #important for SAPT in psi4, default
}

set PROPERTIES_ORIGIN ["COM"]
properties('MP2/aug-cc-pvtz', properties = ['dipole'])
--------------------------------------------------------------------------

    Molecular point group: c1
  Charge       = 0
  Multiplicity = 1
  Basis Set: AUG-CC-PVTZ
    Blend: AUG-CC-PVTZ
  Basis Set: (AUG-CC-PVTZ AUX)
    Blend: AUG-CC-PVTZ-JKFIT

    Orbital Energies [Eh]
    ---------------------

    Doubly Occupied:

       1A    -20.661976     2A    -20.563768     3A    -20.553028
       4A    -11.404959     5A    -11.310171     6A    -11.229330
       7A     -1.529107     8A     -1.375531     9A     -1.337639
      10A     -1.049447    11A     -0.924782    12A     -0.834360
      13A     -0.751294    14A     -0.722553    15A     -0.696570
      16A     -0.656394    17A     -0.615835    18A     -0.585203
      19A     -0.558971    20A     -0.541198    21A     -0.519942
      22A     -0.480233    23A     -0.464008    24A     -0.445527

  @DF-RHF Final Energy:  -341.82174473407088

   => Energetics <=

    Nuclear Repulsion Energy =            249.5300157367221345
    One-Electron Energy =                -963.0798709553826029
    Two-Electron Energy =                 371.7281104845895925
    Total Energy =                       -341.8217447340708759
  Basis Set: (AUG-CC-PVTZ AUX)
    Blend: AUG-CC-PVTZ-RI
    Molecular point group: c1

    Geometry (in Angstrom), charge = 0, multiplicity = 1:

       Center              X                  Y                   Z               Mass
    ------------   -----------------  -----------------  -----------------  -----------------
         O           -1.441398371545     1.078930071558     0.219813045794    15.994914619570
         O            1.435620628455    -1.061433928442    -0.006780954206    15.994914619570
         O            1.233985628455     1.196207071558    -0.068929954206    15.994914619570
         C           -0.734329371545    -0.136630928442     0.362901045794    12.000000000000
         C           -1.367733371545    -1.173133928442    -0.548367954206    12.000000000000
         C            0.783758128455     0.006977471558     0.055371245794    12.000000000000
         H           -0.776196371545    -0.495029928442     1.405874045794     1.007825032230
         H           -1.271470371545    -0.855530928442    -1.588163954206     1.007825032230
         H           -2.429168371545    -1.248680928442    -0.306882954206     1.007825032230
         H           -0.897551371545    -2.148828928442    -0.419779954206     1.007825032230
         H           -0.786430371545     1.795245071558     0.344606045794     1.007825032230
         H            2.365093628455    -0.797458928442    -0.173631954206     1.007825032230

  Basis Set: AUG-CC-PVTZ
    Blend: AUG-CC-PVTZ
  Basis Set: (AUG-CC-PVTZ AUX)
    Blend: AUG-CC-PVTZ-JKFIT
	 Reference Energy          =    -341.8217447340708759 [Eh]
	 Singles Energy            =      -0.0000000000000000 [Eh]
	 Same-Spin Energy          =      -0.3278330811533862 [Eh]
	 Opposite-Spin Energy      =      -1.0123119521369328 [Eh]
	 Correlation Energy        =      -1.3401450332903191 [Eh]
	 Total Energy              =    -343.1618897673611741 [Eh]

	 ================> DF-SCS-MP2 Energies <==================
	-----------------------------------------------------------
	 SCS Same-Spin Scale       =       0.3333333333333333 [-]
	 SCS Opposite-Spin Scale   =       1.2000000000000000 [-]
	 SCS Same-Spin Energy      =      -0.1092776937177954 [Eh]
	 SCS Opposite-Spin Energy  =      -1.2147743425643194 [Eh]
	 SCS Correlation Energy    =      -1.3240520362821149 [Eh]
	 SCS Total Energy          =    -343.1457967703530016 [Eh]
	-----------------------------------------------------------

  Dipole Moment: [D]
     X:     1.5828      Y:    -2.5262      Z:     0.2905     Total:     2.9952

*** Psi4 exiting successfully. Buy a developer a beer!
