                               Psi4 1.4a3.dev225

  ==> Input File <==

--------------------------------------------------------------------------
#psi4
#
memory 32 gb

molecule  {
0 1
  O       -1.3959680    -1.1167090    -0.2833280
  O        1.5522570     0.9331460    -0.3210200
  O        1.1768320    -1.1502310     0.4959580
  C       -0.6816250     0.0987340    -0.4130150
  C       -1.2926720     1.1882940     0.4648960
  C        0.7675010    -0.1293310    -0.0365160
  H       -0.7109810     0.4129130    -1.4639800
  H       -1.2242180     0.8953450     1.5161010
  H       -2.3476110     1.2964270     0.2055410
  H       -0.7844450     2.1448300     0.3211210
  H       -0.8100540    -1.7212800     0.2125920
  H        2.4071531     0.7080337    -0.0319927
units angstrom
no_reorient  #important for SAPT in psi4, default
symmetry c1  #important for SAPT in psi4, default
}

set PROPERTIES_ORIGIN ["COM"]
properties('MP2/aug-cc-pvtz', properties = ['dipole'])
--------------------------------------------------------------------------

    Molecular point group: c1
  Charge       = 0
  Multiplicity = 1
  Basis Set: AUG-CC-PVTZ
    Blend: AUG-CC-PVTZ
  Basis Set: (AUG-CC-PVTZ AUX)
    Blend: AUG-CC-PVTZ-JKFIT

    Orbital Energies [Eh]
    ---------------------

    Doubly Occupied:

       1A    -20.632677     2A    -20.573412     3A    -20.564961
       4A    -11.406583     5A    -11.311594     6A    -11.235156
       7A     -1.489833     8A     -1.391542     9A     -1.362161
      10A     -1.054965    11A     -0.924148    12A     -0.821069
      13A     -0.746014    14A     -0.730814    15A     -0.671419
      16A     -0.645903    17A     -0.627622    18A     -0.591021
      19A     -0.570178    20A     -0.543842    21A     -0.533211
      22A     -0.503502    23A     -0.470015    24A     -0.457432

  @DF-RHF Final Energy:  -341.83784548114585

   => Energetics <=

    Nuclear Repulsion Energy =            249.8974950847328955
    One-Electron Energy =                -963.7525331199389029
    Two-Electron Energy =                 372.0171925540601592
    Total Energy =                       -341.8378454811458482
  Basis Set: (AUG-CC-PVTZ AUX)
    Blend: AUG-CC-PVTZ-RI
    Molecular point group: c1

    Geometry (in Angstrom), charge = 0, multiplicity = 1:

       Center              X                  Y                   Z               Mass
    ------------   -----------------  -----------------  -----------------  -----------------
         O           -1.433113747684    -1.075878356238    -0.274620129812    15.994914619570
         O            1.515111252316     0.973976643762    -0.312312129812    15.994914619570
         O            1.139686252316    -1.109400356238     0.504665870188    15.994914619570
         C           -0.718770747684     0.139564643762    -0.404307129812    12.000000000000
         C           -1.329817747684     1.229124643762     0.473603870188    12.000000000000
         C            0.730355252316    -0.088500356238    -0.027808129812    12.000000000000
         H           -0.748126747684     0.453743643762    -1.455272129812     1.007825032230
         H           -1.261363747684     0.936175643762     1.524808870188     1.007825032230
         H           -2.384756747684     1.337257643762     0.214248870188     1.007825032230
         H           -0.821590747684     2.185660643762     0.329828870188     1.007825032230
         H           -0.847199747684    -1.680449356238     0.221299870188     1.007825032230
         H            2.370007352316     0.748864343762    -0.023284829812     1.007825032230

  Basis Set: AUG-CC-PVTZ
    Blend: AUG-CC-PVTZ
  Basis Set: (AUG-CC-PVTZ AUX)
    Blend: AUG-CC-PVTZ-JKFIT
	 Reference Energy          =    -341.8378454811458482 [Eh]
	 Singles Energy            =      -0.0000000000000000 [Eh]
	 Same-Spin Energy          =      -0.3265883484308674 [Eh]
	 Opposite-Spin Energy      =      -1.0103605219278866 [Eh]
	 Correlation Energy        =      -1.3369488703587540 [Eh]
	 Total Energy              =    -343.1747943515046018 [Eh]

	 ================> DF-SCS-MP2 Energies <==================
	-----------------------------------------------------------
	 SCS Same-Spin Scale       =       0.3333333333333333 [-]
	 SCS Opposite-Spin Scale   =       1.2000000000000000 [-]
	 SCS Same-Spin Energy      =      -0.1088627828102891 [Eh]
	 SCS Opposite-Spin Energy  =      -1.2124326263134639 [Eh]
	 SCS Correlation Energy    =      -1.3212954091237530 [Eh]
	 SCS Total Energy          =    -343.1591408902696116 [Eh]
	-----------------------------------------------------------

  Dipole Moment: [D]
     X:     1.2378      Y:     1.9652      Z:     0.0506     Total:     2.3231

*** Psi4 exiting successfully. Buy a developer a beer!
