                               Psi4 1.3.2 release

  ==> Input File <==

--------------------------------------------------------------------------
#psi4
#
memory 32 gb

molecule  {
0 1
  O       -1.4344650     1.0675660     0.2191520
  O        1.4814161    -1.0475851    -0.0166467
  O        1.2409190     1.1848430    -0.0695910
  C       -0.7349654    -0.0957105     0.3604951
  C       -1.3608000    -1.1844980    -0.5490290
  C        0.7386720     0.0808740     0.0596700
  H       -0.7692630    -0.5063940     1.4052130
  H       -1.2645370    -0.8668950    -1.5888250
  H       -2.4222350    -1.2600450    -0.3075440
  H       -0.8906180    -2.1601930    -0.4204410
  H       -0.7794970     1.7838810     0.3439450
  H        2.3720270    -0.8088230    -0.1742930
units angstrom
no_reorient  #important for SAPT in psi4, default
symmetry c1  #important for SAPT in psi4, default
}

set PROPERTIES_ORIGIN ["COM"]
properties('MP2/aug-cc-pvtz', properties = ['dipole'])
--------------------------------------------------------------------------

    Molecular point group: c1
  Charge       = 0
  Multiplicity = 1
  Basis Set: AUG-CC-PVTZ
    Blend: AUG-CC-PVTZ
  Basis Set: (AUG-CC-PVTZ AUX)
    Blend: AUG-CC-PVTZ-JKFIT

    Orbital Energies [Eh]
    ---------------------

    Doubly Occupied:

       1A    -20.627899     2A    -20.574362     3A    -20.566583
       4A    -11.402128     5A    -11.314534     6A    -11.232043
       7A     -1.484398     8A     -1.402808     9A     -1.369433
      10A     -1.047196    11A     -0.919469    12A     -0.823195
      13A     -0.750113    14A     -0.722552    15A     -0.693764
      16A     -0.638840    17A     -0.620753    18A     -0.597135
      19A     -0.561818    20A     -0.546710    21A     -0.532763
      22A     -0.498561    23A     -0.468913    24A     -0.450554

  @DF-RHF Final Energy:  -341.83606945499406

   => Energetics <=

    Nuclear Repulsion Energy =            249.9559463394153056
    One-Electron Energy =                -963.8909851166881708
    Two-Electron Energy =                 372.0989693222788333
    Total Energy =                       -341.8360694549940604
  Basis Set: (AUG-CC-PVTZ AUX)
    Blend: AUG-CC-PVTZ-RI
    Molecular point group: c1

    Geometry (in Angstrom), charge = 0, multiplicity = 1:

       Center              X                  Y                   Z               Mass
    ------------   -----------------  -----------------  -----------------  -----------------
         O           -1.440360172391     1.056117889643     0.221019838488    15.994914619570
         O            1.475520927609    -1.059033210357    -0.014778861512    15.994914619570
         O            1.235023827609     1.173394889643    -0.067723161512    15.994914619570
         C           -0.740860572391    -0.107158610357     0.362362938488    12.000000000000
         C           -1.366695172391    -1.195946110357    -0.547161161512    12.000000000000
         C            0.732776827609     0.069425889643     0.061537838488    12.000000000000
         H           -0.775158172391    -0.517842110357     1.407080838488     1.007825032230
         H           -1.270432172391    -0.878343110357    -1.586957161512     1.007825032230
         H           -2.428130172391    -1.271493110357    -0.305676161512     1.007825032230
         H           -0.896513172391    -2.171641110357    -0.418573161512     1.007825032230
         H           -0.785392172391     1.772432889643     0.345812838488     1.007825032230
         H            2.366131827609    -0.820271110357    -0.172425161512     1.007825032230

  Basis Set: AUG-CC-PVTZ
    Blend: AUG-CC-PVTZ
  Basis Set: (AUG-CC-PVTZ AUX)
    Blend: AUG-CC-PVTZ-JKFIT
	 Reference Energy          =    -341.8360694549940604 [Eh]
	 Singles Energy            =      -0.0000000000000000 [Eh]
	 Same-Spin Energy          =      -0.3262151969274917 [Eh]
	 Opposite-Spin Energy      =      -1.0091959720547463 [Eh]
	 Correlation Energy        =      -1.3354111689822381 [Eh]
	 Total Energy              =    -343.1714806239763220 [Eh]

	 ================> DF-SCS-MP2 Energies <==================
	-----------------------------------------------------------
	 SCS Same-Spin Scale       =       0.3333333333333333 [-]
	 SCS Opposite-Spin Scale   =       1.2000000000000000 [-]
	 SCS Same-Spin Energy      =      -0.1087383989758306 [Eh]
	 SCS Opposite-Spin Energy  =      -1.2110351664656955 [Eh]
	 SCS Correlation Energy    =      -1.3197735654415261 [Eh]
	 SCS Total Energy          =    -343.1558430204356114 [Eh]
	-----------------------------------------------------------

  Dipole Moment: [D]
     X:     1.0438      Y:    -1.6803      Z:     0.3224     Total:     2.0042

*** Psi4 exiting successfully. Buy a developer a beer!
