                               Psi4 1.4a3.dev225

  ==> Input File <==

--------------------------------------------------------------------------
#psi4
#
memory 32 gb

molecule  {
0 1
  O       -1.3959680    -1.1167090    -0.2833280
  O        1.5522570     0.9331460    -0.3210200
  O        1.1768320    -1.1502310     0.4959580
  C       -0.6816250     0.0987340    -0.4130150
  C       -1.2926720     1.1882940     0.4648960
  C        0.7965410    -0.0900139    -0.0470441
  H       -0.7109810     0.4129130    -1.4639800
  H       -1.2242180     0.8953450     1.5161010
  H       -2.3476110     1.2964270     0.2055410
  H       -0.7844450     2.1448300     0.3211210
  H       -0.8100540    -1.7212800     0.2125920
  H        2.4531110     0.6959320    -0.0164550
units angstrom
no_reorient  #important for SAPT in psi4, default
symmetry c1  #important for SAPT in psi4, default
}

set PROPERTIES_ORIGIN ["COM"]
properties('MP2/aug-cc-pvtz', properties = ['dipole'])
--------------------------------------------------------------------------

    Molecular point group: c1
  Charge       = 0
  Multiplicity = 1
  Basis Set: AUG-CC-PVTZ
    Blend: AUG-CC-PVTZ
  Basis Set: (AUG-CC-PVTZ AUX)
    Blend: AUG-CC-PVTZ-JKFIT

    Orbital Energies [Eh]
    ---------------------

    Doubly Occupied:

       1A    -20.649949     2A    -20.563794     3A    -20.562845
       4A    -11.406358     5A    -11.310470     6A    -11.233524
       7A     -1.502055     8A     -1.381849     9A     -1.351320
      10A     -1.050869    11A     -0.921902    12A     -0.825663
      13A     -0.745687    14A     -0.729382    15A     -0.674383
      16A     -0.646684    17A     -0.626247    18A     -0.588134
      19A     -0.569826    20A     -0.542148    21A     -0.525713
      22A     -0.492565    23A     -0.462896    24A     -0.454965

  @DF-RHF Final Energy:  -341.83301047415625

   => Energetics <=

    Nuclear Repulsion Energy =            249.4751846569813551
    One-Electron Energy =                -962.9779338084573510
    Two-Electron Energy =                 371.6697386773197422
    Total Energy =                       -341.8330104741562536
  Basis Set: (AUG-CC-PVTZ AUX)
    Blend: AUG-CC-PVTZ-RI
    Molecular point group: c1

    Geometry (in Angstrom), charge = 0, multiplicity = 1:

       Center              X                  Y                   Z               Mass
    ------------   -----------------  -----------------  -----------------  -----------------
         O           -1.437498842580    -1.080983322980    -0.273390808092    15.994914619570
         O            1.510726157420     0.968871677020    -0.311082808092    15.994914619570
         O            1.135301157420    -1.114505322980     0.505895191908    15.994914619570
         C           -0.723155842580     0.134459677020    -0.403077808092    12.000000000000
         C           -1.334202842580     1.224019677020     0.474833191908    12.000000000000
         C            0.755010157420    -0.054288222980    -0.037106908092    12.000000000000
         H           -0.752511842580     0.448638677020    -1.454042808092     1.007825032230
         H           -1.265748842580     0.931070677020     1.526038191908     1.007825032230
         H           -2.389141842580     1.332152677020     0.215478191908     1.007825032230
         H           -0.825975842580     2.180555677020     0.331058191908     1.007825032230
         H           -0.851584842580    -1.685554322980     0.222529191908     1.007825032230
         H            2.411580157420     0.731657677020    -0.006517808092     1.007825032230

  Basis Set: AUG-CC-PVTZ
    Blend: AUG-CC-PVTZ
  Basis Set: (AUG-CC-PVTZ AUX)
    Blend: AUG-CC-PVTZ-JKFIT
	 Reference Energy          =    -341.8330104741562536 [Eh]
	 Singles Energy            =      -0.0000000000000000 [Eh]
	 Same-Spin Energy          =      -0.3275217261256714 [Eh]
	 Opposite-Spin Energy      =      -1.0119762358781443 [Eh]
	 Correlation Energy        =      -1.3394979620038157 [Eh]
	 Total Energy              =    -343.1725084361600580 [Eh]

	 ================> DF-SCS-MP2 Energies <==================
	-----------------------------------------------------------
	 SCS Same-Spin Scale       =       0.3333333333333333 [-]
	 SCS Opposite-Spin Scale   =       1.2000000000000000 [-]
	 SCS Same-Spin Energy      =      -0.1091739087085571 [Eh]
	 SCS Opposite-Spin Energy  =      -1.2143714830537731 [Eh]
	 SCS Correlation Energy    =      -1.3235453917623301 [Eh]
	 SCS Total Energy          =    -343.1565558659185626 [Eh]
	-----------------------------------------------------------

  Dipole Moment: [D]
     X:     1.5223      Y:     2.2782      Z:    -0.0403     Total:     2.7403

*** Psi4 exiting successfully. Buy a developer a beer!
