                               Psi4 1.3.2 release

  ==> Input File <==

--------------------------------------------------------------------------
#psi4
#
memory 32 gb

molecule  {
0 1
  O       -1.4344650     1.0675660     0.2191520
  O        1.4425540    -1.0727980    -0.0074420
  O        1.2970073     1.1562329    -0.0802337
  C       -0.7132631    -0.2260024     0.3613260
  C       -1.3608000    -1.1844980    -0.5490290
  C        0.7386720     0.0808740     0.0596700
  H       -0.7692630    -0.5063940     1.4052130
  H       -1.2645370    -0.8668950    -1.5888250
  H       -2.4222350    -1.2600450    -0.3075440
  H       -0.8906180    -2.1601930    -0.4204410
  H       -0.7794970     1.7838810     0.3439450
  H        2.3720270    -0.8088230    -0.1742930
units angstrom
no_reorient  #important for SAPT in psi4, default
symmetry c1  #important for SAPT in psi4, default
}

set PROPERTIES_ORIGIN ["COM"]
properties('MP2/aug-cc-pvtz', properties = ['dipole'])
--------------------------------------------------------------------------

    Molecular point group: c1
  Charge       = 0
  Multiplicity = 1
  Basis Set: AUG-CC-PVTZ
    Blend: AUG-CC-PVTZ
  Basis Set: (AUG-CC-PVTZ AUX)
    Blend: AUG-CC-PVTZ-JKFIT

    Orbital Energies [Eh]
    ---------------------

    Doubly Occupied:

       1A    -20.628667     2A    -20.572008     3A    -20.561381
       4A    -11.405745     5A    -11.315975     6A    -11.233776
       7A     -1.481040     8A     -1.375752     9A     -1.343292
      10A     -1.068369    11A     -0.924937    12A     -0.810226
      13A     -0.730187    14A     -0.719693    15A     -0.688574
      16A     -0.638802    17A     -0.621758    18A     -0.584693
      19A     -0.562830    20A     -0.539588    21A     -0.528086
      22A     -0.498830    23A     -0.479468    24A     -0.460393

  @DF-RHF Final Energy:  -341.82820885829778

   => Energetics <=

    Nuclear Repulsion Energy =            249.0422689442957562
    One-Electron Energy =                -962.1928188307300616
    Two-Electron Energy =                 371.3223410281365204
    Total Energy =                       -341.8282088582977849
  Basis Set: (AUG-CC-PVTZ AUX)
    Blend: AUG-CC-PVTZ-RI
    Molecular point group: c1

    Geometry (in Angstrom), charge = 0, multiplicity = 1:

       Center              X                  Y                   Z               Mass
    ------------   -----------------  -----------------  -----------------  -----------------
         O           -1.446313178206     1.083046152130     0.221164564047    15.994914619570
         O            1.430705821794    -1.057317847870    -0.005429435953    15.994914619570
         O            1.285159121794     1.171713052130    -0.078221135953    15.994914619570
         C           -0.725111278206    -0.210522247870     0.363338564047    12.000000000000
         C           -1.372648178206    -1.169017847870    -0.547016435953    12.000000000000
         C            0.726823821794     0.096354152130     0.061682564047    12.000000000000
         H           -0.781111178206    -0.490913847870     1.407225564047     1.007825032230
         H           -1.276385178206    -0.851414847870    -1.586812435953     1.007825032230
         H           -2.434083178206    -1.244564847870    -0.305531435953     1.007825032230
         H           -0.902466178206    -2.144712847870    -0.418428435953     1.007825032230
         H           -0.791345178206     1.799361152130     0.345957564047     1.007825032230
         H            2.360178821794    -0.793342847870    -0.172280435953     1.007825032230

  Basis Set: AUG-CC-PVTZ
    Blend: AUG-CC-PVTZ
  Basis Set: (AUG-CC-PVTZ AUX)
    Blend: AUG-CC-PVTZ-JKFIT
	 Reference Energy          =    -341.8282088582977849 [Eh]
	 Singles Energy            =      -0.0000000000000000 [Eh]
	 Same-Spin Energy          =      -0.3275824670661757 [Eh]
	 Opposite-Spin Energy      =      -1.0135518597917255 [Eh]
	 Correlation Energy        =      -1.3411343268579010 [Eh]
	 Total Energy              =    -343.1693431851556966 [Eh]

	 ================> DF-SCS-MP2 Energies <==================
	-----------------------------------------------------------
	 SCS Same-Spin Scale       =       0.3333333333333333 [-]
	 SCS Opposite-Spin Scale   =       1.2000000000000000 [-]
	 SCS Same-Spin Energy      =      -0.1091941556887252 [Eh]
	 SCS Opposite-Spin Energy  =      -1.2162622317500704 [Eh]
	 SCS Correlation Energy    =      -1.3254563874387957 [Eh]
	 SCS Total Energy          =    -343.1536652457365904 [Eh]
	-----------------------------------------------------------

  Dipole Moment: [D]
     X:     1.1323      Y:    -2.0246      Z:     0.3213     Total:     2.3419

*** Psi4 exiting successfully. Buy a developer a beer!
