                               Psi4 1.3.2 release

  ==> Input File <==

--------------------------------------------------------------------------
#psi4
#
memory 32 gb

molecule  {
0 1
  O       -1.4454362     1.0658417     0.2672241
  O        1.4425540    -1.0727980    -0.0074420
  O        1.2409190     1.1848430    -0.0695910
  C       -0.7273960    -0.1479950     0.3622400
  C       -1.3608000    -1.1844980    -0.5490290
  C        0.7386720     0.0808740     0.0596700
  H       -0.7904110    -0.4754963     1.4142701
  H       -1.2645370    -0.8668950    -1.5888250
  H       -2.4222350    -1.2600450    -0.3075440
  H       -0.8906180    -2.1601930    -0.4204410
  H       -0.7794970     1.7838810     0.3439450
  H        2.3720270    -0.8088230    -0.1742930
units angstrom
no_reorient  #important for SAPT in psi4, default
symmetry c1  #important for SAPT in psi4, default
}

set PROPERTIES_ORIGIN ["COM"]
properties('MP2/aug-cc-pvtz', properties = ['dipole'])
--------------------------------------------------------------------------

    Molecular point group: c1
  Charge       = 0
  Multiplicity = 1
  Basis Set: AUG-CC-PVTZ
    Blend: AUG-CC-PVTZ
  Basis Set: (AUG-CC-PVTZ AUX)
    Blend: AUG-CC-PVTZ-JKFIT

    Orbital Energies [Eh]
    ---------------------

    Doubly Occupied:

       1A    -20.634734     2A    -20.571399     3A    -20.566025
       4A    -11.404687     5A    -11.310933     6A    -11.232087
       7A     -1.480831     8A     -1.386356     9A     -1.361990
      10A     -1.052769    11A     -0.918767    12A     -0.812968
      13A     -0.739359    14A     -0.722845    15A     -0.687434
      16A     -0.638966    17A     -0.622423    18A     -0.585645
      19A     -0.562794    20A     -0.542246    21A     -0.535150
      22A     -0.501176    23A     -0.473188    24A     -0.453764

  @DF-RHF Final Energy:  -341.83637751244436

   => Energetics <=

    Nuclear Repulsion Energy =            249.3919751941788263
    One-Electron Energy =                -962.8596379413686464
    Two-Electron Energy =                 371.6312852347454623
    Total Energy =                       -341.8363775124443578
  Basis Set: (AUG-CC-PVTZ AUX)
    Blend: AUG-CC-PVTZ-RI
    Molecular point group: c1

    Geometry (in Angstrom), charge = 0, multiplicity = 1:

       Center              X                  Y                   Z               Mass
    ------------   -----------------  -----------------  -----------------  -----------------
         O           -1.443250217525     1.065802158030     0.258582258450    15.994914619570
         O            1.444739982475    -1.072837541970    -0.016083841550    15.994914619570
         O            1.243104982475     1.184803458030    -0.078232841550    15.994914619570
         C           -0.725210017525    -0.148034541970     0.353598158450    12.000000000000
         C           -1.358614017525    -1.184537541970    -0.557670841550    12.000000000000
         C            0.740857982475     0.080834458030     0.051028158450    12.000000000000
         H           -0.788225017525    -0.475535841970     1.405628258450     1.007825032230
         H           -1.262351017525    -0.866934541970    -1.597466841550     1.007825032230
         H           -2.420049017525    -1.260084541970    -0.316185841550     1.007825032230
         H           -0.888432017525    -2.160232541970    -0.429082841550     1.007825032230
         H           -0.777311017525     1.783841458030     0.335303158450     1.007825032230
         H            2.374212982475    -0.808862541970    -0.182934841550     1.007825032230

  Basis Set: AUG-CC-PVTZ
    Blend: AUG-CC-PVTZ
  Basis Set: (AUG-CC-PVTZ AUX)
    Blend: AUG-CC-PVTZ-JKFIT
	 Reference Energy          =    -341.8363775124443578 [Eh]
	 Singles Energy            =      -0.0000000000000000 [Eh]
	 Same-Spin Energy          =      -0.3271395549355207 [Eh]
	 Opposite-Spin Energy      =      -1.0118594573980646 [Eh]
	 Correlation Energy        =      -1.3389990123335853 [Eh]
	 Total Energy              =    -343.1753765247779597 [Eh]

	 ================> DF-SCS-MP2 Energies <==================
	-----------------------------------------------------------
	 SCS Same-Spin Scale       =       0.3333333333333333 [-]
	 SCS Opposite-Spin Scale   =       1.2000000000000000 [-]
	 SCS Same-Spin Energy      =      -0.1090465183118402 [Eh]
	 SCS Opposite-Spin Energy  =      -1.2142313488776775 [Eh]
	 SCS Correlation Energy    =      -1.3232778671895178 [Eh]
	 SCS Total Energy          =    -343.1596553796338753 [Eh]
	-----------------------------------------------------------

  Dipole Moment: [D]
     X:     1.2581      Y:    -1.8494      Z:     0.2061     Total:     2.2463

*** Psi4 exiting successfully. Buy a developer a beer!
