                               Psi4 1.3.2 release

  ==> Input File <==

--------------------------------------------------------------------------
#psi4
#
memory 32 gb

molecule  {
0 1
  O       -1.4344650     1.0675660     0.2191520
  O        1.4425540    -1.0727980    -0.0074420
  O        1.2409190     1.1848430    -0.0695910
  C       -0.7273960    -0.1479950     0.3622400
  C       -1.3608000    -1.1844980    -0.5490290
  C        0.9322942     0.1111005     0.0197099
  H       -0.7692630    -0.5063940     1.4052130
  H       -1.2645370    -0.8668950    -1.5888250
  H       -2.4222350    -1.2600450    -0.3075440
  H       -0.8906180    -2.1601930    -0.4204410
  H       -0.7794970     1.7838810     0.3439450
  H        2.3720270    -0.8088230    -0.1742930
units angstrom
no_reorient  #important for SAPT in psi4, default
symmetry c1  #important for SAPT in psi4, default
}

set PROPERTIES_ORIGIN ["COM"]
properties('MP2/aug-cc-pvtz', properties = ['dipole'])
--------------------------------------------------------------------------

    Molecular point group: c1
  Charge       = 0
  Multiplicity = 1
  Basis Set: AUG-CC-PVTZ
    Blend: AUG-CC-PVTZ
  Basis Set: (AUG-CC-PVTZ AUX)
    Blend: AUG-CC-PVTZ-JKFIT

    Orbital Energies [Eh]
    ---------------------

    Doubly Occupied:

       1A    -20.654543     2A    -20.582524     3A    -20.554896
       4A    -11.395573     5A    -11.292111     6A    -11.216367
       7A     -1.532579     8A     -1.451720     9A     -1.355737
      10A     -1.018345    11A     -0.889631    12A     -0.807658
      13A     -0.763870    14A     -0.730331    15A     -0.695695
      16A     -0.663655    17A     -0.639539    18A     -0.574713
      19A     -0.557787    20A     -0.544233    21A     -0.535216
      22A     -0.527178    23A     -0.453130    24A     -0.404116

  @DF-RHF Final Energy:  -341.79621714310031

   => Energetics <=

    Nuclear Repulsion Energy =            249.5987990639322618
    One-Electron Energy =                -963.1077370561961288
    Two-Electron Energy =                 371.7127208491635884
    Total Energy =                       -341.7962171431003071
  Basis Set: (AUG-CC-PVTZ AUX)
    Blend: AUG-CC-PVTZ-RI
    Molecular point group: c1

    Geometry (in Angstrom), charge = 0, multiplicity = 1:

       Center              X                  Y                   Z               Mass
    ------------   -----------------  -----------------  -----------------  -----------------
         O           -1.460272085051     1.063537212248     0.224478109630    15.994914619570
         O            1.416746914949    -1.076826787752    -0.002115890370    15.994914619570
         O            1.215111914949     1.180814212248    -0.064264890370    15.994914619570
         C           -0.753203085051    -0.152023787752     0.367566109630    12.000000000000
         C           -1.386607085051    -1.188526787752    -0.543702890370    12.000000000000
         C            0.906487114949     0.107071712248     0.025036009630    12.000000000000
         H           -0.795070085051    -0.510422787752     1.410539109630     1.007825032230
         H           -1.290344085051    -0.870923787752    -1.583498890370     1.007825032230
         H           -2.448042085051    -1.264073787752    -0.302217890370     1.007825032230
         H           -0.916425085051    -2.164221787752    -0.415114890370     1.007825032230
         H           -0.805304085051     1.779852212248     0.349271109630     1.007825032230
         H            2.346219914949    -0.812851787752    -0.168966890370     1.007825032230

  Basis Set: AUG-CC-PVTZ
    Blend: AUG-CC-PVTZ
  Basis Set: (AUG-CC-PVTZ AUX)
    Blend: AUG-CC-PVTZ-JKFIT
	 Reference Energy          =    -341.7962171431003071 [Eh]
	 Singles Energy            =      -0.0000000000000000 [Eh]
	 Same-Spin Energy          =      -0.3260577184644277 [Eh]
	 Opposite-Spin Energy      =      -1.0093029809252516 [Eh]
	 Correlation Energy        =      -1.3353606993896792 [Eh]
	 Total Energy              =    -343.1315778424900031 [Eh]

	 ================> DF-SCS-MP2 Energies <==================
	-----------------------------------------------------------
	 SCS Same-Spin Scale       =       0.3333333333333333 [-]
	 SCS Opposite-Spin Scale   =       1.2000000000000000 [-]
	 SCS Same-Spin Energy      =      -0.1086859061548092 [Eh]
	 SCS Opposite-Spin Energy  =      -1.2111635771103020 [Eh]
	 SCS Correlation Energy    =      -1.3198494832651111 [Eh]
	 SCS Total Energy          =    -343.1160666263654093 [Eh]
	-----------------------------------------------------------

  Dipole Moment: [D]
     X:     2.3741      Y:    -1.6128      Z:     0.1529     Total:     2.8741

*** Psi4 exiting successfully. Buy a developer a beer!
