                               Psi4 1.3.2 release

  ==> Input File <==

--------------------------------------------------------------------------
#psi4
#
memory 32 gb

molecule  {
0 1
  O       -1.4344650     1.0675660     0.2191520
  O        1.3822099    -1.1081047     0.0039786
  O        1.1829879     1.2103418    -0.0611350
  C       -0.7273960    -0.1479950     0.3622400
  C       -1.3608000    -1.1844980    -0.5490290
  C        0.7386720     0.0808740     0.0596700
  H       -0.7692630    -0.5063940     1.4052130
  H       -1.2645370    -0.8668950    -1.5888250
  H       -2.4222350    -1.2600450    -0.3075440
  H       -0.8906180    -2.1601930    -0.4204410
  H       -0.7794970     1.7838810     0.3439450
  H        2.3720270    -0.8088230    -0.1742930
units angstrom
no_reorient  #important for SAPT in psi4, default
symmetry c1  #important for SAPT in psi4, default
}

set PROPERTIES_ORIGIN ["COM"]
properties('MP2/aug-cc-pvtz', properties = ['dipole'])
--------------------------------------------------------------------------

    Molecular point group: c1
  Charge       = 0
  Multiplicity = 1
  Basis Set: AUG-CC-PVTZ
    Blend: AUG-CC-PVTZ
  Basis Set: (AUG-CC-PVTZ AUX)
    Blend: AUG-CC-PVTZ-JKFIT

    Orbital Energies [Eh]
    ---------------------

    Doubly Occupied:

       1A    -20.647615     2A    -20.574710     3A    -20.561418
       4A    -11.404440     5A    -11.304507     6A    -11.228196
       7A     -1.475425     8A     -1.388696     9A     -1.359606
      10A     -1.048098    11A     -0.912423    12A     -0.799771
      13A     -0.739277    14A     -0.718823    15A     -0.688699
      16A     -0.639292    17A     -0.623540    18A     -0.581183
      19A     -0.559030    20A     -0.539084    21A     -0.530877
      22A     -0.504781    23A     -0.471691    24A     -0.449750

  @DF-RHF Final Energy:  -341.82436146487862

   => Energetics <=

    Nuclear Repulsion Energy =            250.0614148233502476
    One-Electron Energy =                -964.2696869058801212
    Two-Electron Energy =                 372.3839106176512814
    Total Energy =                       -341.8243614648786206
  Basis Set: (AUG-CC-PVTZ AUX)
    Blend: AUG-CC-PVTZ-RI
    Molecular point group: c1

    Geometry (in Angstrom), charge = 0, multiplicity = 1:

       Center              X                  Y                   Z               Mass
    ------------   -----------------  -----------------  -----------------  -----------------
         O           -1.413452260433     1.069308452349     0.215620720815    15.994914619570
         O            1.403222639567    -1.106362247651     0.000447320815    15.994914619570
         O            1.204000639567     1.212084252349    -0.064666279185    15.994914619570
         C           -0.706383260433    -0.146252547651     0.358708720815    12.000000000000
         C           -1.339787260433    -1.182755547651    -0.552560279185    12.000000000000
         C            0.759684739567     0.082616452349     0.056138720815    12.000000000000
         H           -0.748250260433    -0.504651547651     1.401681720815     1.007825032230
         H           -1.243524260433    -0.865152547651    -1.592356279185     1.007825032230
         H           -2.401222260433    -1.258302547651    -0.311075279185     1.007825032230
         H           -0.869605260433    -2.158450547651    -0.423972279185     1.007825032230
         H           -0.758484260433     1.785623452349     0.340413720815     1.007825032230
         H            2.393039739567    -0.807080547651    -0.177824279185     1.007825032230

  Basis Set: AUG-CC-PVTZ
    Blend: AUG-CC-PVTZ
  Basis Set: (AUG-CC-PVTZ AUX)
    Blend: AUG-CC-PVTZ-JKFIT
	 Reference Energy          =    -341.8243614648786206 [Eh]
	 Singles Energy            =      -0.0000000000000000 [Eh]
	 Same-Spin Energy          =      -0.3288272811874771 [Eh]
	 Opposite-Spin Energy      =      -1.0152616270921724 [Eh]
	 Correlation Energy        =      -1.3440889082796494 [Eh]
	 Total Energy              =    -343.1684503731582936 [Eh]

	 ================> DF-SCS-MP2 Energies <==================
	-----------------------------------------------------------
	 SCS Same-Spin Scale       =       0.3333333333333333 [-]
	 SCS Opposite-Spin Scale   =       1.2000000000000000 [-]
	 SCS Same-Spin Energy      =      -0.1096090937291590 [Eh]
	 SCS Opposite-Spin Energy  =      -1.2183139525106068 [Eh]
	 SCS Correlation Energy    =      -1.3279230462397658 [Eh]
	 SCS Total Energy          =    -343.1522845111184097 [Eh]
	-----------------------------------------------------------

  Dipole Moment: [D]
     X:     1.5678      Y:    -1.8759      Z:     0.2667     Total:     2.4593

*** Psi4 exiting successfully. Buy a developer a beer!
