                               Psi4 1.3.2 release

  ==> Input File <==

--------------------------------------------------------------------------
#psi4
#
memory 32 gb

molecule  {
0 1
  O       -1.3921118     1.0897717     0.2070121
  O        1.4425540    -1.0727980    -0.0074420
  O        1.2409190     1.1848430    -0.0695910
  C       -0.7273960    -0.1479950     0.3622400
  C       -1.3608000    -1.1844980    -0.5490290
  C        0.7278655     0.1317853     0.0504355
  H       -0.7692630    -0.5063940     1.4052130
  H       -1.2645370    -0.8668950    -1.5888250
  H       -2.4222350    -1.2600450    -0.3075440
  H       -0.8906180    -2.1601930    -0.4204410
  H       -0.7794970     1.7838810     0.3439450
  H        2.3720270    -0.8088230    -0.1742930
units angstrom
no_reorient  #important for SAPT in psi4, default
symmetry c1  #important for SAPT in psi4, default
}

set PROPERTIES_ORIGIN ["COM"]
properties('MP2/aug-cc-pvtz', properties = ['dipole'])
--------------------------------------------------------------------------

    Molecular point group: c1
  Charge       = 0
  Multiplicity = 1
  Basis Set: AUG-CC-PVTZ
    Blend: AUG-CC-PVTZ
  Basis Set: (AUG-CC-PVTZ AUX)
    Blend: AUG-CC-PVTZ-JKFIT

    Orbital Energies [Eh]
    ---------------------

    Doubly Occupied:

       1A    -20.618311     2A    -20.578892     3A    -20.562825
       4A    -11.398985     5A    -11.313045     6A    -11.232357
       7A     -1.480420     8A     -1.388478     9A     -1.374146
      10A     -1.054449    11A     -0.915191    12A     -0.804170
      13A     -0.740384    14A     -0.722670    15A     -0.695499
      16A     -0.638268    17A     -0.622360    18A     -0.584386
      19A     -0.563933    20A     -0.543993    21A     -0.537257
      22A     -0.509273    23A     -0.476442    24A     -0.455121

  @DF-RHF Final Energy:  -341.83566376501403

   => Energetics <=

    Nuclear Repulsion Energy =            250.3055714464435084
    One-Electron Energy =                -964.6607639810677028
    Two-Electron Energy =                 372.5195287696101332
    Total Energy =                       -341.8356637650140328
  Basis Set: (AUG-CC-PVTZ AUX)
    Blend: AUG-CC-PVTZ-RI
    Molecular point group: c1

    Geometry (in Angstrom), charge = 0, multiplicity = 1:

       Center              X                  Y                   Z               Mass
    ------------   -----------------  -----------------  -----------------  -----------------
         O           -1.398195735322     1.079040873794     0.210399664123    15.994914619570
         O            1.436470064678    -1.083528826206    -0.004054435877    15.994914619570
         O            1.234835064678     1.174112173794    -0.066203435877    15.994914619570
         C           -0.733479935322    -0.158725826206     0.365627564123    12.000000000000
         C           -1.366883935322    -1.195228826206    -0.545641435877    12.000000000000
         C            0.721781564678     0.121054473794     0.053823064123    12.000000000000
         H           -0.775346935322    -0.517124826206     1.408600564123     1.007825032230
         H           -1.270620935322    -0.877625826206    -1.585437435877     1.007825032230
         H           -2.428318935322    -1.270775826206    -0.304156435877     1.007825032230
         H           -0.896701935322    -2.170923826206    -0.417053435877     1.007825032230
         H           -0.785580935322     1.773150173794     0.347332564123     1.007825032230
         H            2.365943064678    -0.819553826206    -0.170905435877     1.007825032230

  Basis Set: AUG-CC-PVTZ
    Blend: AUG-CC-PVTZ
  Basis Set: (AUG-CC-PVTZ AUX)
    Blend: AUG-CC-PVTZ-JKFIT
	 Reference Energy          =    -341.8356637650140328 [Eh]
	 Singles Energy            =      -0.0000000000000000 [Eh]
	 Same-Spin Energy          =      -0.3259299222219881 [Eh]
	 Opposite-Spin Energy      =      -1.0095577810840626 [Eh]
	 Correlation Energy        =      -1.3354877033060506 [Eh]
	 Total Energy              =    -343.1711514683200903 [Eh]

	 ================> DF-SCS-MP2 Energies <==================
	-----------------------------------------------------------
	 SCS Same-Spin Scale       =       0.3333333333333333 [-]
	 SCS Opposite-Spin Scale   =       1.2000000000000000 [-]
	 SCS Same-Spin Energy      =      -0.1086433074073294 [Eh]
	 SCS Opposite-Spin Energy  =      -1.2114693373008751 [Eh]
	 SCS Correlation Energy    =      -1.3201126447082046 [Eh]
	 SCS Total Energy          =    -343.1557764097222503 [Eh]
	-----------------------------------------------------------

  Dipole Moment: [D]
     X:     1.0195      Y:    -1.4791      Z:     0.3295     Total:     1.8264

*** Psi4 exiting successfully. Buy a developer a beer!
