                               Psi4 1.3.2 release

  ==> Input File <==

--------------------------------------------------------------------------
#psi4
#
memory 32 gb

molecule  {
0 1
  O       -1.4344650     1.0675660     0.2191520
  O        1.4425540    -1.0727980    -0.0074420
  O        1.2409190     1.1848430    -0.0695910
  C       -0.7273960    -0.1479950     0.3622400
  C       -1.3608000    -1.1844980    -0.5490290
  C        0.6866525     0.1661346     0.0646298
  H       -0.7692630    -0.5063940     1.4052130
  H       -1.2645370    -0.8668950    -1.5888250
  H       -2.4222350    -1.2600450    -0.3075440
  H       -0.8906180    -2.1601930    -0.4204410
  H       -0.7794970     1.7838810     0.3439450
  H        2.3720270    -0.8088230    -0.1742930
units angstrom
no_reorient  #important for SAPT in psi4, default
symmetry c1  #important for SAPT in psi4, default
}

set PROPERTIES_ORIGIN ["COM"]
properties('MP2/aug-cc-pvtz', properties = ['dipole'])
--------------------------------------------------------------------------

    Molecular point group: c1
  Charge       = 0
  Multiplicity = 1
  Basis Set: AUG-CC-PVTZ
    Blend: AUG-CC-PVTZ
  Basis Set: (AUG-CC-PVTZ AUX)
    Blend: AUG-CC-PVTZ-JKFIT

    Orbital Energies [Eh]
    ---------------------

    Doubly Occupied:

       1A    -20.604781     2A    -20.586988     3A    -20.571021
       4A    -11.402422     5A    -11.314451     6A    -11.234012
       7A     -1.482510     8A     -1.379627     9A     -1.364686
      10A     -1.058005    11A     -0.922356    12A     -0.793988
      13A     -0.737665    14A     -0.721734    15A     -0.694483
      16A     -0.632779    17A     -0.619672    18A     -0.583309
      19A     -0.564004    20A     -0.543660    21A     -0.542627
      22A     -0.508406    23A     -0.479164    24A     -0.458371

  @DF-RHF Final Energy:  -341.82651052235497

   => Energetics <=

    Nuclear Repulsion Energy =            249.9501630434960191
    One-Electron Energy =                -963.9519048667222023
    Two-Electron Energy =                 372.1752313008712463
    Total Energy =                       -341.8265105223549654
  Basis Set: (AUG-CC-PVTZ AUX)
    Blend: AUG-CC-PVTZ-RI
    Molecular point group: c1

    Geometry (in Angstrom), charge = 0, multiplicity = 1:

       Center              X                  Y                   Z               Mass
    ------------   -----------------  -----------------  -----------------  -----------------
         O           -1.427531388222     1.056201915418     0.218490898064    15.994914619570
         O            1.449487611778    -1.084162084582    -0.008103101936    15.994914619570
         O            1.247852611778     1.173478915418    -0.070252101936    15.994914619570
         C           -0.720462388222    -0.159359084582     0.361578898064    12.000000000000
         C           -1.353866388222    -1.195862084582    -0.549690101936    12.000000000000
         C            0.693586111778     0.154770515418     0.063968698064    12.000000000000
         H           -0.762329388222    -0.517758084582     1.404551898064     1.007825032230
         H           -1.257603388222    -0.878259084582    -1.589486101936     1.007825032230
         H           -2.415301388222    -1.271409084582    -0.308205101936     1.007825032230
         H           -0.883684388222    -2.171557084582    -0.421102101936     1.007825032230
         H           -0.772563388222     1.772516915418     0.343283898064     1.007825032230
         H            2.378960611778    -0.820187084582    -0.174954101936     1.007825032230

  Basis Set: AUG-CC-PVTZ
    Blend: AUG-CC-PVTZ
  Basis Set: (AUG-CC-PVTZ AUX)
    Blend: AUG-CC-PVTZ-JKFIT
	 Reference Energy          =    -341.8265105223549654 [Eh]
	 Singles Energy            =      -0.0000000000000000 [Eh]
	 Same-Spin Energy          =      -0.3269128889730769 [Eh]
	 Opposite-Spin Energy      =      -1.0121079347738158 [Eh]
	 Correlation Energy        =      -1.3390208237468926 [Eh]
	 Total Energy              =    -343.1655313461018295 [Eh]

	 ================> DF-SCS-MP2 Energies <==================
	-----------------------------------------------------------
	 SCS Same-Spin Scale       =       0.3333333333333333 [-]
	 SCS Opposite-Spin Scale   =       1.2000000000000000 [-]
	 SCS Same-Spin Energy      =      -0.1089709629910256 [Eh]
	 SCS Opposite-Spin Energy  =      -1.2145295217285790 [Eh]
	 SCS Correlation Energy    =      -1.3235004847196046 [Eh]
	 SCS Total Energy          =    -343.1500110070745677 [Eh]
	-----------------------------------------------------------

  Dipole Moment: [D]
     X:     0.7999      Y:    -1.1402      Z:     0.3325     Total:     1.4319

*** Psi4 exiting successfully. Buy a developer a beer!
