                               Psi4 1.4a3.dev225

  ==> Input File <==

--------------------------------------------------------------------------
#psi4
#
memory 32 gb

molecule  {
0 1
  O       -1.3959680    -1.1167090    -0.2833280
  O        1.5522570     0.9331460    -0.3210200
  O        1.1768320    -1.1502310     0.4959580
  C       -0.6816250     0.0987340    -0.4130150
  C       -1.2926720     1.1882940     0.4648960
  C        0.7675010    -0.1293310    -0.0365160
  H       -0.7109810     0.4129130    -1.4639800
  H       -1.2242180     0.8953450     1.5161010
  H       -2.3476110     1.2964270     0.2055410
  H       -0.7844450     2.1448300     0.3211210
  H       -0.8100540    -1.7212800     0.2125920
  H        2.4990689     0.6838303    -0.0009173
units angstrom
no_reorient  #important for SAPT in psi4, default
symmetry c1  #important for SAPT in psi4, default
}

set PROPERTIES_ORIGIN ["COM"]
properties('MP2/aug-cc-pvtz', properties = ['dipole'])
--------------------------------------------------------------------------

    Molecular point group: c1
  Charge       = 0
  Multiplicity = 1
  Basis Set: AUG-CC-PVTZ
    Blend: AUG-CC-PVTZ
  Basis Set: (AUG-CC-PVTZ AUX)
    Blend: AUG-CC-PVTZ-JKFIT

    Orbital Energies [Eh]
    ---------------------

    Doubly Occupied:

       1A    -20.638588     2A    -20.571361     3A    -20.564297
       4A    -11.404507     5A    -11.310976     6A    -11.234434
       7A     -1.475356     8A     -1.383587     9A     -1.359462
      10A     -1.051882    11A     -0.916240    12A     -0.808622
      13A     -0.742230    14A     -0.721277    15A     -0.668965
      16A     -0.640386    17A     -0.623890    18A     -0.589470
      19A     -0.569009    20A     -0.542764    21A     -0.530471
      22A     -0.500546    23A     -0.468403    24A     -0.456674

  @DF-RHF Final Energy:  -341.83204374914681

   => Energetics <=

    Nuclear Repulsion Energy =            249.2922894008052879
    One-Electron Energy =                -962.7018683737804849
    Two-Electron Energy =                 371.5775352238283631
    Total Energy =                       -341.8320437491468056
  Basis Set: (AUG-CC-PVTZ AUX)
    Blend: AUG-CC-PVTZ-RI
    Molecular point group: c1

    Geometry (in Angstrom), charge = 0, multiplicity = 1:

       Center              X                  Y                   Z               Mass
    ------------   -----------------  -----------------  -----------------  -----------------
         O           -1.434142663612    -1.075607420624    -0.274967991377    15.994914619570
         O            1.514082336388     0.974247579376    -0.312659991377    15.994914619570
         O            1.138657336388    -1.109129420624     0.504318008623    15.994914619570
         C           -0.719799663612     0.139835579376    -0.404654991377    12.000000000000
         C           -1.330846663612     1.229395579376     0.473256008623    12.000000000000
         C            0.729326336388    -0.088229420624    -0.028155991377    12.000000000000
         H           -0.749155663612     0.454014579376    -1.455619991377     1.007825032230
         H           -1.262392663612     0.936446579376     1.524461008623     1.007825032230
         H           -2.385785663612     1.337528579376     0.213901008623     1.007825032230
         H           -0.822619663612     2.185931579376     0.329481008623     1.007825032230
         H           -0.848228663612    -1.680178420624     0.220952008623     1.007825032230
         H            2.460894236388     0.724931879376     0.007442708623     1.007825032230

  Basis Set: AUG-CC-PVTZ
    Blend: AUG-CC-PVTZ
  Basis Set: (AUG-CC-PVTZ AUX)
    Blend: AUG-CC-PVTZ-JKFIT
	 Reference Energy          =    -341.8320437491468056 [Eh]
	 Singles Energy            =      -0.0000000000000000 [Eh]
	 Same-Spin Energy          =      -0.3278597338006931 [Eh]
	 Opposite-Spin Energy      =      -1.0132982334028491 [Eh]
	 Correlation Energy        =      -1.3411579672035421 [Eh]
	 Total Energy              =    -343.1732017163503201 [Eh]

	 ================> DF-SCS-MP2 Energies <==================
	-----------------------------------------------------------
	 SCS Same-Spin Scale       =       0.3333333333333333 [-]
	 SCS Opposite-Spin Scale   =       1.2000000000000000 [-]
	 SCS Same-Spin Energy      =      -0.1092865779335644 [Eh]
	 SCS Opposite-Spin Energy  =      -1.2159578800834188 [Eh]
	 SCS Correlation Energy    =      -1.3252444580169831 [Eh]
	 SCS Total Energy          =    -343.1572882071637878 [Eh]
	-----------------------------------------------------------

  Dipole Moment: [D]
     X:     1.3679      Y:     1.9657      Z:     0.0774     Total:     2.3961

*** Psi4 exiting successfully. Buy a developer a beer!
