                               Psi4 1.3.2 release

  ==> Input File <==

--------------------------------------------------------------------------
#psi4
#
memory 32 gb

molecule  {
0 1
  O       -1.4344650     1.0675660     0.2191520
  O        1.4425540    -1.0727980    -0.0074420
  O        1.2409190     1.1848430    -0.0695910
  C       -0.7273960    -0.1479950     0.3622400
  C       -1.3608000    -1.1844980    -0.5490290
  C        0.7386720     0.0808740     0.0596700
  H       -0.7730566    -0.5388686     1.4997170
  H       -1.2645370    -0.8668950    -1.5888250
  H       -2.4222350    -1.2600450    -0.3075440
  H       -0.8906180    -2.1601930    -0.4204410
  H       -0.7794970     1.7838810     0.3439450
  H        2.3720270    -0.8088230    -0.1742930
units angstrom
no_reorient  #important for SAPT in psi4, default
symmetry c1  #important for SAPT in psi4, default
}

set PROPERTIES_ORIGIN ["COM"]
properties('MP2/aug-cc-pvtz', properties = ['dipole'])
--------------------------------------------------------------------------

    Molecular point group: c1
  Charge       = 0
  Multiplicity = 1
  Basis Set: AUG-CC-PVTZ
    Blend: AUG-CC-PVTZ
  Basis Set: (AUG-CC-PVTZ AUX)
    Blend: AUG-CC-PVTZ-JKFIT

    Orbital Energies [Eh]
    ---------------------

    Doubly Occupied:

       1A    -20.633942     2A    -20.570852     3A    -20.569393
       4A    -11.404469     5A    -11.322992     6A    -11.232523
       7A     -1.480287     8A     -1.387396     9A     -1.363083
      10A     -1.050401    11A     -0.917925    12A     -0.806481
      13A     -0.739299    14A     -0.721002    15A     -0.682467
      16A     -0.638273    17A     -0.620032    18A     -0.586287
      19A     -0.562007    20A     -0.540769    21A     -0.534984
      22A     -0.500360    23A     -0.474223    24A     -0.449018

  @DF-RHF Final Energy:  -341.83019177489967

   => Energetics <=

    Nuclear Repulsion Energy =            249.1592380889302376
    One-Electron Energy =                -962.4019283274458303
    Two-Electron Energy =                 371.4124984636159184
    Total Energy =                       -341.8301917748996743
  Basis Set: (AUG-CC-PVTZ AUX)
    Blend: AUG-CC-PVTZ-RI
    Molecular point group: c1

    Geometry (in Angstrom), charge = 0, multiplicity = 1:

       Center              X                  Y                   Z               Mass
    ------------   -----------------  -----------------  -----------------  -----------------
         O           -1.434422413893     1.067929517857     0.218094083395    15.994914619570
         O            1.442596586107    -1.072434482143    -0.008499916605    15.994914619570
         O            1.240961586107     1.185206517857    -0.070648916605    15.994914619570
         C           -0.727353413893    -0.147631482143     0.361182083395    12.000000000000
         C           -1.360757413893    -1.184134482143    -0.550086916605    12.000000000000
         C            0.738714586107     0.081237517857     0.058612083395    12.000000000000
         H           -0.773014013893    -0.538505082143     1.498659083395     1.007825032230
         H           -1.264494413893    -0.866531482143    -1.589882916605     1.007825032230
         H           -2.422192413893    -1.259681482143    -0.308601916605     1.007825032230
         H           -0.890575413893    -2.159829482143    -0.421498916605     1.007825032230
         H           -0.779454413893     1.784244517857     0.342887083395     1.007825032230
         H            2.372069586107    -0.808459482143    -0.175350916605     1.007825032230

  Basis Set: AUG-CC-PVTZ
    Blend: AUG-CC-PVTZ
  Basis Set: (AUG-CC-PVTZ AUX)
    Blend: AUG-CC-PVTZ-JKFIT
	 Reference Energy          =    -341.8301917748996743 [Eh]
	 Singles Energy            =      -0.0000000000000000 [Eh]
	 Same-Spin Energy          =      -0.3273099324042438 [Eh]
	 Opposite-Spin Energy      =      -1.0126246505419405 [Eh]
	 Correlation Energy        =      -1.3399345829461844 [Eh]
	 Total Energy              =    -343.1701263578458452 [Eh]

	 ================> DF-SCS-MP2 Energies <==================
	-----------------------------------------------------------
	 SCS Same-Spin Scale       =       0.3333333333333333 [-]
	 SCS Opposite-Spin Scale   =       1.2000000000000000 [-]
	 SCS Same-Spin Energy      =      -0.1091033108014146 [Eh]
	 SCS Opposite-Spin Energy  =      -1.2151495806503285 [Eh]
	 SCS Correlation Energy    =      -1.3242528914517431 [Eh]
	 SCS Total Energy          =    -343.1544446663514236 [Eh]
	-----------------------------------------------------------

  Dipole Moment: [D]
     X:     1.2000      Y:    -1.8000      Z:     0.2494     Total:     2.1777

*** Psi4 exiting successfully. Buy a developer a beer!
