                               Psi4 1.3.2 release

  ==> Input File <==

--------------------------------------------------------------------------
#psi4
#
memory 32 gb

molecule  {
0 1
  O       -1.4963637     1.0314895     0.2376841
  O        1.4425540    -1.0727980    -0.0074420
  O        1.2409190     1.1848430    -0.0695910
  C       -0.7273960    -0.1479950     0.3622400
  C       -1.3608000    -1.1844980    -0.5490290
  C        0.7515292     0.0040038     0.0742093
  H       -0.7692630    -0.5063940     1.4052130
  H       -1.2645370    -0.8668950    -1.5888250
  H       -2.4222350    -1.2600450    -0.3075440
  H       -0.8906180    -2.1601930    -0.4204410
  H       -0.7794970     1.7838810     0.3439450
  H        2.3720270    -0.8088230    -0.1742930
units angstrom
no_reorient  #important for SAPT in psi4, default
symmetry c1  #important for SAPT in psi4, default
}

set PROPERTIES_ORIGIN ["COM"]
properties('MP2/aug-cc-pvtz', properties = ['dipole'])
--------------------------------------------------------------------------

    Molecular point group: c1
  Charge       = 0
  Multiplicity = 1
  Basis Set: AUG-CC-PVTZ
    Blend: AUG-CC-PVTZ
  Basis Set: (AUG-CC-PVTZ AUX)
    Blend: AUG-CC-PVTZ-JKFIT

    Orbital Energies [Eh]
    ---------------------

    Doubly Occupied:

       1A    -20.656090     2A    -20.573009     3A    -20.556844
       4A    -11.409773     5A    -11.310789     6A    -11.230547
       7A     -1.511345     8A     -1.369679     9A     -1.334063
      10A     -1.053421    11A     -0.927359    12A     -0.829985
      13A     -0.741037    14A     -0.723788    15A     -0.689474
      16A     -0.646241    17A     -0.614547    18A     -0.586263
      19A     -0.557660    20A     -0.543014    21A     -0.521343
      22A     -0.481045    23A     -0.466604    24A     -0.450976

  @DF-RHF Final Energy:  -341.81523796949239

   => Energetics <=

    Nuclear Repulsion Energy =            248.8857063477053657
    One-Electron Energy =                -961.8320974309922349
    Two-Electron Energy =                 371.1311531137945394
    Total Energy =                       -341.8152379694923866
  Basis Set: (AUG-CC-PVTZ AUX)
    Blend: AUG-CC-PVTZ-RI
    Molecular point group: c1

    Geometry (in Angstrom), charge = 0, multiplicity = 1:

       Center              X                  Y                   Z               Mass
    ------------   -----------------  -----------------  -----------------  -----------------
         O           -1.487080426541     1.048144549833     0.232453792057    15.994914619570
         O            1.451837273459    -1.056142950167    -0.012672307943    15.994914619570
         O            1.250202273459     1.201498049833    -0.074821307943    15.994914619570
         C           -0.718112726541    -0.131339950167     0.357009692057    12.000000000000
         C           -1.351516726541    -1.167842950167    -0.554259307943    12.000000000000
         C            0.760812473459     0.020658849833     0.068978992057    12.000000000000
         H           -0.759979726541    -0.489738950167     1.399982692057     1.007825032230
         H           -1.255253726541    -0.850239950167    -1.594055307943     1.007825032230
         H           -2.412951726541    -1.243389950167    -0.312774307943     1.007825032230
         H           -0.881334726541    -2.143537950167    -0.425671307943     1.007825032230
         H           -0.770213726541     1.800536049833     0.338714692057     1.007825032230
         H            2.381310273459    -0.792167950167    -0.179523307943     1.007825032230

  Basis Set: AUG-CC-PVTZ
    Blend: AUG-CC-PVTZ
  Basis Set: (AUG-CC-PVTZ AUX)
    Blend: AUG-CC-PVTZ-JKFIT
	 Reference Energy          =    -341.8152379694923866 [Eh]
	 Singles Energy            =      -0.0000000000000000 [Eh]
	 Same-Spin Energy          =      -0.3293286089308933 [Eh]
	 Opposite-Spin Energy      =      -1.0157917075692771 [Eh]
	 Correlation Energy        =      -1.3451203165001704 [Eh]
	 Total Energy              =    -343.1603582859925723 [Eh]

	 ================> DF-SCS-MP2 Energies <==================
	-----------------------------------------------------------
	 SCS Same-Spin Scale       =       0.3333333333333333 [-]
	 SCS Opposite-Spin Scale   =       1.2000000000000000 [-]
	 SCS Same-Spin Energy      =      -0.1097762029769644 [Eh]
	 SCS Opposite-Spin Energy  =      -1.2189500490831324 [Eh]
	 SCS Correlation Energy    =      -1.3287262520600969 [Eh]
	 SCS Total Energy          =    -343.1439642215524941 [Eh]
	-----------------------------------------------------------

  Dipole Moment: [D]
     X:     1.4815      Y:    -2.3627      Z:     0.2802     Total:     2.8028

*** Psi4 exiting successfully. Buy a developer a beer!
