                               Psi4 1.3.2 release

  ==> Input File <==

--------------------------------------------------------------------------
#psi4
#
memory 32 gb

molecule  {
0 1
  O       -1.4344650     1.0675660     0.2191520
  O        1.4425540    -1.0727980    -0.0074420
  O        1.2409190     1.1848430    -0.0695910
  C       -0.7273960    -0.1479950     0.3622400
  C       -1.3608000    -1.1844980    -0.5490290
  C        0.8427110    -0.0896472     0.0497504
  H       -0.7692630    -0.5063940     1.4052130
  H       -1.2645370    -0.8668950    -1.5888250
  H       -2.4222350    -1.2600450    -0.3075440
  H       -0.8906180    -2.1601930    -0.4204410
  H       -0.7794970     1.7838810     0.3439450
  H        2.3720270    -0.8088230    -0.1742930
units angstrom
no_reorient  #important for SAPT in psi4, default
symmetry c1  #important for SAPT in psi4, default
}

set PROPERTIES_ORIGIN ["COM"]
properties('MP2/aug-cc-pvtz', properties = ['dipole'])
--------------------------------------------------------------------------

    Molecular point group: c1
  Charge       = 0
  Multiplicity = 1
  Basis Set: AUG-CC-PVTZ
    Blend: AUG-CC-PVTZ
  Basis Set: (AUG-CC-PVTZ AUX)
    Blend: AUG-CC-PVTZ-JKFIT

    Orbital Energies [Eh]
    ---------------------

    Doubly Occupied:

       1A    -20.689773     2A    -20.560654     3A    -20.534103
       4A    -11.404866     5A    -11.309569     6A    -11.227483
       7A     -1.603401     8A     -1.366186     9A     -1.298928
      10A     -1.047124    11A     -0.948136    12A     -0.847590
      13A     -0.781993    14A     -0.726390    15A     -0.717428
      16A     -0.665708    17A     -0.601874    18A     -0.583349
      19A     -0.557132    20A     -0.539547    21A     -0.499264
      22A     -0.459998    23A     -0.452249    24A     -0.427560

  @DF-RHF Final Energy:  -341.77154313297268

   => Energetics <=

    Nuclear Repulsion Energy =            249.6694969998025897
    One-Electron Energy =                -963.1814699681583534
    Two-Electron Energy =                 371.7404298353830541
    Total Energy =                       -341.7715431329726812
  Basis Set: (AUG-CC-PVTZ AUX)
    Blend: AUG-CC-PVTZ-RI
    Molecular point group: c1

    Geometry (in Angstrom), charge = 0, multiplicity = 1:

       Center              X                  Y                   Z               Mass
    ------------   -----------------  -----------------  -----------------  -----------------
         O           -1.448331863207     1.090294149628     0.220474119660    15.994914619570
         O            1.428687136793    -1.050069850372    -0.006119880340    15.994914619570
         O            1.227052136793     1.207571149628    -0.068268880340    15.994914619570
         C           -0.741262863207    -0.125266850372     0.363562119660    12.000000000000
         C           -1.374666863207    -1.161769850372    -0.547706880340    12.000000000000
         C            0.828844136793    -0.066919050372     0.051072519660    12.000000000000
         H           -0.783129863207    -0.483665850372     1.406535119660     1.007825032230
         H           -1.278403863207    -0.844166850372    -1.587502880340     1.007825032230
         H           -2.436101863207    -1.237316850372    -0.306221880340     1.007825032230
         H           -0.904484863207    -2.137464850372    -0.419118880340     1.007825032230
         H           -0.793363863207     1.806609149628     0.345267119660     1.007825032230
         H            2.358160136793    -0.786094850372    -0.172970880340     1.007825032230

  Basis Set: AUG-CC-PVTZ
    Blend: AUG-CC-PVTZ
  Basis Set: (AUG-CC-PVTZ AUX)
    Blend: AUG-CC-PVTZ-JKFIT
	 Reference Energy          =    -341.7715431329726812 [Eh]
	 Singles Energy            =      -0.0000000000000000 [Eh]
	 Same-Spin Energy          =      -0.3286800976028207 [Eh]
	 Opposite-Spin Energy      =      -1.0132644925215888 [Eh]
	 Correlation Energy        =      -1.3419445901244096 [Eh]
	 Total Energy              =    -343.1134877230970801 [Eh]

	 ================> DF-SCS-MP2 Energies <==================
	-----------------------------------------------------------
	 SCS Same-Spin Scale       =       0.3333333333333333 [-]
	 SCS Opposite-Spin Scale   =       1.2000000000000000 [-]
	 SCS Same-Spin Energy      =      -0.1095600325342736 [Eh]
	 SCS Opposite-Spin Energy  =      -1.2159173910259065 [Eh]
	 SCS Correlation Energy    =      -1.3254774235601801 [Eh]
	 SCS Total Energy          =    -343.0970205565328683 [Eh]
	-----------------------------------------------------------

  Dipole Moment: [D]
     X:     1.8725      Y:    -3.2391      Z:     0.2804     Total:     3.7519

*** Psi4 exiting successfully. Buy a developer a beer!
