                               Psi4 1.4a3.dev225

  ==> Input File <==

--------------------------------------------------------------------------
#psi4
#
memory 32 gb

molecule  {
0 1
  O       -1.3959680    -1.1167090    -0.2833280
  O        1.5522570     0.9331460    -0.3210200
  O        1.1768320    -1.1502310     0.4959580
  C       -0.6816250     0.0987340    -0.4130150
  C       -1.2926720     1.1882940     0.4648960
  C        0.7675010    -0.1293310    -0.0365160
  H       -0.7109810     0.4129130    -1.4639800
  H       -1.2242180     0.8953450     1.5161010
  H       -2.3476110     1.2964270     0.2055410
  H       -0.7844450     2.1448300     0.3211210
  H       -0.8400361    -1.6903432     0.1872150
  H        2.4531110     0.6959320    -0.0164550
units angstrom
no_reorient  #important for SAPT in psi4, default
symmetry c1  #important for SAPT in psi4, default
}

set PROPERTIES_ORIGIN ["COM"]
properties('MP2/aug-cc-pvtz', properties = ['dipole'])
--------------------------------------------------------------------------

    Molecular point group: c1
  Charge       = 0
  Multiplicity = 1
  Basis Set: AUG-CC-PVTZ
    Blend: AUG-CC-PVTZ
  Basis Set: (AUG-CC-PVTZ AUX)
    Blend: AUG-CC-PVTZ-JKFIT

    Orbital Energies [Eh]
    ---------------------

    Doubly Occupied:

       1A    -20.635753     2A    -20.571788     3A    -20.561701
       4A    -11.405463     5A    -11.312128     6A    -11.235284
       7A     -1.481757     8A     -1.393002     9A     -1.366956
      10A     -1.056206    11A     -0.920314    12A     -0.818887
      13A     -0.747766    14A     -0.725948    15A     -0.672410
      16A     -0.645883    17A     -0.626331    18A     -0.592262
      19A     -0.571182    20A     -0.544836    21A     -0.535011
      22A     -0.501492    23A     -0.468668    24A     -0.459238

  @DF-RHF Final Energy:  -341.83777669181075

   => Energetics <=

    Nuclear Repulsion Energy =            249.8474151372377037
    One-Electron Energy =                -963.6698543557220091
    Two-Electron Energy =                 371.9846625266735600
    Total Energy =                       -341.8377766918107454
  Basis Set: (AUG-CC-PVTZ AUX)
    Blend: AUG-CC-PVTZ-RI
    Molecular point group: c1

    Geometry (in Angstrom), charge = 0, multiplicity = 1:

       Center              X                  Y                   Z               Mass
    ------------   -----------------  -----------------  -----------------  -----------------
         O           -1.433292582608    -1.076089198492    -0.274509987567    15.994914619570
         O            1.514932417392     0.973765801508    -0.312201987567    15.994914619570
         O            1.139507417392    -1.109611198492     0.504776012433    15.994914619570
         C           -0.718949582608     0.139353801508    -0.404196987567    12.000000000000
         C           -1.329996582608     1.228913801508     0.473714012433    12.000000000000
         C            0.730176417392    -0.088711198492    -0.027697987567    12.000000000000
         H           -0.748305582608     0.453532801508    -1.455161987567     1.007825032230
         H           -1.261542582608     0.935964801508     1.524919012433     1.007825032230
         H           -2.384935582608     1.337046801508     0.214359012433     1.007825032230
         H           -0.821769582608     2.185449801508     0.329939012433     1.007825032230
         H           -0.877360682608    -1.649723398492     0.196033012433     1.007825032230
         H            2.415786417392     0.736551801508    -0.007636987567     1.007825032230

  Basis Set: AUG-CC-PVTZ
    Blend: AUG-CC-PVTZ
  Basis Set: (AUG-CC-PVTZ AUX)
    Blend: AUG-CC-PVTZ-JKFIT
	 Reference Energy          =    -341.8377766918107454 [Eh]
	 Singles Energy            =      -0.0000000000000000 [Eh]
	 Same-Spin Energy          =      -0.3265280091711794 [Eh]
	 Opposite-Spin Energy      =      -1.0103207579073852 [Eh]
	 Correlation Energy        =      -1.3368487670785645 [Eh]
	 Total Energy              =    -343.1746254588892953 [Eh]

	 ================> DF-SCS-MP2 Energies <==================
	-----------------------------------------------------------
	 SCS Same-Spin Scale       =       0.3333333333333333 [-]
	 SCS Opposite-Spin Scale   =       1.2000000000000000 [-]
	 SCS Same-Spin Energy      =      -0.1088426697237265 [Eh]
	 SCS Opposite-Spin Energy  =      -1.2123849094888621 [Eh]
	 SCS Correlation Energy    =      -1.3212275792125885 [Eh]
	 SCS Total Energy          =    -343.1590042710233206 [Eh]
	-----------------------------------------------------------

  Dipole Moment: [D]
     X:     1.2561      Y:     2.0024      Z:     0.0370     Total:     2.3640

*** Psi4 exiting successfully. Buy a developer a beer!
