                               Psi4 1.3.2 release

  ==> Input File <==

--------------------------------------------------------------------------
#psi4
#
memory 32 gb

molecule  {
0 1
  O       -1.4419307     1.0621933     0.2109329
  O        1.4425540    -1.0727980    -0.0074420
  O        1.2409190     1.1848430    -0.0695910
  C       -0.7273960    -0.1479950     0.3622400
  C       -1.3696178    -1.1754700    -0.5530724
  C        0.7386720     0.0808740     0.0596700
  H       -0.7692630    -0.5063940     1.4052130
  H       -1.2645370    -0.8668950    -1.5888250
  H       -2.4222350    -1.2600450    -0.3075440
  H       -0.8906180    -2.1601930    -0.4204410
  H       -0.7794970     1.7838810     0.3439450
  H        2.3720270    -0.8088230    -0.1742930
units angstrom
no_reorient  #important for SAPT in psi4, default
symmetry c1  #important for SAPT in psi4, default
}

set PROPERTIES_ORIGIN ["COM"]
properties('MP2/aug-cc-pvtz', properties = ['dipole'])
--------------------------------------------------------------------------

    Molecular point group: c1
  Charge       = 0
  Multiplicity = 1
  Basis Set: AUG-CC-PVTZ
    Blend: AUG-CC-PVTZ
  Basis Set: (AUG-CC-PVTZ AUX)
    Blend: AUG-CC-PVTZ-JKFIT

    Orbital Energies [Eh]
    ---------------------

    Doubly Occupied:

       1A    -20.634249     2A    -20.570842     3A    -20.567856
       4A    -11.403868     5A    -11.311218     6A    -11.230998
       7A     -1.480394     8A     -1.386058     9A     -1.361467
      10A     -1.052265    11A     -0.918981    12A     -0.811099
      13A     -0.737668    14A     -0.722391    15A     -0.690636
      16A     -0.639058    17A     -0.621699    18A     -0.585057
      19A     -0.561467    20A     -0.540633    21A     -0.533256
      22A     -0.500414    23A     -0.474946    24A     -0.454734

  @DF-RHF Final Energy:  -341.83574271610433

   => Energetics <=

    Nuclear Repulsion Energy =            249.5878449076328138
    One-Electron Energy =                -963.2646697141188952
    Two-Electron Energy =                 371.8410820903818035
    Total Energy =                       -341.8357427161043347
  Basis Set: (AUG-CC-PVTZ AUX)
    Blend: AUG-CC-PVTZ-RI
    Molecular point group: c1

    Geometry (in Angstrom), charge = 0, multiplicity = 1:

       Center              X                  Y                   Z               Mass
    ------------   -----------------  -----------------  -----------------  -----------------
         O           -1.439428940472     1.061944490858     0.212931996844    15.994914619570
         O            1.445055759528    -1.073046809142    -0.005442903156    15.994914619570
         O            1.243420759528     1.184594190858    -0.067591903156    15.994914619570
         C           -0.724894240472    -0.148243809142     0.364239096844    12.000000000000
         C           -1.367116040472    -1.175718809142    -0.551073303156    12.000000000000
         C            0.741173759528     0.080625190858     0.061669096844    12.000000000000
         H           -0.766761240472    -0.506642809142     1.407212096844     1.007825032230
         H           -1.262035240472    -0.867143809142    -1.586825903156     1.007825032230
         H           -2.419733240472    -1.260293809142    -0.305544903156     1.007825032230
         H           -0.888116240472    -2.160441809142    -0.418441903156     1.007825032230
         H           -0.776995240472     1.783632190858     0.345944096844     1.007825032230
         H            2.374528759528    -0.809071809142    -0.172293903156     1.007825032230

  Basis Set: AUG-CC-PVTZ
    Blend: AUG-CC-PVTZ
  Basis Set: (AUG-CC-PVTZ AUX)
    Blend: AUG-CC-PVTZ-JKFIT
	 Reference Energy          =    -341.8357427161043347 [Eh]
	 Singles Energy            =      -0.0000000000000000 [Eh]
	 Same-Spin Energy          =      -0.3273070664312998 [Eh]
	 Opposite-Spin Energy      =      -1.0121652017164120 [Eh]
	 Correlation Energy        =      -1.3394722681477118 [Eh]
	 Total Energy              =    -343.1752149842520225 [Eh]

	 ================> DF-SCS-MP2 Energies <==================
	-----------------------------------------------------------
	 SCS Same-Spin Scale       =       0.3333333333333333 [-]
	 SCS Opposite-Spin Scale   =       1.2000000000000000 [-]
	 SCS Same-Spin Energy      =      -0.1091023554770999 [Eh]
	 SCS Opposite-Spin Energy  =      -1.2145982420596944 [Eh]
	 SCS Correlation Energy    =      -1.3237005975367944 [Eh]
	 SCS Total Energy          =    -343.1594433136411340 [Eh]
	-----------------------------------------------------------

  Dipole Moment: [D]
     X:     1.2372      Y:    -1.8228      Z:     0.3230     Total:     2.2266

*** Psi4 exiting successfully. Buy a developer a beer!
