                               Psi4 1.4a3.dev225

  ==> Input File <==

--------------------------------------------------------------------------
#psi4
#
memory 32 gb

molecule  {
0 1
  O       -1.3959680    -1.1167090    -0.2833280
  O        1.5522570     0.9331460    -0.3210200
  O        1.1768320    -1.1502310     0.4959580
  C       -0.6816250     0.0987340    -0.4130150
  C       -1.2926720     1.1882940     0.4648960
  C        0.7675010    -0.1293310    -0.0365160
  H       -0.7115161     0.4186393    -1.4831352
  H       -1.2242180     0.8953450     1.5161010
  H       -2.3476110     1.2964270     0.2055410
  H       -0.7844450     2.1448300     0.3211210
  H       -0.8100540    -1.7212800     0.2125920
  H        2.4531110     0.6959320    -0.0164550
units angstrom
no_reorient  #important for SAPT in psi4, default
symmetry c1  #important for SAPT in psi4, default
}

set PROPERTIES_ORIGIN ["COM"]
properties('MP2/aug-cc-pvtz', properties = ['dipole'])
--------------------------------------------------------------------------

    Molecular point group: c1
  Charge       = 0
  Multiplicity = 1
  Basis Set: AUG-CC-PVTZ
    Blend: AUG-CC-PVTZ
  Basis Set: (AUG-CC-PVTZ AUX)
    Blend: AUG-CC-PVTZ-JKFIT

    Orbital Energies [Eh]
    ---------------------

    Doubly Occupied:

       1A    -20.635853     2A    -20.572458     3A    -20.564956
       4A    -11.405688     5A    -11.313599     6A    -11.234964
       7A     -1.481836     8A     -1.387461     9A     -1.361029
      10A     -1.052567    11A     -0.919624    12A     -0.813102
      13A     -0.743783    14A     -0.726093    15A     -0.669201
      16A     -0.642582    17A     -0.625579    18A     -0.590373
      19A     -0.569678    20A     -0.543110    21A     -0.531378
      22A     -0.502037    23A     -0.468930    24A     -0.456550

  @DF-RHF Final Energy:  -341.83650331170054

   => Energetics <=

    Nuclear Repulsion Energy =            249.4802480241752107
    One-Electron Energy =                -963.0086414264293353
    Two-Electron Energy =                 371.6918900905535565
    Total Energy =                       -341.8365033117005396
  Basis Set: (AUG-CC-PVTZ AUX)
    Blend: AUG-CC-PVTZ-RI
    Molecular point group: c1

    Geometry (in Angstrom), charge = 0, multiplicity = 1:

       Center              X                  Y                   Z               Mass
    ------------   -----------------  -----------------  -----------------  -----------------
         O           -1.433622215678    -1.075806989285    -0.274579635105    15.994914619570
         O            1.514602784322     0.974048010715    -0.312271635105    15.994914619570
         O            1.139177784322    -1.109328989285     0.504706364895    15.994914619570
         C           -0.719279215678     0.139636010715    -0.404266635105    12.000000000000
         C           -1.330326215678     1.229196010715     0.473644364895    12.000000000000
         C            0.729846784322    -0.088428989285    -0.027767635105    12.000000000000
         H           -0.749170315678     0.459541310715    -1.474386835105     1.007825032230
         H           -1.261872215678     0.936247010715     1.524849364895     1.007825032230
         H           -2.385265215678     1.337329010715     0.214289364895     1.007825032230
         H           -0.822099215678     2.185732010715     0.329869364895     1.007825032230
         H           -0.847708215678    -1.680377989285     0.221340364895     1.007825032230
         H            2.415456784322     0.736834010715    -0.007706635105     1.007825032230

  Basis Set: AUG-CC-PVTZ
    Blend: AUG-CC-PVTZ
  Basis Set: (AUG-CC-PVTZ AUX)
    Blend: AUG-CC-PVTZ-JKFIT
	 Reference Energy          =    -341.8365033117005396 [Eh]
	 Singles Energy            =      -0.0000000000000000 [Eh]
	 Same-Spin Energy          =      -0.3272524632359567 [Eh]
	 Opposite-Spin Energy      =      -1.0119428193890363 [Eh]
	 Correlation Energy        =      -1.3391952826249929 [Eh]
	 Total Energy              =    -343.1756985943255245 [Eh]

	 ================> DF-SCS-MP2 Energies <==================
	-----------------------------------------------------------
	 SCS Same-Spin Scale       =       0.3333333333333333 [-]
	 SCS Opposite-Spin Scale   =       1.2000000000000000 [-]
	 SCS Same-Spin Energy      =      -0.1090841544119856 [Eh]
	 SCS Opposite-Spin Energy  =      -1.2143313832668434 [Eh]
	 SCS Correlation Energy    =      -1.3234155376788290 [Eh]
	 SCS Total Energy          =    -343.1599188493793804 [Eh]
	-----------------------------------------------------------

  Dipole Moment: [D]
     X:     1.3002      Y:     1.9613      Z:     0.0709     Total:     2.3542

*** Psi4 exiting successfully. Buy a developer a beer!
