                               Psi4 1.4a3.dev225

  ==> Input File <==

--------------------------------------------------------------------------
#psi4
#
memory 32 gb

molecule  {
0 1
  O       -1.3959680    -1.1167090    -0.2833280
  O        1.5522570     0.9331460    -0.3210200
  O        1.1768320    -1.1502310     0.4959580
  C       -0.6816250     0.0987340    -0.4130150
  C       -1.2926720     1.1882940     0.4648960
  C        0.7675010    -0.1293310    -0.0365160
  H       -0.7104459     0.4071867    -1.4448248
  H       -1.2242180     0.8953450     1.5161010
  H       -2.3476110     1.2964270     0.2055410
  H       -0.7844450     2.1448300     0.3211210
  H       -0.8100540    -1.7212800     0.2125920
  H        2.4531110     0.6959320    -0.0164550
units angstrom
no_reorient  #important for SAPT in psi4, default
symmetry c1  #important for SAPT in psi4, default
}

set PROPERTIES_ORIGIN ["COM"]
properties('MP2/aug-cc-pvtz', properties = ['dipole'])
--------------------------------------------------------------------------

    Molecular point group: c1
  Charge       = 0
  Multiplicity = 1
  Basis Set: AUG-CC-PVTZ
    Blend: AUG-CC-PVTZ
  Basis Set: (AUG-CC-PVTZ AUX)
    Blend: AUG-CC-PVTZ-JKFIT

    Orbital Energies [Eh]
    ---------------------

    Doubly Occupied:

       1A    -20.635976     2A    -20.572290     3A    -20.564304
       4A    -11.405392     5A    -11.308919     6A    -11.234629
       7A     -1.481864     8A     -1.387282     9A     -1.360796
      10A     -1.054152    11A     -0.920099    12A     -0.816121
      13A     -0.744363    14A     -0.726489    15A     -0.671227
      16A     -0.643835    17A     -0.626066    18A     -0.590144
      19A     -0.569511    20A     -0.543533    21A     -0.532377
      22A     -0.501973    23A     -0.469501    24A     -0.457480

  @DF-RHF Final Energy:  -341.83720783465168

   => Energetics <=

    Nuclear Repulsion Energy =            249.6885047479721322
    One-Electron Energy =                -963.4147813445273414
    Two-Electron Energy =                 371.8890687619035020
    Total Energy =                       -341.8372078346516787
  Basis Set: (AUG-CC-PVTZ AUX)
    Blend: AUG-CC-PVTZ-RI
    Molecular point group: c1

    Geometry (in Angstrom), charge = 0, multiplicity = 1:

       Center              X                  Y                   Z               Mass
    ------------   -----------------  -----------------  -----------------  -----------------
         O           -1.433634195618    -1.075678787577    -0.275008486084    15.994914619570
         O            1.514590804382     0.974176212423    -0.312700486084    15.994914619570
         O            1.139165804382    -1.109200787577     0.504277513916    15.994914619570
         C           -0.719291195618     0.139764212423    -0.404695486084    12.000000000000
         C           -1.330338195618     1.229324212423     0.473215513916    12.000000000000
         C            0.729834804382    -0.088300787577    -0.028196486084    12.000000000000
         H           -0.748112095618     0.448216912423    -1.436505286084     1.007825032230
         H           -1.261884195618     0.936375212423     1.524420513916     1.007825032230
         H           -2.385277195618     1.337457212423     0.213860513916     1.007825032230
         H           -0.822111195618     2.185860212423     0.329440513916     1.007825032230
         H           -0.847720195618    -1.680249787577     0.220911513916     1.007825032230
         H            2.415444804382     0.736962212423    -0.008135486084     1.007825032230

  Basis Set: AUG-CC-PVTZ
    Blend: AUG-CC-PVTZ
  Basis Set: (AUG-CC-PVTZ AUX)
    Blend: AUG-CC-PVTZ-JKFIT
	 Reference Energy          =    -341.8372078346516787 [Eh]
	 Singles Energy            =      -0.0000000000000000 [Eh]
	 Same-Spin Energy          =      -0.3271963498732870 [Eh]
	 Opposite-Spin Energy      =      -1.0116541141589213 [Eh]
	 Correlation Energy        =      -1.3388504640322083 [Eh]
	 Total Energy              =    -343.1760582986838699 [Eh]

	 ================> DF-SCS-MP2 Energies <==================
	-----------------------------------------------------------
	 SCS Same-Spin Scale       =       0.3333333333333333 [-]
	 SCS Opposite-Spin Scale   =       1.2000000000000000 [-]
	 SCS Same-Spin Energy      =      -0.1090654499577623 [Eh]
	 SCS Opposite-Spin Energy  =      -1.2139849369907054 [Eh]
	 SCS Correlation Energy    =      -1.3230503869484678 [Eh]
	 SCS Total Energy          =    -343.1602582216001451 [Eh]
	-----------------------------------------------------------

  Dipole Moment: [D]
     X:     1.3072      Y:     1.9715      Z:     0.0571     Total:     2.3662

*** Psi4 exiting successfully. Buy a developer a beer!
