                               Psi4 1.3.2 release

  ==> Input File <==

--------------------------------------------------------------------------
#psi4
#
memory 32 gb

molecule  {
0 1
  O       -1.4344650     1.0675660     0.2191520
  O        1.4028343    -1.0966054     0.0018445
  O        1.2409190     1.1848430    -0.0695910
  C       -0.7180404    -0.2000007     0.3636163
  C       -1.3608000    -1.1844980    -0.5490290
  C        0.7386720     0.0808740     0.0596700
  H       -0.7692630    -0.5063940     1.4052130
  H       -1.2645370    -0.8668950    -1.5888250
  H       -2.4222350    -1.2600450    -0.3075440
  H       -0.8906180    -2.1601930    -0.4204410
  H       -0.7794970     1.7838810     0.3439450
  H        2.3720270    -0.8088230    -0.1742930
units angstrom
no_reorient  #important for SAPT in psi4, default
symmetry c1  #important for SAPT in psi4, default
}

set PROPERTIES_ORIGIN ["COM"]
properties('MP2/aug-cc-pvtz', properties = ['dipole'])
--------------------------------------------------------------------------

    Molecular point group: c1
  Charge       = 0
  Multiplicity = 1
  Basis Set: AUG-CC-PVTZ
    Blend: AUG-CC-PVTZ
  Basis Set: (AUG-CC-PVTZ AUX)
    Blend: AUG-CC-PVTZ-JKFIT

    Orbital Energies [Eh]
    ---------------------

    Doubly Occupied:

       1A    -20.639837     2A    -20.574462     3A    -20.559603
       4A    -11.405416     5A    -11.309593     6A    -11.230941
       7A     -1.477177     8A     -1.381168     9A     -1.347109
      10A     -1.059670    11A     -0.918501    12A     -0.802523
      13A     -0.733647    14A     -0.717956    15A     -0.687863
      16A     -0.638716    17A     -0.622745    18A     -0.581155
      19A     -0.560419    20A     -0.537941    21A     -0.529182
      22A     -0.502656    23A     -0.477240    24A     -0.456297

  @DF-RHF Final Energy:  -341.82668721412898

   => Energetics <=

    Nuclear Repulsion Energy =            249.4344370497007901
    One-Electron Energy =                -963.0186143649658561
    Two-Electron Energy =                 371.7574901011360566
    Total Energy =                       -341.8266872141289809
  Basis Set: (AUG-CC-PVTZ AUX)
    Blend: AUG-CC-PVTZ-RI
    Molecular point group: c1

    Geometry (in Angstrom), charge = 0, multiplicity = 1:

       Center              X                  Y                   Z               Mass
    ------------   -----------------  -----------------  -----------------  -----------------
         O           -1.428655303426     1.078727237768     0.217318702253    15.994914619570
         O            1.408643996574    -1.085444162232     0.000011202253    15.994914619570
         O            1.246728696574     1.196004237768    -0.071424297747    15.994914619570
         C           -0.712230703426    -0.188839462232     0.361783002253    12.000000000000
         C           -1.354990303426    -1.173336762232    -0.550862297747    12.000000000000
         C            0.744481696574     0.092035237768     0.057836702253    12.000000000000
         H           -0.763453303426    -0.495232762232     1.403379702253     1.007825032230
         H           -1.258727303426    -0.855733762232    -1.590658297747     1.007825032230
         H           -2.416425303426    -1.248883762232    -0.309377297747     1.007825032230
         H           -0.884808303426    -2.149031762232    -0.422274297747     1.007825032230
         H           -0.773687303426     1.795042237768     0.342111702253     1.007825032230
         H            2.377836696574    -0.797661762232    -0.176126297747     1.007825032230

  Basis Set: AUG-CC-PVTZ
    Blend: AUG-CC-PVTZ
  Basis Set: (AUG-CC-PVTZ AUX)
    Blend: AUG-CC-PVTZ-JKFIT
	 Reference Energy          =    -341.8266872141289809 [Eh]
	 Singles Energy            =      -0.0000000000000000 [Eh]
	 Same-Spin Energy          =      -0.3284121059492604 [Eh]
	 Opposite-Spin Energy      =      -1.0150165597887904 [Eh]
	 Correlation Energy        =      -1.3434286657380508 [Eh]
	 Total Energy              =    -343.1701158798670122 [Eh]

	 ================> DF-SCS-MP2 Energies <==================
	-----------------------------------------------------------
	 SCS Same-Spin Scale       =       0.3333333333333333 [-]
	 SCS Opposite-Spin Scale   =       1.2000000000000000 [-]
	 SCS Same-Spin Energy      =      -0.1094707019830868 [Eh]
	 SCS Opposite-Spin Energy  =      -1.2180198717465485 [Eh]
	 SCS Correlation Energy    =      -1.3274905737296352 [Eh]
	 SCS Total Energy          =    -343.1541777878586004 [Eh]
	-----------------------------------------------------------

  Dipole Moment: [D]
     X:     1.3930      Y:    -1.9934      Z:     0.2891     Total:     2.4490

*** Psi4 exiting successfully. Buy a developer a beer!
