                               Psi4 1.3.2 release

  ==> Input File <==

--------------------------------------------------------------------------
#psi4
#
memory 32 gb

molecule  {
0 1
  O       -1.4344650     1.0675660     0.2191520
  O        1.4425540    -1.0727980    -0.0074420
  O        1.2409190     1.1848430    -0.0695910
  C       -0.7242054    -0.1407102     0.3516400
  C       -1.3608000    -1.1844980    -0.5490290
  C        0.7386720     0.0808740     0.0596700
  H       -0.7692630    -0.5063940     1.4052130
  H       -1.2600221    -0.8590141    -1.5859562
  H       -2.4222350    -1.2600450    -0.3075440
  H       -0.8906180    -2.1601930    -0.4204410
  H       -0.7794970     1.7838810     0.3439450
  H        2.3720270    -0.8088230    -0.1742930
units angstrom
no_reorient  #important for SAPT in psi4, default
symmetry c1  #important for SAPT in psi4, default
}

set PROPERTIES_ORIGIN ["COM"]
properties('MP2/aug-cc-pvtz', properties = ['dipole'])
--------------------------------------------------------------------------

    Molecular point group: c1
  Charge       = 0
  Multiplicity = 1
  Basis Set: AUG-CC-PVTZ
    Blend: AUG-CC-PVTZ
  Basis Set: (AUG-CC-PVTZ AUX)
    Blend: AUG-CC-PVTZ-JKFIT

    Orbital Energies [Eh]
    ---------------------

    Doubly Occupied:

       1A    -20.634179     2A    -20.570321     3A    -20.567860
       4A    -11.403395     5A    -11.311657     6A    -11.231495
       7A     -1.480440     8A     -1.388015     9A     -1.363569
      10A     -1.053578    11A     -0.919369    12A     -0.811198
      13A     -0.739985    14A     -0.722337    15A     -0.690670
      16A     -0.639321    17A     -0.621513    18A     -0.586277
      19A     -0.561331    20A     -0.542646    21A     -0.535297
      22A     -0.500276    23A     -0.474369    24A     -0.452996

  @DF-RHF Final Energy:  -341.83668728213587

   => Energetics <=

    Nuclear Repulsion Energy =            249.8138859688697551
    One-Electron Energy =                -963.6969600406072232
    Two-Electron Energy =                 372.0463867896016268
    Total Energy =                       -341.8366872821358697
  Basis Set: (AUG-CC-PVTZ AUX)
    Blend: AUG-CC-PVTZ-RI
    Molecular point group: c1

    Geometry (in Angstrom), charge = 0, multiplicity = 1:

       Center              X                  Y                   Z               Mass
    ------------   -----------------  -----------------  -----------------  -----------------
         O           -1.434940683762     1.066506809060     0.220532694050    15.994914619570
         O            1.442078316238    -1.073857190940    -0.006061305950    15.994914619570
         O            1.240443316238     1.183783809060    -0.068210305950    15.994914619570
         C           -0.724681083762    -0.141769390940     0.353020694050    12.000000000000
         C           -1.361275683762    -1.185557190940    -0.547648305950    12.000000000000
         C            0.738196316238     0.079814809060     0.061050694050    12.000000000000
         H           -0.769738683762    -0.507453190939     1.406593694050     1.007825032230
         H           -1.260497783762    -0.860073290940    -1.584575505950     1.007825032230
         H           -2.422710683762    -1.261104190940    -0.306163305950     1.007825032230
         H           -0.891093683762    -2.161252190940    -0.419060305950     1.007825032230
         H           -0.779972683762     1.782821809060     0.345325694050     1.007825032230
         H            2.371551316238    -0.809882190940    -0.172912305950     1.007825032230

  Basis Set: AUG-CC-PVTZ
    Blend: AUG-CC-PVTZ
  Basis Set: (AUG-CC-PVTZ AUX)
    Blend: AUG-CC-PVTZ-JKFIT
	 Reference Energy          =    -341.8366872821358697 [Eh]
	 Singles Energy            =      -0.0000000000000000 [Eh]
	 Same-Spin Energy          =      -0.3271934873515787 [Eh]
	 Opposite-Spin Energy      =      -1.0117344594010054 [Eh]
	 Correlation Energy        =      -1.3389279467525841 [Eh]
	 Total Energy              =    -343.1756152288884323 [Eh]

	 ================> DF-SCS-MP2 Energies <==================
	-----------------------------------------------------------
	 SCS Same-Spin Scale       =       0.3333333333333333 [-]
	 SCS Opposite-Spin Scale   =       1.2000000000000000 [-]
	 SCS Same-Spin Energy      =      -0.1090644957838596 [Eh]
	 SCS Opposite-Spin Energy  =      -1.2140813512812063 [Eh]
	 SCS Correlation Energy    =      -1.3231458470650659 [Eh]
	 SCS Total Energy          =    -343.1598331292009334 [Eh]
	-----------------------------------------------------------

  Dipole Moment: [D]
     X:     1.2115      Y:    -1.8220      Z:     0.2958     Total:     2.2079

*** Psi4 exiting successfully. Buy a developer a beer!
