                               Psi4 1.4a3.dev225

  ==> Input File <==

--------------------------------------------------------------------------
#psi4
#
memory 32 gb

molecule  {
0 1
  O       -1.3959680    -1.1167090    -0.2833280
  O        1.5522570     0.9331460    -0.3210200
  O        1.1768320    -1.1502310     0.4959580
  C       -0.6816250     0.0987340    -0.4130150
  C       -1.2926720     1.1882940     0.4648960
  C        0.7483644    -0.1263193    -0.0414879
  H       -0.7109810     0.4129130    -1.4639800
  H       -1.2242180     0.8953450     1.5161010
  H       -2.3476110     1.2964270     0.2055410
  H       -0.7844450     2.1448300     0.3211210
  H       -0.8100540    -1.7212800     0.2125920
  H        2.4531110     0.6959320    -0.0164550
units angstrom
no_reorient  #important for SAPT in psi4, default
symmetry c1  #important for SAPT in psi4, default
}

set PROPERTIES_ORIGIN ["COM"]
properties('MP2/aug-cc-pvtz', properties = ['dipole'])
--------------------------------------------------------------------------

    Molecular point group: c1
  Charge       = 0
  Multiplicity = 1
  Basis Set: AUG-CC-PVTZ
    Blend: AUG-CC-PVTZ
  Basis Set: (AUG-CC-PVTZ AUX)
    Blend: AUG-CC-PVTZ-JKFIT

    Orbital Energies [Eh]
    ---------------------

    Doubly Occupied:

       1A    -20.634108     2A    -20.571676     3A    -20.565816
       4A    -11.407307     5A    -11.312243     6A    -11.236399
       7A     -1.476668     8A     -1.384650     9A     -1.357953
      10A     -1.057908    11A     -0.923455    12A     -0.814382
      13A     -0.744994    14A     -0.723824    15A     -0.670234
      16A     -0.641815    17A     -0.622733    18A     -0.590688
      19A     -0.570424    20A     -0.544572    21A     -0.531734
      22A     -0.498365    23A     -0.471593    24A     -0.458684

  @DF-RHF Final Energy:  -341.83510801770024

   => Energetics <=

    Nuclear Repulsion Energy =            249.5990294292806482
    One-Electron Energy =                -963.2438291742272440
    Two-Electron Energy =                 371.8096917272463315
    Total Energy =                       -341.8351080177002359
  Basis Set: (AUG-CC-PVTZ AUX)
    Blend: AUG-CC-PVTZ-RI
    Molecular point group: c1

    Geometry (in Angstrom), charge = 0, multiplicity = 1:

       Center              X                  Y                   Z               Mass
    ------------   -----------------  -----------------  -----------------  -----------------
         O           -1.431077557208    -1.076144307069    -0.274131373963    15.994914619570
         O            1.517147442792     0.973710692931    -0.311823373963    15.994914619570
         O            1.141722442792    -1.109666307069     0.505154626037    15.994914619570
         C           -0.716734557208     0.139298692931    -0.403818373963    12.000000000000
         C           -1.327781557208     1.228858692931     0.474092626037    12.000000000000
         C            0.713254842792    -0.085754607069    -0.032291273963    12.000000000000
         H           -0.746090557208     0.453477692931    -1.454783373963     1.007825032230
         H           -1.259327557208     0.935909692931     1.525297626037     1.007825032230
         H           -2.382720557208     1.336991692931     0.214737626037     1.007825032230
         H           -0.819554557208     2.185394692931     0.330317626037     1.007825032230
         H           -0.845163557208    -1.680715307069     0.221788626037     1.007825032230
         H            2.418001442792     0.736496692931    -0.007258373963     1.007825032230

  Basis Set: AUG-CC-PVTZ
    Blend: AUG-CC-PVTZ
  Basis Set: (AUG-CC-PVTZ AUX)
    Blend: AUG-CC-PVTZ-JKFIT
	 Reference Energy          =    -341.8351080177002359 [Eh]
	 Singles Energy            =      -0.0000000000000000 [Eh]
	 Same-Spin Energy          =      -0.3276101281298663 [Eh]
	 Opposite-Spin Energy      =      -1.0125578284250989 [Eh]
	 Correlation Energy        =      -1.3401679565549651 [Eh]
	 Total Energy              =    -343.1752759742552144 [Eh]

	 ================> DF-SCS-MP2 Energies <==================
	-----------------------------------------------------------
	 SCS Same-Spin Scale       =       0.3333333333333333 [-]
	 SCS Opposite-Spin Scale   =       1.2000000000000000 [-]
	 SCS Same-Spin Energy      =      -0.1092033760432888 [Eh]
	 SCS Opposite-Spin Energy  =      -1.2150693941101187 [Eh]
	 SCS Correlation Energy    =      -1.3242727701534074 [Eh]
	 SCS Total Energy          =    -343.1593807878536495 [Eh]
	-----------------------------------------------------------

  Dipole Moment: [D]
     X:     1.1957      Y:     1.9817      Z:     0.0482     Total:     2.3150

*** Psi4 exiting successfully. Buy a developer a beer!
