                               Psi4 1.3.2 release

  ==> Input File <==

--------------------------------------------------------------------------
#psi4
#
memory 32 gb

molecule  {
0 1
  O       -1.4344650     1.0675660     0.2191520
  O        1.4227983    -1.0848792    -0.0028083
  O        1.2409190     1.1848430    -0.0695910
  C       -0.7229408    -0.1740367     0.3629743
  C       -1.3608000    -1.1844980    -0.5490290
  C        0.7386720     0.0808740     0.0596700
  H       -0.7692630    -0.5063940     1.4052130
  H       -1.2645370    -0.8668950    -1.5888250
  H       -2.4222350    -1.2600450    -0.3075440
  H       -0.8906180    -2.1601930    -0.4204410
  H       -0.7794970     1.7838810     0.3439450
  H        2.3720270    -0.8088230    -0.1742930
units angstrom
no_reorient  #important for SAPT in psi4, default
symmetry c1  #important for SAPT in psi4, default
}

set PROPERTIES_ORIGIN ["COM"]
properties('MP2/aug-cc-pvtz', properties = ['dipole'])
--------------------------------------------------------------------------

    Molecular point group: c1
  Charge       = 0
  Multiplicity = 1
  Basis Set: AUG-CC-PVTZ
    Blend: AUG-CC-PVTZ
  Basis Set: (AUG-CC-PVTZ AUX)
    Blend: AUG-CC-PVTZ-JKFIT

    Orbital Energies [Eh]
    ---------------------

    Doubly Occupied:

       1A    -20.636995     2A    -20.572456     3A    -20.563347
       4A    -11.404390     5A    -11.310398     6A    -11.231195
       7A     -1.478563     8A     -1.382876     9A     -1.355336
      10A     -1.056482    11A     -0.918479    12A     -0.806962
      13A     -0.735326    14A     -0.720528    15A     -0.689578
      16A     -0.639124    17A     -0.622124    18A     -0.582074
      19A     -0.560901    20A     -0.539697    21A     -0.533024
      22A     -0.501306    23A     -0.476135    24A     -0.455722

  @DF-RHF Final Energy:  -341.83306455520699

   => Energetics <=

    Nuclear Repulsion Energy =            249.5328563837965135
    One-Electron Energy =                -963.1858055589522110
    Two-Electron Energy =                 371.8198846199487662
    Total Energy =                       -341.8330645552069882
  Basis Set: (AUG-CC-PVTZ AUX)
    Blend: AUG-CC-PVTZ-RI
    Molecular point group: c1

    Geometry (in Angstrom), charge = 0, multiplicity = 1:

       Center              X                  Y                   Z               Mass
    ------------   -----------------  -----------------  -----------------  -----------------
         O           -1.431548925257     1.073183328226     0.218230882564    15.994914619570
         O            1.425714374743    -1.079261871774    -0.003729417436    15.994914619570
         O            1.243835074743     1.190460328226    -0.070512117436    15.994914619570
         C           -0.720024725257    -0.168419371774     0.362053182564    12.000000000000
         C           -1.357883925257    -1.178880671774    -0.549950117436    12.000000000000
         C            0.741588074743     0.086491328226     0.058748882564    12.000000000000
         H           -0.766346925257    -0.500776671774     1.404291882564     1.007825032230
         H           -1.261620925257    -0.861277671774    -1.589746117436     1.007825032230
         H           -2.419318925257    -1.254427671774    -0.308465117436     1.007825032230
         H           -0.887701925257    -2.154575671774    -0.421362117436     1.007825032230
         H           -0.776580925257     1.789498328226     0.343023882564     1.007825032230
         H            2.374943074743    -0.803205671774    -0.175214117436     1.007825032230

  Basis Set: AUG-CC-PVTZ
    Blend: AUG-CC-PVTZ
  Basis Set: (AUG-CC-PVTZ AUX)
    Blend: AUG-CC-PVTZ-JKFIT
	 Reference Energy          =    -341.8330645552069882 [Eh]
	 Singles Energy            =      -0.0000000000000000 [Eh]
	 Same-Spin Energy          =      -0.3277313132610837 [Eh]
	 Opposite-Spin Energy      =      -1.0132990192282134 [Eh]
	 Correlation Energy        =      -1.3410303324892971 [Eh]
	 Total Energy              =    -343.1740948876962989 [Eh]

	 ================> DF-SCS-MP2 Energies <==================
	-----------------------------------------------------------
	 SCS Same-Spin Scale       =       0.3333333333333333 [-]
	 SCS Opposite-Spin Scale   =       1.2000000000000000 [-]
	 SCS Same-Spin Energy      =      -0.1092437710870279 [Eh]
	 SCS Opposite-Spin Energy  =      -1.2159588230738561 [Eh]
	 SCS Correlation Energy    =      -1.3252025941608840 [Eh]
	 SCS Total Energy          =    -343.1582671493678731 [Eh]
	-----------------------------------------------------------

  Dipole Moment: [D]
     X:     1.3098      Y:    -1.9181      Z:     0.2995     Total:     2.3419

*** Psi4 exiting successfully. Buy a developer a beer!
