                               Psi4 1.3.2 release

  ==> Input File <==

--------------------------------------------------------------------------
#psi4
#
memory 32 gb

molecule  {
0 1
  O       -1.4344650     1.0675660     0.2191520
  O        1.4425540    -1.0727980    -0.0074420
  O        1.2409190     1.1848430    -0.0695910
  C       -0.7273960    -0.1479950     0.3622400
  C       -1.3190885    -1.1162413    -0.4890193
  C        0.7386720     0.0808740     0.0596700
  H       -0.7692630    -0.5063940     1.4052130
  H       -1.2645370    -0.8668950    -1.5888250
  H       -2.4222350    -1.2600450    -0.3075440
  H       -0.8906180    -2.1601930    -0.4204410
  H       -0.7794970     1.7838810     0.3439450
  H        2.3720270    -0.8088230    -0.1742930
units angstrom
no_reorient  #important for SAPT in psi4, default
symmetry c1  #important for SAPT in psi4, default
}

set PROPERTIES_ORIGIN ["COM"]
properties('MP2/aug-cc-pvtz', properties = ['dipole'])
--------------------------------------------------------------------------

    Molecular point group: c1
  Charge       = 0
  Multiplicity = 1
  Basis Set: AUG-CC-PVTZ
    Blend: AUG-CC-PVTZ
  Basis Set: (AUG-CC-PVTZ AUX)
    Blend: AUG-CC-PVTZ-JKFIT

    Orbital Energies [Eh]
    ---------------------

    Doubly Occupied:

       1A    -20.634606     2A    -20.571430     3A    -20.567138
       4A    -11.404375     5A    -11.307639     6A    -11.234795
       7A     -1.481125     8A     -1.388070     9A     -1.364048
      10A     -1.071857    11A     -0.914086    12A     -0.811504
      13A     -0.741320    14A     -0.723600    15A     -0.695719
      16A     -0.643848    17A     -0.622486    18A     -0.599719
      19A     -0.549756    20A     -0.537090    21A     -0.519740
      22A     -0.501095    23A     -0.481077    24A     -0.451978

  @DF-RHF Final Energy:  -341.82488678085036

   => Energetics <=

    Nuclear Repulsion Energy =            251.3264211809478468
    One-Electron Energy =                -966.6664170230856143
    Two-Electron Energy =                 373.5151090612874327
    Total Energy =                       -341.8248867808503633
  Basis Set: (AUG-CC-PVTZ AUX)
    Blend: AUG-CC-PVTZ-RI
    Molecular point group: c1

    Geometry (in Angstrom), charge = 0, multiplicity = 1:

       Center              X                  Y                   Z               Mass
    ------------   -----------------  -----------------  -----------------  -----------------
         O           -1.440024455378     1.058468303962     0.211153495308    15.994914619570
         O            1.436994544622    -1.081895696038    -0.015440504692    15.994914619570
         O            1.235359544622     1.175745303962    -0.077589504692    15.994914619570
         C           -0.732955455378    -0.157092696038     0.354241495308    12.000000000000
         C           -1.324647955378    -1.125338996038    -0.497017804692    12.000000000000
         C            0.733112544622     0.071776303962     0.051671495308    12.000000000000
         H           -0.774822455378    -0.515491696038     1.397214495308     1.007825032230
         H           -1.270096455378    -0.875992696038    -1.596823504692     1.007825032230
         H           -2.427794455378    -1.269142696038    -0.315542504692     1.007825032230
         H           -0.896177455378    -2.169290696038    -0.428439504692     1.007825032230
         H           -0.785056455378     1.774783303962     0.335946495308     1.007825032230
         H            2.366467544622    -0.817920696038    -0.182291504692     1.007825032230

  Basis Set: AUG-CC-PVTZ
    Blend: AUG-CC-PVTZ
  Basis Set: (AUG-CC-PVTZ AUX)
    Blend: AUG-CC-PVTZ-JKFIT
	 Reference Energy          =    -341.8248867808503633 [Eh]
	 Singles Energy            =      -0.0000000000000000 [Eh]
	 Same-Spin Energy          =      -0.3282008383832926 [Eh]
	 Opposite-Spin Energy      =      -1.0130743596192013 [Eh]
	 Correlation Energy        =      -1.3412751980024940 [Eh]
	 Total Energy              =    -343.1661619788528697 [Eh]

	 ================> DF-SCS-MP2 Energies <==================
	-----------------------------------------------------------
	 SCS Same-Spin Scale       =       0.3333333333333333 [-]
	 SCS Opposite-Spin Scale   =       1.2000000000000000 [-]
	 SCS Same-Spin Energy      =      -0.1094002794610975 [Eh]
	 SCS Opposite-Spin Energy  =      -1.2156892315430416 [Eh]
	 SCS Correlation Energy    =      -1.3250895110041392 [Eh]
	 SCS Total Energy          =    -343.1499762918545002 [Eh]
	-----------------------------------------------------------

  Dipole Moment: [D]
     X:     1.2496      Y:    -1.8677      Z:     0.3005     Total:     2.2671

*** Psi4 exiting successfully. Buy a developer a beer!
