                               Psi4 1.3.2 release

  ==> Input File <==

--------------------------------------------------------------------------
#psi4
#
memory 32 gb

molecule  {
0 1
  O       -1.4493419     1.0567284     0.2027253
  O        1.4425540    -1.0727980    -0.0074420
  O        1.2409190     1.1848430    -0.0695910
  C       -0.7273960    -0.1479950     0.3622400
  C       -1.3783866    -1.1663637    -0.5570460
  C        0.7386720     0.0808740     0.0596700
  H       -0.7692630    -0.5063940     1.4052130
  H       -1.2645370    -0.8668950    -1.5888250
  H       -2.4222350    -1.2600450    -0.3075440
  H       -0.8906180    -2.1601930    -0.4204410
  H       -0.7794970     1.7838810     0.3439450
  H        2.3720270    -0.8088230    -0.1742930
units angstrom
no_reorient  #important for SAPT in psi4, default
symmetry c1  #important for SAPT in psi4, default
}

set PROPERTIES_ORIGIN ["COM"]
properties('MP2/aug-cc-pvtz', properties = ['dipole'])
--------------------------------------------------------------------------

    Molecular point group: c1
  Charge       = 0
  Multiplicity = 1
  Basis Set: AUG-CC-PVTZ
    Blend: AUG-CC-PVTZ
  Basis Set: (AUG-CC-PVTZ AUX)
    Blend: AUG-CC-PVTZ-JKFIT

    Orbital Energies [Eh]
    ---------------------

    Doubly Occupied:

       1A    -20.634438     2A    -20.571217     3A    -20.568691
       4A    -11.404245     5A    -11.310987     6A    -11.230595
       7A     -1.480571     8A     -1.385563     9A     -1.360744
      10A     -1.051222    11A     -0.919391    12A     -0.810366
      13A     -0.736733    14A     -0.722618    15A     -0.690150
      16A     -0.638862    17A     -0.621916    18A     -0.585075
      19A     -0.562377    20A     -0.539466    21A     -0.530828
      22A     -0.500639    23A     -0.475542    24A     -0.454813

  @DF-RHF Final Energy:  -341.83392808160710

   => Energetics <=

    Nuclear Repulsion Energy =            249.5270259418028616
    One-Electron Energy =                -963.1478129578197240
    Two-Electron Energy =                 371.7868589344097359
    Total Energy =                       -341.8339280816070982
  Basis Set: (AUG-CC-PVTZ AUX)
    Blend: AUG-CC-PVTZ-RI
    Molecular point group: c1

    Geometry (in Angstrom), charge = 0, multiplicity = 1:

       Center              X                  Y                   Z               Mass
    ------------   -----------------  -----------------  -----------------  -----------------
         O           -1.444354714494     1.056236732037     0.206712175294    15.994914619570
         O            1.447541185506    -1.073289667963    -0.003455124706    15.994914619570
         O            1.245906185506     1.184351332037    -0.065604124706    15.994914619570
         C           -0.722408814494    -0.148486667963     0.366226875294    12.000000000000
         C           -1.373399414494    -1.166855367963    -0.553059124706    12.000000000000
         C            0.743659185506     0.080382332037     0.063656875294    12.000000000000
         H           -0.764275814494    -0.506885667963     1.409199875294     1.007825032230
         H           -1.259549814494    -0.867386667963    -1.584838124706     1.007825032230
         H           -2.417247814494    -1.260536667963    -0.303557124706     1.007825032230
         H           -0.885630814494    -2.160684667963    -0.416454124706     1.007825032230
         H           -0.774509814494     1.783389332037     0.347931875294     1.007825032230
         H            2.377014185506    -0.809314667963    -0.170306124706     1.007825032230

  Basis Set: AUG-CC-PVTZ
    Blend: AUG-CC-PVTZ
  Basis Set: (AUG-CC-PVTZ AUX)
    Blend: AUG-CC-PVTZ-JKFIT
	 Reference Energy          =    -341.8339280816070982 [Eh]
	 Singles Energy            =      -0.0000000000000000 [Eh]
	 Same-Spin Energy          =      -0.3274894000093302 [Eh]
	 Opposite-Spin Energy      =      -1.0126115515055321 [Eh]
	 Correlation Energy        =      -1.3401009515148623 [Eh]
	 Total Energy              =    -343.1740290331219398 [Eh]

	 ================> DF-SCS-MP2 Energies <==================
	-----------------------------------------------------------
	 SCS Same-Spin Scale       =       0.3333333333333333 [-]
	 SCS Opposite-Spin Scale   =       1.2000000000000000 [-]
	 SCS Same-Spin Energy      =      -0.1091631333364434 [Eh]
	 SCS Opposite-Spin Energy  =      -1.2151338618066385 [Eh]
	 SCS Correlation Energy    =      -1.3242969951430819 [Eh]
	 SCS Total Energy          =    -343.1582250767501705 [Eh]
	-----------------------------------------------------------

  Dipole Moment: [D]
     X:     1.2502      Y:    -1.8036      Z:     0.3375     Total:     2.2204

*** Psi4 exiting successfully. Buy a developer a beer!
