                               Psi4 1.3.2 release

  ==> Input File <==

--------------------------------------------------------------------------
#psi4
#
memory 32 gb

molecule  {
0 1
  O       -1.4344650     1.0675660     0.2191520
  O        1.4425540    -1.0727980    -0.0074420
  O        1.2409190     1.1848430    -0.0695910
  C       -0.6658947    -0.1085751     0.3740752
  C       -1.3608000    -1.1844980    -0.5490290
  C        0.7386720     0.0808740     0.0596700
  H       -0.7692630    -0.5063940     1.4052130
  H       -1.2645370    -0.8668950    -1.5888250
  H       -2.4222350    -1.2600450    -0.3075440
  H       -0.8906180    -2.1601930    -0.4204410
  H       -0.7436269     1.7480049     0.3510955
  H        2.3720270    -0.8088230    -0.1742930
units angstrom
no_reorient  #important for SAPT in psi4, default
symmetry c1  #important for SAPT in psi4, default
}

set PROPERTIES_ORIGIN ["COM"]
properties('MP2/aug-cc-pvtz', properties = ['dipole'])
--------------------------------------------------------------------------

    Molecular point group: c1
  Charge       = 0
  Multiplicity = 1
  Basis Set: AUG-CC-PVTZ
    Blend: AUG-CC-PVTZ
  Basis Set: (AUG-CC-PVTZ AUX)
    Blend: AUG-CC-PVTZ-JKFIT

    Orbital Energies [Eh]
    ---------------------

    Doubly Occupied:

       1A    -20.635894     2A    -20.571482     3A    -20.570413
       4A    -11.404095     5A    -11.309502     6A    -11.234558
       7A     -1.483688     8A     -1.391342     9A     -1.364728
      10A     -1.051029    11A     -0.926266    12A     -0.810696
      13A     -0.743577    14A     -0.726076    15A     -0.690124
      16A     -0.638539    17A     -0.622296    18A     -0.584572
      19A     -0.557901    20A     -0.544284    21A     -0.535790
      22A     -0.501566    23A     -0.475630    24A     -0.454327

  @DF-RHF Final Energy:  -341.82925356963045

   => Energetics <=

    Nuclear Repulsion Energy =            250.2577186612808759
    One-Electron Energy =                -964.5171946479501912
    Two-Electron Energy =                 372.4302224170388058
    Total Energy =                       -341.8292535696304526
  Basis Set: (AUG-CC-PVTZ AUX)
    Blend: AUG-CC-PVTZ-RI
    Molecular point group: c1

    Geometry (in Angstrom), charge = 0, multiplicity = 1:

       Center              X                  Y                   Z               Mass
    ------------   -----------------  -----------------  -----------------  -----------------
         O           -1.443063700475     1.062713458245     0.217494457267    15.994914619570
         O            1.433955299525    -1.077650541755    -0.009099542733    15.994914619570
         O            1.232320299525     1.179990458245    -0.071248542733    15.994914619570
         C           -0.674493400475    -0.113427641755     0.372417657267    12.000000000000
         C           -1.369398700475    -1.189350541755    -0.550686542733    12.000000000000
         C            0.730073299525     0.076021458245     0.058012457267    12.000000000000
         H           -0.777861700475    -0.511246541755     1.403555457267     1.007825032230
         H           -1.273135700475    -0.871747541755    -1.590482542733     1.007825032230
         H           -2.430833700475    -1.264897541755    -0.309201542733     1.007825032230
         H           -0.899216700475    -2.165045541755    -0.422098542733     1.007825032230
         H           -0.752225600475     1.743152358245     0.349437957267     1.007825032230
         H            2.363428299525    -0.813675541755    -0.175950542733     1.007825032230

  Basis Set: AUG-CC-PVTZ
    Blend: AUG-CC-PVTZ
  Basis Set: (AUG-CC-PVTZ AUX)
    Blend: AUG-CC-PVTZ-JKFIT
	 Reference Energy          =    -341.8292535696304526 [Eh]
	 Singles Energy            =      -0.0000000000000000 [Eh]
	 Same-Spin Energy          =      -0.3277267531690696 [Eh]
	 Opposite-Spin Energy      =      -1.0129365765194716 [Eh]
	 Correlation Energy        =      -1.3406633296885411 [Eh]
	 Total Energy              =    -343.1699168993189915 [Eh]

	 ================> DF-SCS-MP2 Energies <==================
	-----------------------------------------------------------
	 SCS Same-Spin Scale       =       0.3333333333333333 [-]
	 SCS Opposite-Spin Scale   =       1.2000000000000000 [-]
	 SCS Same-Spin Energy      =      -0.1092422510563565 [Eh]
	 SCS Opposite-Spin Energy  =      -1.2155238918233657 [Eh]
	 SCS Correlation Energy    =      -1.3247661428797222 [Eh]
	 SCS Total Energy          =    -343.1540197125101486 [Eh]
	-----------------------------------------------------------

  Dipole Moment: [D]
     X:     1.2614      Y:    -1.8552      Z:     0.3476     Total:     2.2701

*** Psi4 exiting successfully. Buy a developer a beer!
