                               Psi4 1.3.2 release

  ==> Input File <==

--------------------------------------------------------------------------
#psi4
#
memory 32 gb

molecule  {
0 1
  O       -1.4344650     1.0675660     0.2191520
  O        1.4425540    -1.0727980    -0.0074420
  O        1.2409190     1.1848430    -0.0695910
  C       -0.7273960    -0.1479950     0.3622400
  C       -1.3608000    -1.1844980    -0.5490290
  C        0.7386720     0.0808740     0.0596700
  H       -0.7616758    -0.4414448     1.2162050
  H       -1.2645370    -0.8668950    -1.5888250
  H       -2.4222350    -1.2600450    -0.3075440
  H       -0.8906180    -2.1601930    -0.4204410
  H       -0.7794970     1.7838810     0.3439450
  H        2.3720270    -0.8088230    -0.1742930
units angstrom
no_reorient  #important for SAPT in psi4, default
symmetry c1  #important for SAPT in psi4, default
}

set PROPERTIES_ORIGIN ["COM"]
properties('MP2/aug-cc-pvtz', properties = ['dipole'])
--------------------------------------------------------------------------

    Molecular point group: c1
  Charge       = 0
  Multiplicity = 1
  Basis Set: AUG-CC-PVTZ
    Blend: AUG-CC-PVTZ
  Basis Set: (AUG-CC-PVTZ AUX)
    Blend: AUG-CC-PVTZ-JKFIT

    Orbital Energies [Eh]
    ---------------------

    Doubly Occupied:

       1A    -20.634652     2A    -20.570432     3A    -20.563867
       4A    -11.402478     5A    -11.287026     6A    -11.230169
       7A     -1.480605     8A     -1.386213     9A     -1.361576
      10A     -1.065859    11A     -0.922763    12A     -0.832099
      13A     -0.739258    14A     -0.728194    15A     -0.705183
      16A     -0.641407    17A     -0.623667    18A     -0.583835
      19A     -0.560860    20A     -0.546120    21A     -0.532907
      22A     -0.500250    23A     -0.475806    24A     -0.461789

  @DF-RHF Final Energy:  -341.80611239466123

   => Energetics <=

    Nuclear Repulsion Energy =            250.8193131505464066
    One-Electron Energy =                -965.5768184789677662
    Two-Electron Energy =                 372.9513929337600757
    Total Energy =                       -341.8061123946612270
  Basis Set: (AUG-CC-PVTZ AUX)
    Blend: AUG-CC-PVTZ-RI
    Molecular point group: c1

    Geometry (in Angstrom), charge = 0, multiplicity = 1:

       Center              X                  Y                   Z               Mass
    ------------   -----------------  -----------------  -----------------  -----------------
         O           -1.434549811864     1.066838944749     0.221267748997    15.994914619570
         O            1.442469188136    -1.073525055251    -0.005326251003    15.994914619570
         O            1.240834188136     1.184115944749    -0.067475251003    15.994914619570
         C           -0.727480811864    -0.148722055251     0.364355748997    12.000000000000
         C           -1.360884811864    -1.185225055251    -0.546913251003    12.000000000000
         C            0.738587188136     0.080146944749     0.061785748997    12.000000000000
         H           -0.761760611864    -0.442171855251     1.218320748997     1.007825032230
         H           -1.264621811864    -0.867622055251    -1.586709251003     1.007825032230
         H           -2.422319811864    -1.260772055251    -0.305428251003     1.007825032230
         H           -0.890702811864    -2.160920055251    -0.418325251003     1.007825032230
         H           -0.779581811864     1.783153944749     0.346060748997     1.007825032230
         H            2.371942188136    -0.809550055251    -0.172177251003     1.007825032230

  Basis Set: AUG-CC-PVTZ
    Blend: AUG-CC-PVTZ
  Basis Set: (AUG-CC-PVTZ AUX)
    Blend: AUG-CC-PVTZ-JKFIT
	 Reference Energy          =    -341.8061123946612270 [Eh]
	 Singles Energy            =      -0.0000000000000000 [Eh]
	 Same-Spin Energy          =      -0.3270038685620695 [Eh]
	 Opposite-Spin Energy      =      -1.0110226800792206 [Eh]
	 Correlation Energy        =      -1.3380265486412901 [Eh]
	 Total Energy              =    -343.1441389433024938 [Eh]

	 ================> DF-SCS-MP2 Energies <==================
	-----------------------------------------------------------
	 SCS Same-Spin Scale       =       0.3333333333333333 [-]
	 SCS Opposite-Spin Scale   =       1.2000000000000000 [-]
	 SCS Same-Spin Energy      =      -0.1090012895206898 [Eh]
	 SCS Opposite-Spin Energy  =      -1.2132272160950646 [Eh]
	 SCS Correlation Energy    =      -1.3222285056157543 [Eh]
	 SCS Total Energy          =    -343.1283409002769531 [Eh]
	-----------------------------------------------------------

  Dipole Moment: [D]
     X:     1.2756      Y:    -1.8944      Z:     0.3596     Total:     2.3120

*** Psi4 exiting successfully. Buy a developer a beer!
