                               Psi4 1.4a3.dev225

  ==> Input File <==

--------------------------------------------------------------------------
#psi4
#
memory 32 gb

molecule  {
0 1
  O       -1.3959680    -1.1167090    -0.2833280
  O        1.5522570     0.9331460    -0.3210200
  O        1.1768320    -1.1502310     0.4959580
  C       -0.6816250     0.0987340    -0.4130150
  C       -1.2926720     1.1882940     0.4648960
  C        0.7675010    -0.1293310    -0.0365160
  H       -0.7109810     0.4129130    -1.4639800
  H       -1.2242180     0.8953450     1.5161010
  H       -2.3476110     1.2964270     0.2055410
  H       -0.7844450     2.1448300     0.3211210
  H       -0.7980612    -1.7336547     0.2227428
  H        2.4531110     0.6959320    -0.0164550
units angstrom
no_reorient  #important for SAPT in psi4, default
symmetry c1  #important for SAPT in psi4, default
}

set PROPERTIES_ORIGIN ["COM"]
properties('MP2/aug-cc-pvtz', properties = ['dipole'])
--------------------------------------------------------------------------

    Molecular point group: c1
  Charge       = 0
  Multiplicity = 1
  Basis Set: AUG-CC-PVTZ
    Blend: AUG-CC-PVTZ
  Basis Set: (AUG-CC-PVTZ AUX)
    Blend: AUG-CC-PVTZ-JKFIT

    Orbital Energies [Eh]
    ---------------------

    Doubly Occupied:

       1A    -20.635990     2A    -20.572625     3A    -20.565602
       4A    -11.405580     5A    -11.310930     6A    -11.234593
       7A     -1.481909     8A     -1.386065     9A     -1.358008
      10A     -1.052246    11A     -0.919668    12A     -0.813047
      13A     -0.742594    14A     -0.726445    15A     -0.669388
      16A     -0.642055    17A     -0.625652    18A     -0.589419
      19A     -0.568984    20A     -0.542717    21A     -0.530421
      22A     -0.502224    23A     -0.469437    24A     -0.456170

  @DF-RHF Final Energy:  -341.83553145435428

   => Energetics <=

    Nuclear Repulsion Energy =            249.4840008362313313
    One-Electron Energy =                -963.0355224396494123
    Two-Electron Energy =                 371.7159901490638276
    Total Energy =                       -341.8355314543542818
  Basis Set: (AUG-CC-PVTZ AUX)
    Blend: AUG-CC-PVTZ-RI
    Molecular point group: c1

    Geometry (in Angstrom), charge = 0, multiplicity = 1:

       Center              X                  Y                   Z               Mass
    ------------   -----------------  -----------------  -----------------  -----------------
         O           -1.433762454416    -1.075604364630    -0.274907689805    15.994914619570
         O            1.514462545584     0.974250635370    -0.312599689805    15.994914619570
         O            1.139037545584    -1.109126364630     0.504378310195    15.994914619570
         C           -0.719419454416     0.139838635370    -0.404594689805    12.000000000000
         C           -1.330466454416     1.229398635370     0.473316310195    12.000000000000
         C            0.729706545584    -0.088226364630    -0.028095689805    12.000000000000
         H           -0.748775454416     0.454017635370    -1.455559689805     1.007825032230
         H           -1.262012454416     0.936449635370     1.524521310195     1.007825032230
         H           -2.385405454416     1.337531635370     0.213961310195     1.007825032230
         H           -0.822239454416     2.185934635370     0.329541310195     1.007825032230
         H           -0.835855654416    -1.692550064630     0.231163110195     1.007825032230
         H            2.415316545584     0.737036635370    -0.008034689805     1.007825032230

  Basis Set: AUG-CC-PVTZ
    Blend: AUG-CC-PVTZ
  Basis Set: (AUG-CC-PVTZ AUX)
    Blend: AUG-CC-PVTZ-JKFIT
	 Reference Energy          =    -341.8355314543542818 [Eh]
	 Singles Energy            =      -0.0000000000000000 [Eh]
	 Same-Spin Energy          =      -0.3275035511431067 [Eh]
	 Opposite-Spin Energy      =      -1.0124014129794181 [Eh]
	 Correlation Energy        =      -1.3399049641225247 [Eh]
	 Total Energy              =    -343.1754364184768065 [Eh]

	 ================> DF-SCS-MP2 Energies <==================
	-----------------------------------------------------------
	 SCS Same-Spin Scale       =       0.3333333333333333 [-]
	 SCS Opposite-Spin Scale   =       1.2000000000000000 [-]
	 SCS Same-Spin Energy      =      -0.1091678503810356 [Eh]
	 SCS Opposite-Spin Energy  =      -1.2148816955753017 [Eh]
	 SCS Correlation Energy    =      -1.3240495459563373 [Eh]
	 SCS Total Energy          =    -343.1595810003105953 [Eh]
	-----------------------------------------------------------

  Dipole Moment: [D]
     X:     1.3241      Y:     1.9528      Z:     0.0744     Total:     2.3605

*** Psi4 exiting successfully. Buy a developer a beer!
