                               Psi4 1.4a3.dev225

  ==> Input File <==

--------------------------------------------------------------------------
#psi4
#
memory 32 gb

molecule  {
0 1
  O       -1.3959680    -1.1167090    -0.2833280
  O        1.5522570     0.9331460    -0.3210200
  O        1.1768320    -1.1502310     0.4959580
  C       -0.6816250     0.0987340    -0.4130150
  C       -1.2926720     1.1882940     0.4648960
  C        0.7558850    -0.1450578    -0.0323048
  H       -0.7109810     0.4129130    -1.4639800
  H       -1.2242180     0.8953450     1.5161010
  H       -2.3476110     1.2964270     0.2055410
  H       -0.7844450     2.1448300     0.3211210
  H       -0.8100540    -1.7212800     0.2125920
  H        2.4531110     0.6959320    -0.0164550
units angstrom
no_reorient  #important for SAPT in psi4, default
symmetry c1  #important for SAPT in psi4, default
}

set PROPERTIES_ORIGIN ["COM"]
properties('MP2/aug-cc-pvtz', properties = ['dipole'])
--------------------------------------------------------------------------

    Molecular point group: c1
  Charge       = 0
  Multiplicity = 1
  Basis Set: AUG-CC-PVTZ
    Blend: AUG-CC-PVTZ
  Basis Set: (AUG-CC-PVTZ AUX)
    Blend: AUG-CC-PVTZ-JKFIT

    Orbital Energies [Eh]
    ---------------------

    Doubly Occupied:

       1A    -20.630223     2A    -20.575716     3A    -20.565376
       4A    -11.405212     5A    -11.311700     6A    -11.235322
       7A     -1.477517     8A     -1.387578     9A     -1.363779
      10A     -1.054356    11A     -0.919740    12A     -0.810473
      13A     -0.743818    14A     -0.725429    15A     -0.669746
      16A     -0.642003    17A     -0.625115    18A     -0.590882
      19A     -0.569340    20A     -0.543891    21A     -0.533897
      22A     -0.505025    23A     -0.471047    24A     -0.457871

  @DF-RHF Final Energy:  -341.83689384532187

   => Energetics <=

    Nuclear Repulsion Energy =            249.6394896811739557
    One-Electron Energy =                -963.3226541809358423
    Two-Electron Energy =                 371.8462706544400476
    Total Energy =                       -341.8368938453218675
  Basis Set: (AUG-CC-PVTZ AUX)
    Blend: AUG-CC-PVTZ-RI
    Molecular point group: c1

    Geometry (in Angstrom), charge = 0, multiplicity = 1:

       Center              X                  Y                   Z               Mass
    ------------   -----------------  -----------------  -----------------  -----------------
         O           -1.432079950875    -1.073646719943    -0.275355356264    15.994914619570
         O            1.516145049125     0.976208280057    -0.313047356264    15.994914619570
         O            1.140720049125    -1.107168719943     0.503930643736    15.994914619570
         C           -0.717736950875     0.141796280057    -0.405042356264    12.000000000000
         C           -1.328783950875     1.231356280057     0.472868643736    12.000000000000
         C            0.719773049125    -0.101995519943    -0.024332156264    12.000000000000
         H           -0.747092950875     0.455975280057    -1.456007356264     1.007825032230
         H           -1.260329950875     0.938407280057     1.524073643736     1.007825032230
         H           -2.383722950875     1.339489280057     0.213513643736     1.007825032230
         H           -0.820556950875     2.187892280057     0.329093643736     1.007825032230
         H           -0.846165950875    -1.678217719943     0.220564643736     1.007825032230
         H            2.416999049125     0.738994280057    -0.008482356264     1.007825032230

  Basis Set: AUG-CC-PVTZ
    Blend: AUG-CC-PVTZ
  Basis Set: (AUG-CC-PVTZ AUX)
    Blend: AUG-CC-PVTZ-JKFIT
	 Reference Energy          =    -341.8368938453218675 [Eh]
	 Singles Energy            =      -0.0000000000000000 [Eh]
	 Same-Spin Energy          =      -0.3271350118610284 [Eh]
	 Opposite-Spin Energy      =      -1.0117819372894532 [Eh]
	 Correlation Energy        =      -1.3389169491504815 [Eh]
	 Total Energy              =    -343.1758107944723406 [Eh]

	 ================> DF-SCS-MP2 Energies <==================
	-----------------------------------------------------------
	 SCS Same-Spin Scale       =       0.3333333333333333 [-]
	 SCS Opposite-Spin Scale   =       1.2000000000000000 [-]
	 SCS Same-Spin Energy      =      -0.1090450039536761 [Eh]
	 SCS Opposite-Spin Energy  =      -1.2141383247473438 [Eh]
	 SCS Correlation Energy    =      -1.3231833287010200 [Eh]
	 SCS Total Energy          =    -343.1600771740228879 [Eh]
	-----------------------------------------------------------

  Dipole Moment: [D]
     X:     1.2119      Y:     1.8412      Z:     0.1047     Total:     2.2067

*** Psi4 exiting successfully. Buy a developer a beer!
