                               Psi4 1.3.2 release

  ==> Input File <==

--------------------------------------------------------------------------
#psi4
#
memory 32 gb

molecule  {
0 1
  O       -1.4344650     1.0675660     0.2191520
  O        1.4425540    -1.0727980    -0.0074420
  O        1.2314329     1.1893192    -0.0677820
  C       -0.7293617    -0.1349270     0.3623117
  C       -1.3608000    -1.1844980    -0.5490290
  C        0.7386720     0.0808740     0.0596700
  H       -0.7692630    -0.5063940     1.4052130
  H       -1.2645370    -0.8668950    -1.5888250
  H       -2.4222350    -1.2600450    -0.3075440
  H       -0.8906180    -2.1601930    -0.4204410
  H       -0.7794970     1.7838810     0.3439450
  H        2.3720270    -0.8088230    -0.1742930
units angstrom
no_reorient  #important for SAPT in psi4, default
symmetry c1  #important for SAPT in psi4, default
}

set PROPERTIES_ORIGIN ["COM"]
properties('MP2/aug-cc-pvtz', properties = ['dipole'])
--------------------------------------------------------------------------

    Molecular point group: c1
  Charge       = 0
  Multiplicity = 1
  Basis Set: AUG-CC-PVTZ
    Blend: AUG-CC-PVTZ
  Basis Set: (AUG-CC-PVTZ AUX)
    Blend: AUG-CC-PVTZ-JKFIT

    Orbital Energies [Eh]
    ---------------------

    Doubly Occupied:

       1A    -20.634975     2A    -20.570223     3A    -20.567932
       4A    -11.403196     5A    -11.310964     6A    -11.231077
       7A     -1.480195     8A     -1.389595     9A     -1.364664
      10A     -1.050841    11A     -0.917620    12A     -0.812378
      13A     -0.740536    14A     -0.722516    15A     -0.691462
      16A     -0.639340    17A     -0.621680    18A     -0.586723
      19A     -0.561192    20A     -0.543058    21A     -0.533671
      22A     -0.500509    23A     -0.472809    24A     -0.453164

  @DF-RHF Final Energy:  -341.83691114735046

   => Energetics <=

    Nuclear Repulsion Energy =            249.7687651565515807
    One-Electron Energy =                -963.6107115069800102
    Two-Electron Energy =                 372.0050352030779663
    Total Energy =                       -341.8369111473504631
  Basis Set: (AUG-CC-PVTZ AUX)
    Blend: AUG-CC-PVTZ-RI
    Molecular point group: c1

    Geometry (in Angstrom), charge = 0, multiplicity = 1:

       Center              X                  Y                   Z               Mass
    ------------   -----------------  -----------------  -----------------  -----------------
         O           -1.432517590527     1.065028970951     0.218821030688    15.994914619570
         O            1.444501409473    -1.075335029049    -0.007772969312    15.994914619570
         O            1.233380309473     1.186782170951    -0.068112969312    15.994914619570
         C           -0.727414290527    -0.137464029049     0.361980730688    12.000000000000
         C           -1.358852590527    -1.187035029049    -0.549359969312    12.000000000000
         C            0.740619409473     0.078336970951     0.059339030688    12.000000000000
         H           -0.767315590527    -0.508931029049     1.404882030688     1.007825032230
         H           -1.262589590527    -0.869432029049    -1.589155969312     1.007825032230
         H           -2.420287590527    -1.262582029049    -0.307874969312     1.007825032230
         H           -0.888670590527    -2.162730029049    -0.420771969312     1.007825032230
         H           -0.777549590527     1.781343970951     0.343614030688     1.007825032230
         H            2.373974409473    -0.811360029049    -0.174623969312     1.007825032230

  Basis Set: AUG-CC-PVTZ
    Blend: AUG-CC-PVTZ
  Basis Set: (AUG-CC-PVTZ AUX)
    Blend: AUG-CC-PVTZ-JKFIT
	 Reference Energy          =    -341.8369111473504631 [Eh]
	 Singles Energy            =      -0.0000000000000000 [Eh]
	 Same-Spin Energy          =      -0.3271272132677249 [Eh]
	 Opposite-Spin Energy      =      -1.0115678164625901 [Eh]
	 Correlation Energy        =      -1.3386950297303151 [Eh]
	 Total Energy              =    -343.1756061770807946 [Eh]

	 ================> DF-SCS-MP2 Energies <==================
	-----------------------------------------------------------
	 SCS Same-Spin Scale       =       0.3333333333333333 [-]
	 SCS Opposite-Spin Scale   =       1.2000000000000000 [-]
	 SCS Same-Spin Energy      =      -0.1090424044225750 [Eh]
	 SCS Opposite-Spin Energy  =      -1.2138813797551080 [Eh]
	 SCS Correlation Energy    =      -1.3229237841776831 [Eh]
	 SCS Total Energy          =    -343.1598349315281666 [Eh]
	-----------------------------------------------------------

  Dipole Moment: [D]
     X:     1.2389      Y:    -1.8083      Z:     0.3048     Total:     2.2131

*** Psi4 exiting successfully. Buy a developer a beer!
