                               Psi4 1.3.2 release

  ==> Input File <==

--------------------------------------------------------------------------
#psi4
#
memory 32 gb

molecule  {
0 1
  O       -1.4344650     1.0675660     0.2191520
  O        1.4425540    -1.0727980    -0.0074420
  O        1.2409190     1.1848430    -0.0695910
  C       -0.7273960    -0.1479950     0.3622400
  C       -1.3608000    -1.1844980    -0.5490290
  C        0.7386720     0.0808740     0.0596700
  H       -0.7692630    -0.5063940     1.4052130
  H       -1.2645370    -0.8668950    -1.5888250
  H       -2.4222350    -1.2600450    -0.3075440
  H       -0.8906180    -2.1601930    -0.4204410
  H       -0.7125681     1.8570787     0.3566972
  H        2.3720270    -0.8088230    -0.1742930
units angstrom
no_reorient  #important for SAPT in psi4, default
symmetry c1  #important for SAPT in psi4, default
}

set PROPERTIES_ORIGIN ["COM"]
properties('MP2/aug-cc-pvtz', properties = ['dipole'])
--------------------------------------------------------------------------

    Molecular point group: c1
  Charge       = 0
  Multiplicity = 1
  Basis Set: AUG-CC-PVTZ
    Blend: AUG-CC-PVTZ
  Basis Set: (AUG-CC-PVTZ AUX)
    Blend: AUG-CC-PVTZ-JKFIT

    Orbital Energies [Eh]
    ---------------------

    Doubly Occupied:

       1A    -20.634251     2A    -20.571534     3A    -20.571330
       4A    -11.403500     5A    -11.309848     6A    -11.230723
       7A     -1.480333     8A     -1.382058     9A     -1.348214
      10A     -1.048093    11A     -0.917884    12A     -0.806833
      13A     -0.731186    14A     -0.721813    15A     -0.683888
      16A     -0.635385    17A     -0.621139    18A     -0.582066
      19A     -0.559582    20A     -0.540504    21A     -0.523822
      22A     -0.500777    23A     -0.473984    24A     -0.451700

  @DF-RHF Final Energy:  -341.82349965502993

   => Energetics <=

    Nuclear Repulsion Energy =            249.1715992777624820
    One-Electron Energy =                -962.5293082255572017
    Two-Electron Energy =                 371.5342092927647286
    Total Energy =                       -341.8234996550299343
  Basis Set: (AUG-CC-PVTZ AUX)
    Blend: AUG-CC-PVTZ-RI
    Molecular point group: c1

    Geometry (in Angstrom), charge = 0, multiplicity = 1:

       Center              X                  Y                   Z               Mass
    ------------   -----------------  -----------------  -----------------  -----------------
         O           -1.435214089609     1.066746610101     0.219009222351    15.994914619570
         O            1.441804910391    -1.073617389899    -0.007584777649    15.994914619570
         O            1.240169910391     1.184023610101    -0.069733777649    15.994914619570
         C           -0.728145089609    -0.148814389899     0.362097222351    12.000000000000
         C           -1.361549089609    -1.185317389899    -0.549171777649    12.000000000000
         C            0.737922910391     0.080054610101     0.059527222351    12.000000000000
         H           -0.770012089609    -0.507213389899     1.405070222351     1.007825032230
         H           -1.265286089609    -0.867714389899    -1.588967777649     1.007825032230
         H           -2.422984089609    -1.260864389899    -0.307686777649     1.007825032230
         H           -0.891367089609    -2.161012389899    -0.420583777649     1.007825032230
         H           -0.713317189609     1.856259310101     0.356554422351     1.007825032230
         H            2.371277910391    -0.809642389899    -0.174435777649     1.007825032230

  Basis Set: AUG-CC-PVTZ
    Blend: AUG-CC-PVTZ
  Basis Set: (AUG-CC-PVTZ AUX)
    Blend: AUG-CC-PVTZ-JKFIT
	 Reference Energy          =    -341.8234996550299343 [Eh]
	 Singles Energy            =      -0.0000000000000000 [Eh]
	 Same-Spin Energy          =      -0.3284969091717469 [Eh]
	 Opposite-Spin Energy      =      -1.0149363398942592 [Eh]
	 Correlation Energy        =      -1.3434332490660061 [Eh]
	 Total Energy              =    -343.1669329040959155 [Eh]

	 ================> DF-SCS-MP2 Energies <==================
	-----------------------------------------------------------
	 SCS Same-Spin Scale       =       0.3333333333333333 [-]
	 SCS Opposite-Spin Scale   =       1.2000000000000000 [-]
	 SCS Same-Spin Energy      =      -0.1094989697239156 [Eh]
	 SCS Opposite-Spin Energy  =      -1.2179236078731110 [Eh]
	 SCS Correlation Energy    =      -1.3274225775970268 [Eh]
	 SCS Total Energy          =    -343.1509222326269537 [Eh]
	-----------------------------------------------------------

  Dipole Moment: [D]
     X:     1.3209      Y:    -1.7687      Z:     0.3074     Total:     2.2288

*** Psi4 exiting successfully. Buy a developer a beer!
