                               Psi4 1.3.2 release

  ==> Input File <==

--------------------------------------------------------------------------
#psi4
#
memory 32 gb

molecule  {
0 1
  O       -1.4344650     1.0675660     0.2191520
  O        1.4425540    -1.0727980    -0.0074420
  O        1.2409190     1.1848430    -0.0695910
  C       -0.7694841    -0.1724303     0.3541300
  C       -1.3608000    -1.1844980    -0.5490290
  C        0.7386720     0.0808740     0.0596700
  H       -0.7692630    -0.5063940     1.4052130
  H       -1.2645370    -0.8668950    -1.5888250
  H       -2.4222350    -1.2600450    -0.3075440
  H       -0.8906180    -2.1601930    -0.4204410
  H       -0.8044141     1.8067135     0.3389868
  H        2.3720270    -0.8088230    -0.1742930
units angstrom
no_reorient  #important for SAPT in psi4, default
symmetry c1  #important for SAPT in psi4, default
}

set PROPERTIES_ORIGIN ["COM"]
properties('MP2/aug-cc-pvtz', properties = ['dipole'])
--------------------------------------------------------------------------

    Molecular point group: c1
  Charge       = 0
  Multiplicity = 1
  Basis Set: AUG-CC-PVTZ
    Blend: AUG-CC-PVTZ
  Basis Set: (AUG-CC-PVTZ AUX)
    Blend: AUG-CC-PVTZ-JKFIT

    Orbital Energies [Eh]
    ---------------------

    Doubly Occupied:

       1A    -20.632451     2A    -20.569228     3A    -20.564837
       4A    -11.402086     5A    -11.313698     6A    -11.229920
       7A     -1.477614     8A     -1.383567     9A     -1.360386
      10A     -1.057783    11A     -0.912621    12A     -0.812650
      13A     -0.736149    14A     -0.718405    15A     -0.691780
      16A     -0.639511    17A     -0.620531    18A     -0.589344
      19A     -0.565476    20A     -0.541953    21A     -0.528993
      22A     -0.498929    23A     -0.475195    24A     -0.448771

  @DF-RHF Final Energy:  -341.83456584307908

   => Energetics <=

    Nuclear Repulsion Energy =            249.2722793013447813
    One-Electron Energy =                -962.6699330430076316
    Two-Electron Energy =                 371.5630878985838308
    Total Energy =                       -341.8345658430790763
  Basis Set: (AUG-CC-PVTZ AUX)
    Blend: AUG-CC-PVTZ-RI
    Molecular point group: c1

    Geometry (in Angstrom), charge = 0, multiplicity = 1:

       Center              X                  Y                   Z               Mass
    ------------   -----------------  -----------------  -----------------  -----------------
         O           -1.428576183878     1.070567296949     0.220288427253    15.994914619570
         O            1.448442816122    -1.069796703051    -0.006305572747    15.994914619570
         O            1.246807816122     1.187844296949    -0.068454572747    15.994914619570
         C           -0.763595283878    -0.169429003051     0.355266427253    12.000000000000
         C           -1.354911183878    -1.181496703051    -0.547892572747    12.000000000000
         C            0.744560816122     0.083875296949     0.060806427253    12.000000000000
         H           -0.763374183878    -0.503392703051     1.406349427253     1.007825032230
         H           -1.258648183878    -0.863893703051    -1.587688572747     1.007825032230
         H           -2.416346183878    -1.257043703051    -0.306407572747     1.007825032230
         H           -0.884729183878    -2.157191703051    -0.419304572747     1.007825032230
         H           -0.798525283878     1.809714796949     0.340123227253     1.007825032230
         H            2.377915816122    -0.805821703051    -0.173156572747     1.007825032230

  Basis Set: AUG-CC-PVTZ
    Blend: AUG-CC-PVTZ
  Basis Set: (AUG-CC-PVTZ AUX)
    Blend: AUG-CC-PVTZ-JKFIT
	 Reference Energy          =    -341.8345658430790763 [Eh]
	 Singles Energy            =      -0.0000000000000000 [Eh]
	 Same-Spin Energy          =      -0.3271043273484834 [Eh]
	 Opposite-Spin Energy      =      -1.0115518663043637 [Eh]
	 Correlation Energy        =      -1.3386561936528469 [Eh]
	 Total Energy              =    -343.1732220367319428 [Eh]

	 ================> DF-SCS-MP2 Energies <==================
	-----------------------------------------------------------
	 SCS Same-Spin Scale       =       0.3333333333333333 [-]
	 SCS Opposite-Spin Scale   =       1.2000000000000000 [-]
	 SCS Same-Spin Energy      =      -0.1090347757828278 [Eh]
	 SCS Opposite-Spin Energy  =      -1.2138622395652363 [Eh]
	 SCS Correlation Energy    =      -1.3228970153480641 [Eh]
	 SCS Total Energy          =    -343.1574628584271522 [Eh]
	-----------------------------------------------------------

  Dipole Moment: [D]
     X:     1.1716      Y:    -1.8396      Z:     0.2782     Total:     2.1986

*** Psi4 exiting successfully. Buy a developer a beer!
