                               Psi4 1.3.2 release

  ==> Input File <==

--------------------------------------------------------------------------
#psi4
#
memory 32 gb

molecule  {
0 1
  O       -1.4344650     1.0675660     0.2191520
  O        1.4425540    -1.0727980    -0.0074420
  O        1.2409190     1.1848430    -0.0695910
  C       -0.7475437    -0.1933414     0.4243546
  C       -1.3608000    -1.1844980    -0.5490290
  C        0.7386720     0.0808740     0.0596700
  H       -0.7692630    -0.5063940     1.4052130
  H       -1.2917683    -0.9146672    -1.6043678
  H       -2.4222350    -1.2600450    -0.3075440
  H       -0.8906180    -2.1601930    -0.4204410
  H       -0.7794970     1.7838810     0.3439450
  H        2.3720270    -0.8088230    -0.1742930
units angstrom
no_reorient  #important for SAPT in psi4, default
symmetry c1  #important for SAPT in psi4, default
}

set PROPERTIES_ORIGIN ["COM"]
properties('MP2/aug-cc-pvtz', properties = ['dipole'])
--------------------------------------------------------------------------

    Molecular point group: c1
  Charge       = 0
  Multiplicity = 1
  Basis Set: AUG-CC-PVTZ
    Blend: AUG-CC-PVTZ
  Basis Set: (AUG-CC-PVTZ AUX)
    Blend: AUG-CC-PVTZ-JKFIT

    Orbital Energies [Eh]
    ---------------------

    Doubly Occupied:

       1A    -20.633261     2A    -20.571205     3A    -20.562410
       4A    -11.404308     5A    -11.311742     6A    -11.232073
       7A     -1.478889     8A     -1.380953     9A     -1.351363
      10A     -1.052944    11A     -0.914931    12A     -0.818508
      13A     -0.731571    14A     -0.720284    15A     -0.693821
      16A     -0.638712    17A     -0.621400    18A     -0.581186
      19A     -0.562786    20A     -0.539755    21A     -0.526848
      22A     -0.499947    23A     -0.474922    24A     -0.457671

  @DF-RHF Final Energy:  -341.82873608090853

   => Energetics <=

    Nuclear Repulsion Energy =            248.6554171706496561
    One-Electron Energy =                -961.4453293307900594
    Two-Electron Energy =                 370.9611760792318478
    Total Energy =                       -341.8287360809085271
  Basis Set: (AUG-CC-PVTZ AUX)
    Blend: AUG-CC-PVTZ-RI
    Molecular point group: c1

    Geometry (in Angstrom), charge = 0, multiplicity = 1:

       Center              X                  Y                   Z               Mass
    ------------   -----------------  -----------------  -----------------  -----------------
         O           -1.431474635296     1.074144819147     0.211046928646    15.994914619570
         O            1.445544364704    -1.066219180853    -0.015547071354    15.994914619570
         O            1.243909364704     1.191421819147    -0.077696071354    15.994914619570
         C           -0.744553335296    -0.186762580853     0.416249528646    12.000000000000
         C           -1.357809635296    -1.177919180853    -0.557134071354    12.000000000000
         C            0.741662364704     0.087452819147     0.051564928646    12.000000000000
         H           -0.766272635296    -0.499815180853     1.397107928646     1.007825032230
         H           -1.288777935296    -0.908088380853    -1.612472871354     1.007825032230
         H           -2.419244635296    -1.253466180853    -0.315649071354     1.007825032230
         H           -0.887627635296    -2.153614180853    -0.428546071354     1.007825032230
         H           -0.776506635296     1.790459819147     0.335839928646     1.007825032230
         H            2.375017364704    -0.802244180853    -0.182398071354     1.007825032230

  Basis Set: AUG-CC-PVTZ
    Blend: AUG-CC-PVTZ
  Basis Set: (AUG-CC-PVTZ AUX)
    Blend: AUG-CC-PVTZ-JKFIT
	 Reference Energy          =    -341.8287360809085271 [Eh]
	 Singles Energy            =      -0.0000000000000000 [Eh]
	 Same-Spin Energy          =      -0.3270401247486446 [Eh]
	 Opposite-Spin Energy      =      -1.0124503952434734 [Eh]
	 Correlation Energy        =      -1.3394905199921179 [Eh]
	 Total Energy              =    -343.1682266009006526 [Eh]

	 ================> DF-SCS-MP2 Energies <==================
	-----------------------------------------------------------
	 SCS Same-Spin Scale       =       0.3333333333333333 [-]
	 SCS Opposite-Spin Scale   =       1.2000000000000000 [-]
	 SCS Same-Spin Energy      =      -0.1090133749162149 [Eh]
	 SCS Opposite-Spin Energy  =      -1.2149404742921679 [Eh]
	 SCS Correlation Energy    =      -1.3239538492083827 [Eh]
	 SCS Total Energy          =    -343.1526899301169351 [Eh]
	-----------------------------------------------------------

  Dipole Moment: [D]
     X:     1.2840      Y:    -1.9567      Z:     0.3716     Total:     2.3697

*** Psi4 exiting successfully. Buy a developer a beer!
