                               Psi4 1.3.2 release

  ==> Input File <==

--------------------------------------------------------------------------
#psi4
#
memory 32 gb

molecule  {
0 1
  O       -1.4344650     1.0675660     0.2191520
  O        1.4425540    -1.0727980    -0.0074420
  O        1.2409190     1.1848430    -0.0695910
  C       -0.7273960    -0.1479950     0.3622400
  C       -1.4442230    -1.3210115    -0.6690484
  C        0.7386720     0.0808740     0.0596700
  H       -0.7692630    -0.5063940     1.4052130
  H       -1.2645370    -0.8668950    -1.5888250
  H       -2.4222350    -1.2600450    -0.3075440
  H       -0.8906180    -2.1601930    -0.4204410
  H       -0.7794970     1.7838810     0.3439450
  H        2.3720270    -0.8088230    -0.1742930
units angstrom
no_reorient  #important for SAPT in psi4, default
symmetry c1  #important for SAPT in psi4, default
}

set PROPERTIES_ORIGIN ["COM"]
properties('MP2/aug-cc-pvtz', properties = ['dipole'])
--------------------------------------------------------------------------

    Molecular point group: c1
  Charge       = 0
  Multiplicity = 1
  Basis Set: AUG-CC-PVTZ
    Blend: AUG-CC-PVTZ
  Basis Set: (AUG-CC-PVTZ AUX)
    Blend: AUG-CC-PVTZ-JKFIT

    Orbital Energies [Eh]
    ---------------------

    Doubly Occupied:

       1A    -20.632692     2A    -20.568255     3A    -20.567030
       4A    -11.401772     5A    -11.315438     6A    -11.234386
       7A     -1.478324     8A     -1.384416     9A     -1.359380
      10A     -1.029554    11A     -0.928199    12A     -0.810878
      13A     -0.734462    14A     -0.719686    15A     -0.684966
      16A     -0.635099    17A     -0.622897    18A     -0.595214
      19A     -0.576319    20A     -0.564428    21A     -0.520303
      22A     -0.498136    23A     -0.461480    24A     -0.434753

  @DF-RHF Final Energy:  -341.81010358005062

   => Energetics <=

    Nuclear Repulsion Energy =            246.5817689838767137
    One-Electron Energy =                -957.2676148522888298
    Two-Electron Energy =                 368.8757422883614936
    Total Energy =                       -341.8101035800506224
  Basis Set: (AUG-CC-PVTZ AUX)
    Blend: AUG-CC-PVTZ-RI
    Molecular point group: c1

    Geometry (in Angstrom), charge = 0, multiplicity = 1:

       Center              X                  Y                   Z               Mass
    ------------   -----------------  -----------------  -----------------  -----------------
         O           -1.423345728894     1.085761385869     0.235148925170    15.994914619570
         O            1.453673271106    -1.054602614131     0.008554925170    15.994914619570
         O            1.252038271106     1.203038385869    -0.053594074830    15.994914619570
         C           -0.716276728894    -0.129799614131     0.378236925170    12.000000000000
         C           -1.433103728894    -1.302816114131    -0.653051474830    12.000000000000
         C            0.749791271106     0.099069385869     0.075666925170    12.000000000000
         H           -0.758143728894    -0.488198614131     1.421209925170     1.007825032230
         H           -1.253417728894    -0.848699614131    -1.572828074830     1.007825032230
         H           -2.411115728894    -1.241849614131    -0.291547074830     1.007825032230
         H           -0.879498728894    -2.141997614131    -0.404444074830     1.007825032230
         H           -0.768377728894     1.802076385869     0.359941925170     1.007825032230
         H            2.383146271106    -0.790627614131    -0.158296074830     1.007825032230

  Basis Set: AUG-CC-PVTZ
    Blend: AUG-CC-PVTZ
  Basis Set: (AUG-CC-PVTZ AUX)
    Blend: AUG-CC-PVTZ-JKFIT
	 Reference Energy          =    -341.8101035800506224 [Eh]
	 Singles Energy            =      -0.0000000000000000 [Eh]
	 Same-Spin Energy          =      -0.3271325762364583 [Eh]
	 Opposite-Spin Energy      =      -1.0128952084183351 [Eh]
	 Correlation Energy        =      -1.3400277846547934 [Eh]
	 Total Energy              =    -343.1501313647054303 [Eh]

	 ================> DF-SCS-MP2 Energies <==================
	-----------------------------------------------------------
	 SCS Same-Spin Scale       =       0.3333333333333333 [-]
	 SCS Opposite-Spin Scale   =       1.2000000000000000 [-]
	 SCS Same-Spin Energy      =      -0.1090441920788194 [Eh]
	 SCS Opposite-Spin Energy  =      -1.2154742501020022 [Eh]
	 SCS Correlation Energy    =      -1.3245184421808216 [Eh]
	 SCS Total Energy          =    -343.1346220222314400 [Eh]
	-----------------------------------------------------------

  Dipole Moment: [D]
     X:     1.1797      Y:    -1.7836      Z:     0.3378     Total:     2.1649

*** Psi4 exiting successfully. Buy a developer a beer!
