                               Psi4 1.3.2 release

  ==> Input File <==

--------------------------------------------------------------------------
#psi4
#
memory 32 gb

molecule  {
0 1
  O       -1.4344650     1.0675660     0.2191520
  O        1.4425540    -1.0727980    -0.0074420
  O        1.2409190     1.1848430    -0.0695910
  C       -0.7273960    -0.1479950     0.3622400
  C       -1.3608000    -1.1844980    -0.5490290
  C        0.7798494     0.1713843     0.0490724
  H       -0.7692630    -0.5063940     1.4052130
  H       -1.2645370    -0.8668950    -1.5888250
  H       -2.4222350    -1.2600450    -0.3075440
  H       -0.8906180    -2.1601930    -0.4204410
  H       -0.7794970     1.7838810     0.3439450
  H        2.3720270    -0.8088230    -0.1742930
units angstrom
no_reorient  #important for SAPT in psi4, default
symmetry c1  #important for SAPT in psi4, default
}

set PROPERTIES_ORIGIN ["COM"]
properties('MP2/aug-cc-pvtz', properties = ['dipole'])
--------------------------------------------------------------------------

    Molecular point group: c1
  Charge       = 0
  Multiplicity = 1
  Basis Set: AUG-CC-PVTZ
    Blend: AUG-CC-PVTZ
  Basis Set: (AUG-CC-PVTZ AUX)
    Blend: AUG-CC-PVTZ-JKFIT

    Orbital Energies [Eh]
    ---------------------

    Doubly Occupied:

       1A    -20.615415     2A    -20.588235     3A    -20.565016
       4A    -11.393216     5A    -11.308213     6A    -11.226792
       7A     -1.513444     8A     -1.392995     9A     -1.370552
      10A     -1.038691    11A     -0.901239    12A     -0.794423
      13A     -0.745146    14A     -0.730192    15A     -0.690403
      16A     -0.645053    17A     -0.632635    18A     -0.581005
      19A     -0.561414    20A     -0.544561    21A     -0.537716
      22A     -0.523022    23A     -0.470961    24A     -0.443115

  @DF-RHF Final Energy:  -341.82421269568732

   => Energetics <=

    Nuclear Repulsion Energy =            249.9361447178291655
    One-Electron Energy =                -963.8938102364896849
    Two-Electron Energy =                 372.1334528229731973
    Total Energy =                       -341.8242126956873221
  Basis Set: (AUG-CC-PVTZ AUX)
    Blend: AUG-CC-PVTZ-RI
    Molecular point group: c1

    Geometry (in Angstrom), charge = 0, multiplicity = 1:

       Center              X                  Y                   Z               Mass
    ------------   -----------------  -----------------  -----------------  -----------------
         O           -1.439953267114     1.055502201826     0.220564487836    15.994914619570
         O            1.437065732886    -1.084861798174    -0.006029512164    15.994914619570
         O            1.235430732886     1.172779201826    -0.068178512164    15.994914619570
         C           -0.732884267114    -0.160058798174     0.363652487836    12.000000000000
         C           -1.366288267114    -1.196561798174    -0.547616512164    12.000000000000
         C            0.774361132886     0.159320501826     0.050484887836    12.000000000000
         H           -0.774751267114    -0.518457798174     1.406625487836     1.007825032230
         H           -1.270025267114    -0.878958798174    -1.587412512164     1.007825032230
         H           -2.427723267114    -1.272108798174    -0.306131512164     1.007825032230
         H           -0.896106267114    -2.172256798174    -0.419028512164     1.007825032230
         H           -0.784985267114     1.771817201826     0.345357487836     1.007825032230
         H            2.366538732886    -0.820886798174    -0.172880512164     1.007825032230

  Basis Set: AUG-CC-PVTZ
    Blend: AUG-CC-PVTZ
  Basis Set: (AUG-CC-PVTZ AUX)
    Blend: AUG-CC-PVTZ-JKFIT
	 Reference Energy          =    -341.8242126956873221 [Eh]
	 Singles Energy            =      -0.0000000000000000 [Eh]
	 Same-Spin Energy          =      -0.3253464540995211 [Eh]
	 Opposite-Spin Energy      =      -1.0088228819718059 [Eh]
	 Correlation Energy        =      -1.3341693360713269 [Eh]
	 Total Energy              =    -343.1583820317586628 [Eh]

	 ================> DF-SCS-MP2 Energies <==================
	-----------------------------------------------------------
	 SCS Same-Spin Scale       =       0.3333333333333333 [-]
	 SCS Opposite-Spin Scale   =       1.2000000000000000 [-]
	 SCS Same-Spin Energy      =      -0.1084488180331737 [Eh]
	 SCS Opposite-Spin Energy  =      -1.2105874583661671 [Eh]
	 SCS Correlation Energy    =      -1.3190362763993408 [Eh]
	 SCS Total Energy          =    -343.1432489720866670 [Eh]
	-----------------------------------------------------------

  Dipole Moment: [D]
     X:     1.3568      Y:    -1.1117      Z:     0.2628     Total:     1.7736

*** Psi4 exiting successfully. Buy a developer a beer!
