                               Psi4 1.4a3.dev225

  ==> Input File <==

--------------------------------------------------------------------------
#psi4
#
memory 32 gb

molecule  {
0 1
  O       -1.3959680    -1.1167090    -0.2833280
  O        1.5522570     0.9331460    -0.3210200
  O        1.1768320    -1.1502310     0.4959580
  C       -0.6816250     0.0987340    -0.4130150
  C       -1.2926720     1.1882940     0.4648960
  C        0.7675010    -0.1293310    -0.0365160
  H       -0.7096434     0.3985972    -1.4160919
  H       -1.2242180     0.8953450     1.5161010
  H       -2.3476110     1.2964270     0.2055410
  H       -0.7844450     2.1448300     0.3211210
  H       -0.8100540    -1.7212800     0.2125920
  H        2.4531110     0.6959320    -0.0164550
units angstrom
no_reorient  #important for SAPT in psi4, default
symmetry c1  #important for SAPT in psi4, default
}

set PROPERTIES_ORIGIN ["COM"]
properties('MP2/aug-cc-pvtz', properties = ['dipole'])
--------------------------------------------------------------------------

    Molecular point group: c1
  Charge       = 0
  Multiplicity = 1
  Basis Set: AUG-CC-PVTZ
    Blend: AUG-CC-PVTZ
  Basis Set: (AUG-CC-PVTZ AUX)
    Blend: AUG-CC-PVTZ-JKFIT

    Orbital Energies [Eh]
    ---------------------

    Doubly Occupied:

       1A    -20.636078     2A    -20.572188     3A    -20.563859
       4A    -11.405200     5A    -11.305343     6A    -11.234406
       7A     -1.481901     8A     -1.387177     9A     -1.360664
      10A     -1.055558    11A     -0.920544    12A     -0.818711
      13A     -0.744882    14A     -0.726796    15A     -0.672873
      16A     -0.644724    17A     -0.626372    18A     -0.590003
      19A     -0.569408    20A     -0.543971    21A     -0.533004
      22A     -0.501938    23A     -0.469985    24A     -0.458021

  @DF-RHF Final Energy:  -341.83634921946407

   => Energetics <=

    Nuclear Repulsion Energy =            249.8507750728282133
    One-Electron Energy =                -963.7270377306714408
    Two-Electron Energy =                 372.0399134383791306
    Total Energy =                       -341.8363492194640685
  Basis Set: (AUG-CC-PVTZ AUX)
    Blend: AUG-CC-PVTZ-RI
    Molecular point group: c1

    Geometry (in Angstrom), charge = 0, multiplicity = 1:

       Center              X                  Y                   Z               Mass
    ------------   -----------------  -----------------  -----------------  -----------------
         O           -1.433643178895    -1.075582635736    -0.275330125437    15.994914619570
         O            1.514581821105     0.974272364264    -0.313022125437    15.994914619570
         O            1.139156821105    -1.109104635736     0.503955874563    15.994914619570
         C           -0.719300178895     0.139860364264    -0.405017125437    12.000000000000
         C           -1.330347178895     1.229420364264     0.472893874563    12.000000000000
         C            0.729825821105    -0.088204635736    -0.028518125437    12.000000000000
         H           -0.747318578895     0.439723564264    -1.408094025437     1.007825032230
         H           -1.261893178895     0.936471364264     1.524098874563     1.007825032230
         H           -2.385286178895     1.337553364264     0.213538874563     1.007825032230
         H           -0.822120178895     2.185956364264     0.329118874563     1.007825032230
         H           -0.847729178895    -1.680153635736     0.220589874563     1.007825032230
         H            2.415435821105     0.737058364264    -0.008457125437     1.007825032230

  Basis Set: AUG-CC-PVTZ
    Blend: AUG-CC-PVTZ
  Basis Set: (AUG-CC-PVTZ AUX)
    Blend: AUG-CC-PVTZ-JKFIT
	 Reference Energy          =    -341.8363492194640685 [Eh]
	 Singles Energy            =      -0.0000000000000000 [Eh]
	 Same-Spin Energy          =      -0.3271608918930546 [Eh]
	 Opposite-Spin Energy      =      -1.0114710717027844 [Eh]
	 Correlation Energy        =      -1.3386319635958390 [Eh]
	 Total Energy              =    -343.1749811830599128 [Eh]

	 ================> DF-SCS-MP2 Energies <==================
	-----------------------------------------------------------
	 SCS Same-Spin Scale       =       0.3333333333333333 [-]
	 SCS Opposite-Spin Scale   =       1.2000000000000000 [-]
	 SCS Same-Spin Energy      =      -0.1090536306310182 [Eh]
	 SCS Opposite-Spin Energy  =      -1.2137652860433412 [Eh]
	 SCS Correlation Energy    =      -1.3228189166743594 [Eh]
	 SCS Total Energy          =    -343.1591681361384190 [Eh]
	-----------------------------------------------------------

  Dipole Moment: [D]
     X:     1.3125      Y:     1.9785      Z:     0.0489     Total:     2.3748

*** Psi4 exiting successfully. Buy a developer a beer!
