                               Psi4 1.3.2 release

  ==> Input File <==

--------------------------------------------------------------------------
#psi4
#
memory 32 gb

molecule  {
0 1
  O       -1.4344650     1.0675660     0.2191520
  O        1.3826679    -1.1079728     0.0065149
  O        1.2409190     1.1848430    -0.0695910
  C       -0.7126963    -0.2258792     0.3641657
  C       -1.3608000    -1.1844980    -0.5490290
  C        0.7386720     0.0808740     0.0596700
  H       -0.7692630    -0.5063940     1.4052130
  H       -1.2645370    -0.8668950    -1.5888250
  H       -2.4222350    -1.2600450    -0.3075440
  H       -0.8906180    -2.1601930    -0.4204410
  H       -0.7794970     1.7838810     0.3439450
  H        2.3720270    -0.8088230    -0.1742930
units angstrom
no_reorient  #important for SAPT in psi4, default
symmetry c1  #important for SAPT in psi4, default
}

set PROPERTIES_ORIGIN ["COM"]
properties('MP2/aug-cc-pvtz', properties = ['dipole'])
--------------------------------------------------------------------------

    Molecular point group: c1
  Charge       = 0
  Multiplicity = 1
  Basis Set: AUG-CC-PVTZ
    Blend: AUG-CC-PVTZ
  Basis Set: (AUG-CC-PVTZ AUX)
    Blend: AUG-CC-PVTZ-JKFIT

    Orbital Energies [Eh]
    ---------------------

    Doubly Occupied:

       1A    -20.642601     2A    -20.576496     3A    -20.555767
       4A    -11.406575     5A    -11.309083     6A    -11.230727
       7A     -1.476064     8A     -1.380611     9A     -1.338383
      10A     -1.062886    11A     -0.918673    12A     -0.798685
      13A     -0.732988    14A     -0.715049    15A     -0.686057
      16A     -0.637982    17A     -0.623346    18A     -0.581884
      19A     -0.560218    20A     -0.537011    21A     -0.522913
      22A     -0.504195    23A     -0.477647    24A     -0.456347

  @DF-RHF Final Energy:  -341.81796770312405

   => Energetics <=

    Nuclear Repulsion Energy =            249.3565794617676090
    One-Electron Energy =                -962.8847226130221770
    Two-Electron Energy =                 371.7101754481304852
    Total Energy =                       -341.8179677031240544
  Basis Set: (AUG-CC-PVTZ AUX)
    Blend: AUG-CC-PVTZ-RI
    Molecular point group: c1

    Geometry (in Angstrom), charge = 0, multiplicity = 1:

       Center              X                  Y                   Z               Mass
    ------------   -----------------  -----------------  -----------------  -----------------
         O           -1.425784862645     1.084196007379     0.216415737468    15.994914619570
         O            1.391348037355    -1.091342792621     0.003778637468    15.994914619570
         O            1.249599137355     1.201473007379    -0.072327262532    15.994914619570
         C           -0.704016162645    -0.209249192621     0.361429437468    12.000000000000
         C           -1.352119862645    -1.167867992621    -0.551765262532    12.000000000000
         C            0.747352137355     0.097504007379     0.056933737468    12.000000000000
         H           -0.760582862645    -0.489763992621     1.402476737468     1.007825032230
         H           -1.255856862645    -0.850264992621    -1.591561262532     1.007825032230
         H           -2.413554862645    -1.243414992621    -0.310280262532     1.007825032230
         H           -0.881937862645    -2.143562992621    -0.423177262532     1.007825032230
         H           -0.770816862645     1.800511007379     0.341208737468     1.007825032230
         H            2.380707137355    -0.792192992621    -0.177029262532     1.007825032230

  Basis Set: AUG-CC-PVTZ
    Blend: AUG-CC-PVTZ
  Basis Set: (AUG-CC-PVTZ AUX)
    Blend: AUG-CC-PVTZ-JKFIT
	 Reference Energy          =    -341.8179677031240544 [Eh]
	 Singles Energy            =      -0.0000000000000000 [Eh]
	 Same-Spin Energy          =      -0.3291788370850293 [Eh]
	 Opposite-Spin Energy      =      -1.0168992064040334 [Eh]
	 Correlation Energy        =      -1.3460780434890627 [Eh]
	 Total Energy              =    -343.1640457466131124 [Eh]

	 ================> DF-SCS-MP2 Energies <==================
	-----------------------------------------------------------
	 SCS Same-Spin Scale       =       0.3333333333333333 [-]
	 SCS Opposite-Spin Scale   =       1.2000000000000000 [-]
	 SCS Same-Spin Energy      =      -0.1097262790283431 [Eh]
	 SCS Opposite-Spin Energy  =      -1.2202790476848400 [Eh]
	 SCS Correlation Energy    =      -1.3300053267131831 [Eh]
	 SCS Total Energy          =    -343.1479730298372601 [Eh]
	-----------------------------------------------------------

  Dipole Moment: [D]
     X:     1.4736      Y:    -2.0673      Z:     0.2776     Total:     2.5539

*** Psi4 exiting successfully. Buy a developer a beer!
