                               Psi4 1.4a3.dev225

  ==> Input File <==

--------------------------------------------------------------------------
#psi4
#
memory 32 gb

molecule  {
0 1
  O       -1.3959680    -1.1167090    -0.2833280
  O        1.5522570     0.9331460    -0.3210200
  O        1.1768320    -1.1502310     0.4959580
  C       -0.6816250     0.0987340    -0.4130150
  C       -1.2926720     1.1882940     0.4648960
  C        0.7675010    -0.1293310    -0.0365160
  H       -0.7109810     0.4129130    -1.4639800
  H       -1.2242180     0.8953450     1.5161010
  H       -2.3476110     1.2964270     0.2055410
  H       -0.7844450     2.1448300     0.3211210
  H       -0.8100540    -1.7212800     0.2125920
  H        2.4714942     0.6910913    -0.0102399
units angstrom
no_reorient  #important for SAPT in psi4, default
symmetry c1  #important for SAPT in psi4, default
}

set PROPERTIES_ORIGIN ["COM"]
properties('MP2/aug-cc-pvtz', properties = ['dipole'])
--------------------------------------------------------------------------

    Molecular point group: c1
  Charge       = 0
  Multiplicity = 1
  Basis Set: AUG-CC-PVTZ
    Blend: AUG-CC-PVTZ
  Basis Set: (AUG-CC-PVTZ AUX)
    Blend: AUG-CC-PVTZ-JKFIT

    Orbital Energies [Eh]
    ---------------------

    Doubly Occupied:

       1A    -20.637049     2A    -20.571962     3A    -20.564490
       4A    -11.405121     5A    -11.311151     6A    -11.234647
       7A     -1.479091     8A     -1.385800     9A     -1.360351
      10A     -1.052722    11A     -0.918326    12A     -0.812099
      13A     -0.743310    14A     -0.724331    15A     -0.669697
      16A     -0.642099    17A     -0.625080    18A     -0.589942
      19A     -0.569357    20A     -0.543083    21A     -0.531344
      22A     -0.501414    23A     -0.468881    24A     -0.456897

  @DF-RHF Final Energy:  -341.83551065956573

   => Energetics <=

    Nuclear Repulsion Energy =            249.4642687121036602
    One-Electron Energy =                -963.0030658460634641
    Two-Electron Energy =                 371.7032864743941332
    Total Energy =                       -341.8355106595657276
  Basis Set: (AUG-CC-PVTZ AUX)
    Blend: AUG-CC-PVTZ-RI
    Molecular point group: c1

    Geometry (in Angstrom), charge = 0, multiplicity = 1:

       Center              X                  Y                   Z               Mass
    ------------   -----------------  -----------------  -----------------  -----------------
         O           -1.433833989282    -1.075688701084    -0.274863633131    15.994914619570
         O            1.514391010718     0.974166298916    -0.312555633131    15.994914619570
         O            1.138966010718    -1.109210701084     0.504422366869    15.994914619570
         C           -0.719490989282     0.139754298916    -0.404550633131    12.000000000000
         C           -1.330537989282     1.229314298916     0.473360366869    12.000000000000
         C            0.729635010718    -0.088310701084    -0.028051633131    12.000000000000
         H           -0.748846989282     0.453933298916    -1.455515633131     1.007825032230
         H           -1.262083989282     0.936365298916     1.524565366869     1.007825032230
         H           -2.385476989282     1.337447298916     0.214005366869     1.007825032230
         H           -0.822310989282     2.185850298916     0.329585366869     1.007825032230
         H           -0.847919989282    -1.680259701084     0.221056366869     1.007825032230
         H            2.433628210718     0.732111598916    -0.001775533131     1.007825032230

  Basis Set: AUG-CC-PVTZ
    Blend: AUG-CC-PVTZ
  Basis Set: (AUG-CC-PVTZ AUX)
    Blend: AUG-CC-PVTZ-JKFIT
	 Reference Energy          =    -341.8355106595657276 [Eh]
	 Singles Energy            =      -0.0000000000000000 [Eh]
	 Same-Spin Energy          =      -0.3274780280213074 [Eh]
	 Opposite-Spin Energy      =      -1.0123862427695443 [Eh]
	 Correlation Energy        =      -1.3398642707908517 [Eh]
	 Total Energy              =    -343.1753749303565542 [Eh]

	 ================> DF-SCS-MP2 Energies <==================
	-----------------------------------------------------------
	 SCS Same-Spin Scale       =       0.3333333333333333 [-]
	 SCS Opposite-Spin Scale   =       1.2000000000000000 [-]
	 SCS Same-Spin Energy      =      -0.1091593426737691 [Eh]
	 SCS Opposite-Spin Energy  =      -1.2148634913234531 [Eh]
	 SCS Correlation Energy    =      -1.3240228339972222 [Eh]
	 SCS Total Energy          =    -343.1595334935629467 [Eh]
	-----------------------------------------------------------

  Dipole Moment: [D]
     X:     1.3296      Y:     1.9665      Z:     0.0690     Total:     2.3748

*** Psi4 exiting successfully. Buy a developer a beer!
