                               Psi4 1.3.2 release

  ==> Input File <==

--------------------------------------------------------------------------
#psi4
#
memory 32 gb

molecule  {
0 1
  O       -1.4344650     1.0675660     0.2191520
  O        1.4425540    -1.0727980    -0.0074420
  O        1.2409190     1.1848430    -0.0695910
  C       -0.7273960    -0.1479950     0.3622400
  C       -1.3608000    -1.1844980    -0.5490290
  C        0.6802905     0.0424138     0.0711078
  H       -0.7692630    -0.5063940     1.4052130
  H       -1.2645370    -0.8668950    -1.5888250
  H       -2.4222350    -1.2600450    -0.3075440
  H       -0.8906180    -2.1601930    -0.4204410
  H       -0.7794970     1.7838810     0.3439450
  H        2.3847436    -0.8585576    -0.1742409
units angstrom
no_reorient  #important for SAPT in psi4, default
symmetry c1  #important for SAPT in psi4, default
}

set PROPERTIES_ORIGIN ["COM"]
properties('MP2/aug-cc-pvtz', properties = ['dipole'])
--------------------------------------------------------------------------

    Molecular point group: c1
  Charge       = 0
  Multiplicity = 1
  Basis Set: AUG-CC-PVTZ
    Blend: AUG-CC-PVTZ
  Basis Set: (AUG-CC-PVTZ AUX)
    Blend: AUG-CC-PVTZ-JKFIT

    Orbital Energies [Eh]
    ---------------------

    Doubly Occupied:

       1A    -20.634492     2A    -20.570485     3A    -20.561562
       4A    -11.410669     5A    -11.314198     6A    -11.236431
       7A     -1.469103     8A     -1.382975     9A     -1.335068
      10A     -1.070051    11A     -0.932679    12A     -0.821453
      13A     -0.742170    14A     -0.715857    15A     -0.692929
      16A     -0.631716    17A     -0.608721    18A     -0.586395
      19A     -0.564602    20A     -0.546679    21A     -0.531761
      22A     -0.481202    23A     -0.471725    24A     -0.461083

  @DF-RHF Final Energy:  -341.82256882874492

   => Energetics <=

    Nuclear Repulsion Energy =            249.5876932175529248
    One-Electron Energy =                -963.2725150536125511
    Two-Electron Energy =                 371.8622530073147345
    Total Energy =                       -341.8225688287449202
  Basis Set: (AUG-CC-PVTZ AUX)
    Blend: AUG-CC-PVTZ-RI
    Molecular point group: c1

    Geometry (in Angstrom), charge = 0, multiplicity = 1:

       Center              X                  Y                   Z               Mass
    ------------   -----------------  -----------------  -----------------  -----------------
         O           -1.426825771240     1.073248949698     0.217626885579    15.994914619570
         O            1.450193228760    -1.067115050302    -0.008967114421    15.994914619570
         O            1.248558228760     1.190525949698    -0.071116114421    15.994914619570
         C           -0.719756771240    -0.142312050302     0.360714885579    12.000000000000
         C           -1.353160771240    -1.178815050302    -0.550554114421    12.000000000000
         C            0.687929728760     0.048096749698     0.069582685579    12.000000000000
         H           -0.761623771240    -0.500711050302     1.403687885579     1.007825032230
         H           -1.256897771240    -0.861212050302    -1.590350114421     1.007825032230
         H           -2.414595771240    -1.254362050302    -0.309069114421     1.007825032230
         H           -0.882978771240    -2.154510050302    -0.421966114421     1.007825032230
         H           -0.771857771240     1.789563949698     0.342419885579     1.007825032230
         H            2.392382828760    -0.852874650302    -0.175766014421     1.007825032230

  Basis Set: AUG-CC-PVTZ
    Blend: AUG-CC-PVTZ
  Basis Set: (AUG-CC-PVTZ AUX)
    Blend: AUG-CC-PVTZ-JKFIT
	 Reference Energy          =    -341.8225688287449202 [Eh]
	 Singles Energy            =      -0.0000000000000000 [Eh]
	 Same-Spin Energy          =      -0.3288257932046506 [Eh]
	 Opposite-Spin Energy      =      -1.0148385362555499 [Eh]
	 Correlation Energy        =      -1.3436643294602004 [Eh]
	 Total Energy              =    -343.1662331582051024 [Eh]

	 ================> DF-SCS-MP2 Energies <==================
	-----------------------------------------------------------
	 SCS Same-Spin Scale       =       0.3333333333333333 [-]
	 SCS Opposite-Spin Scale   =       1.2000000000000000 [-]
	 SCS Same-Spin Energy      =      -0.1096085977348835 [Eh]
	 SCS Opposite-Spin Energy  =      -1.2178062435066599 [Eh]
	 SCS Correlation Energy    =      -1.3274148412415434 [Eh]
	 SCS Total Energy          =    -343.1499836699864545 [Eh]
	-----------------------------------------------------------

  Dipole Moment: [D]
     X:     0.9830      Y:    -2.1581      Z:     0.3512     Total:     2.3973

*** Psi4 exiting successfully. Buy a developer a beer!
