                               Psi4 1.3.2 release

  ==> Input File <==

--------------------------------------------------------------------------
#psi4
#
memory 32 gb

molecule  {
0 1
  O       -1.4193727     1.0780333     0.2356223
  O        1.4425540    -1.0727980    -0.0074420
  O        1.2409190     1.1848430    -0.0695910
  C       -0.7273960    -0.1479950     0.3622400
  C       -1.3430204    -1.2023166    -0.5407344
  C        0.7386720     0.0808740     0.0596700
  H       -0.7692630    -0.5063940     1.4052130
  H       -1.2645370    -0.8668950    -1.5888250
  H       -2.4222350    -1.2600450    -0.3075440
  H       -0.8906180    -2.1601930    -0.4204410
  H       -0.7794970     1.7838810     0.3439450
  H        2.3720270    -0.8088230    -0.1742930
units angstrom
no_reorient  #important for SAPT in psi4, default
symmetry c1  #important for SAPT in psi4, default
}

set PROPERTIES_ORIGIN ["COM"]
properties('MP2/aug-cc-pvtz', properties = ['dipole'])
--------------------------------------------------------------------------

    Molecular point group: c1
  Charge       = 0
  Multiplicity = 1
  Basis Set: AUG-CC-PVTZ
    Blend: AUG-CC-PVTZ
  Basis Set: (AUG-CC-PVTZ AUX)
    Blend: AUG-CC-PVTZ-JKFIT

    Orbital Energies [Eh]
    ---------------------

    Doubly Occupied:

       1A    -20.633704     2A    -20.569768     3A    -20.565406
       4A    -11.402783     5A    -11.312173     6A    -11.232637
       7A     -1.479912     8A     -1.388187     9A     -1.363510
      10A     -1.055549    11A     -0.918076    12A     -0.813980
      13A     -0.740598    14A     -0.721762    15A     -0.692106
      16A     -0.639604    17A     -0.621504    18A     -0.585612
      19A     -0.565041    20A     -0.543493    21A     -0.533768
      22A     -0.499715    23A     -0.472950    24A     -0.454249

  @DF-RHF Final Energy:  -341.83715551222917

   => Energetics <=

    Nuclear Repulsion Energy =            249.7920252634118583
    One-Electron Energy =                -963.6461873200792070
    Two-Electron Energy =                 372.0170065444381180
    Total Energy =                       -341.8371555122291738
  Basis Set: (AUG-CC-PVTZ AUX)
    Blend: AUG-CC-PVTZ-RI
    Molecular point group: c1

    Geometry (in Angstrom), charge = 0, multiplicity = 1:

       Center              X                  Y                   Z               Mass
    ------------   -----------------  -----------------  -----------------  -----------------
         O           -1.424423637233     1.078548663444     0.231590622341    15.994914619570
         O            1.437503062767    -1.072282636556    -0.011473677659    15.994914619570
         O            1.235868062767     1.185358363444    -0.073622677659    15.994914619570
         C           -0.732446937233    -0.147479636556     0.358208322341    12.000000000000
         C           -1.348071337233    -1.201801236556    -0.544766077659    12.000000000000
         C            0.733621062767     0.081389363444     0.055638322341    12.000000000000
         H           -0.774313937233    -0.505878636556     1.401181322341     1.007825032230
         H           -1.269587937233    -0.866379636556    -1.592856677659     1.007825032230
         H           -2.427285937233    -1.259529636556    -0.311575677659     1.007825032230
         H           -0.895668937233    -2.159677636556    -0.424472677659     1.007825032230
         H           -0.784547937233     1.784396363444     0.339913322341     1.007825032230
         H            2.366976062767    -0.808307636556    -0.178324677659     1.007825032230

  Basis Set: AUG-CC-PVTZ
    Blend: AUG-CC-PVTZ
  Basis Set: (AUG-CC-PVTZ AUX)
    Blend: AUG-CC-PVTZ-JKFIT
	 Reference Energy          =    -341.8371555122291738 [Eh]
	 Singles Energy            =      -0.0000000000000000 [Eh]
	 Same-Spin Energy          =      -0.3268368708567742 [Eh]
	 Opposite-Spin Energy      =      -1.0110310824788034 [Eh]
	 Correlation Energy        =      -1.3378679533355775 [Eh]
	 Total Energy              =    -343.1750234655647773 [Eh]

	 ================> DF-SCS-MP2 Energies <==================
	-----------------------------------------------------------
	 SCS Same-Spin Scale       =       0.3333333333333333 [-]
	 SCS Opposite-Spin Scale   =       1.2000000000000000 [-]
	 SCS Same-Spin Energy      =      -0.1089456236189247 [Eh]
	 SCS Opposite-Spin Energy  =      -1.2132372989745639 [Eh]
	 SCS Correlation Energy    =      -1.3221829225934887 [Eh]
	 SCS Total Energy          =    -343.1593384348226436 [Eh]
	-----------------------------------------------------------

  Dipole Moment: [D]
     X:     1.1969      Y:    -1.8752      Z:     0.2793     Total:     2.2421

*** Psi4 exiting successfully. Buy a developer a beer!
