                               Psi4 1.4a3.dev225

  ==> Input File <==

--------------------------------------------------------------------------
#psi4
#
memory 32 gb

molecule  {
0 1
  O       -1.3959680    -1.1167090    -0.2833280
  O        1.5522570     0.9331460    -0.3210200
  O        1.1768320    -1.1502310     0.4959580
  C       -0.6816250     0.0987340    -0.4130150
  C       -1.2726618     1.1526138     0.4361468
  C        0.7675010    -0.1293310    -0.0365160
  H       -0.7109810     0.4129130    -1.4639800
  H       -1.2242180     0.8953450     1.5161010
  H       -2.3476110     1.2964270     0.2055410
  H       -0.7844450     2.1448300     0.3211210
  H       -0.8100540    -1.7212800     0.2125920
  H        2.4531110     0.6959320    -0.0164550
units angstrom
no_reorient  #important for SAPT in psi4, default
symmetry c1  #important for SAPT in psi4, default
}

set PROPERTIES_ORIGIN ["COM"]
properties('MP2/aug-cc-pvtz', properties = ['dipole'])
--------------------------------------------------------------------------

    Molecular point group: c1
  Charge       = 0
  Multiplicity = 1
  Basis Set: AUG-CC-PVTZ
    Blend: AUG-CC-PVTZ
  Basis Set: (AUG-CC-PVTZ AUX)
    Blend: AUG-CC-PVTZ-JKFIT

    Orbital Energies [Eh]
    ---------------------

    Doubly Occupied:

       1A    -20.636202     2A    -20.572887     3A    -20.564451
       4A    -11.405965     5A    -11.309474     6A    -11.236329
       7A     -1.482298     8A     -1.387959     9A     -1.361697
      10A     -1.061794    11A     -0.917379    12A     -0.814491
      13A     -0.745305    14A     -0.726881    15A     -0.672461
      16A     -0.645510    17A     -0.626405    18A     -0.597605
      19A     -0.564548    20A     -0.536553    21A     -0.526433
      22A     -0.502409    23A     -0.467820    24A     -0.462545

  @DF-RHF Final Energy:  -341.83415288707863

   => Energetics <=

    Nuclear Repulsion Energy =            250.3991326184355728
    One-Electron Energy =                -964.8157695241434340
    Two-Electron Energy =                 372.5824840186292022
    Total Energy =                       -341.8341528870786306
  Basis Set: (AUG-CC-PVTZ AUX)
    Blend: AUG-CC-PVTZ-RI
    Molecular point group: c1

    Geometry (in Angstrom), charge = 0, multiplicity = 1:

       Center              X                  Y                   Z               Mass
    ------------   -----------------  -----------------  -----------------  -----------------
         O           -1.436295293084    -1.070987203175    -0.270962183347    15.994914619570
         O            1.511929706916     0.978867796825    -0.308654183347    15.994914619570
         O            1.136504706916    -1.104509203175     0.508323816653    15.994914619570
         C           -0.721952293084     0.144455796825    -0.400649183347    12.000000000000
         C           -1.312989093084     1.198335596825     0.448512616653    12.000000000000
         C            0.727173706916    -0.083609203175    -0.024150183347    12.000000000000
         H           -0.751308293084     0.458634796825    -1.451614183347     1.007825032230
         H           -1.264545293084     0.941066796825     1.528466816653     1.007825032230
         H           -2.387938293084     1.342148796825     0.217906816653     1.007825032230
         H           -0.824772293084     2.190551796825     0.333486816653     1.007825032230
         H           -0.850381293084    -1.675558203175     0.224957816653     1.007825032230
         H            2.412783706916     0.741653796825    -0.004089183347     1.007825032230

  Basis Set: AUG-CC-PVTZ
    Blend: AUG-CC-PVTZ
  Basis Set: (AUG-CC-PVTZ AUX)
    Blend: AUG-CC-PVTZ-JKFIT
	 Reference Energy          =    -341.8341528870786306 [Eh]
	 Singles Energy            =      -0.0000000000000000 [Eh]
	 Same-Spin Energy          =      -0.3276147597734445 [Eh]
	 Opposite-Spin Energy      =      -1.0122153463521726 [Eh]
	 Correlation Energy        =      -1.3398301061256170 [Eh]
	 Total Energy              =    -343.1739829932042198 [Eh]

	 ================> DF-SCS-MP2 Energies <==================
	-----------------------------------------------------------
	 SCS Same-Spin Scale       =       0.3333333333333333 [-]
	 SCS Opposite-Spin Scale   =       1.2000000000000000 [-]
	 SCS Same-Spin Energy      =      -0.1092049199244815 [Eh]
	 SCS Opposite-Spin Energy  =      -1.2146584156226070 [Eh]
	 SCS Correlation Energy    =      -1.3238633355470886 [Eh]
	 SCS Total Energy          =    -343.1580162226257471 [Eh]
	-----------------------------------------------------------

  Dipole Moment: [D]
     X:     1.3173      Y:     1.9827      Z:     0.0715     Total:     2.3815

*** Psi4 exiting successfully. Buy a developer a beer!
