                               Psi4 1.3.2 release

  ==> Input File <==

--------------------------------------------------------------------------
#psi4
#
memory 32 gb

molecule  {
0 1
  O       -1.4344650     1.0675660     0.2191520
  O        1.4425540    -1.0727980    -0.0074420
  O        1.2409190     1.1848430    -0.0695910
  C       -0.7273960    -0.1479950     0.3622400
  C       -1.3608000    -1.1844980    -0.5490290
  C        0.7386720     0.0808740     0.0596700
  H       -0.7692630    -0.5063940     1.4052130
  H       -1.2645370    -0.8668950    -1.5888250
  H       -2.4222350    -1.2600450    -0.3075440
  H       -0.8906180    -2.1601930    -0.4204410
  H       -0.7794970     1.7838810     0.3439450
  H        2.4668198    -0.7819014    -0.1913094
units angstrom
no_reorient  #important for SAPT in psi4, default
symmetry c1  #important for SAPT in psi4, default
}

set PROPERTIES_ORIGIN ["COM"]
properties('MP2/aug-cc-pvtz', properties = ['dipole'])
--------------------------------------------------------------------------

    Molecular point group: c1
  Charge       = 0
  Multiplicity = 1
  Basis Set: AUG-CC-PVTZ
    Blend: AUG-CC-PVTZ
  Basis Set: (AUG-CC-PVTZ AUX)
    Blend: AUG-CC-PVTZ-JKFIT

    Orbital Energies [Eh]
    ---------------------

    Doubly Occupied:

       1A    -20.638909     2A    -20.568502     3A    -20.566398
       4A    -11.401481     5A    -11.310937     6A    -11.230785
       7A     -1.468527     8A     -1.380048     9A     -1.358513
      10A     -1.050610    11A     -0.912461    12A     -0.799692
      13A     -0.736276    14A     -0.711862    15A     -0.688624
      16A     -0.633738    17A     -0.616346    18A     -0.583832
      19A     -0.560711    20A     -0.541503    21A     -0.530840
      22A     -0.497341    23A     -0.472964    24A     -0.453571

  @DF-RHF Final Energy:  -341.82371564238144

   => Energetics <=

    Nuclear Repulsion Energy =            249.0893495146596592
    One-Electron Energy =                -962.3971868159991345
    Two-Electron Energy =                 371.4841216589580881
    Total Energy =                       -341.8237156423814440
  Basis Set: (AUG-CC-PVTZ AUX)
    Blend: AUG-CC-PVTZ-RI
    Molecular point group: c1

    Geometry (in Angstrom), charge = 0, multiplicity = 1:

       Center              X                  Y                   Z               Mass
    ------------   -----------------  -----------------  -----------------  -----------------
         O           -1.435526001277     1.067264630033     0.219342455448    15.994914619570
         O            1.441492998723    -1.073099369967    -0.007251544552    15.994914619570
         O            1.239857998723     1.184541630033    -0.069400544552    15.994914619570
         C           -0.728457001277    -0.148296369967     0.362430455448    12.000000000000
         C           -1.361861001277    -1.184799369967    -0.548838544552    12.000000000000
         C            0.737610998723     0.080572630033     0.059860455448    12.000000000000
         H           -0.770324001277    -0.506695369967     1.405403455448     1.007825032230
         H           -1.265598001277    -0.867196369967    -1.588634544552     1.007825032230
         H           -2.423296001277    -1.260346369967    -0.307353544552     1.007825032230
         H           -0.891679001277    -2.160494369967    -0.420250544552     1.007825032230
         H           -0.780558001277     1.783579630033     0.344135455448     1.007825032230
         H            2.465758798723    -0.782202769967    -0.191118944552     1.007825032230

  Basis Set: AUG-CC-PVTZ
    Blend: AUG-CC-PVTZ
  Basis Set: (AUG-CC-PVTZ AUX)
    Blend: AUG-CC-PVTZ-JKFIT
	 Reference Energy          =    -341.8237156423814440 [Eh]
	 Singles Energy            =      -0.0000000000000000 [Eh]
	 Same-Spin Energy          =      -0.3284115326998597 [Eh]
	 Opposite-Spin Energy      =      -1.0148407609862946 [Eh]
	 Correlation Energy        =      -1.3432522936861542 [Eh]
	 Total Energy              =    -343.1669679360675786 [Eh]

	 ================> DF-SCS-MP2 Energies <==================
	-----------------------------------------------------------
	 SCS Same-Spin Scale       =       0.3333333333333333 [-]
	 SCS Opposite-Spin Scale   =       1.2000000000000000 [-]
	 SCS Same-Spin Energy      =      -0.1094705108999532 [Eh]
	 SCS Opposite-Spin Energy  =      -1.2178089131835534 [Eh]
	 SCS Correlation Energy    =      -1.3272794240835066 [Eh]
	 SCS Total Energy          =    -343.1509950664649296 [Eh]
	-----------------------------------------------------------

  Dipole Moment: [D]
     X:     1.3494      Y:    -1.8366      Z:     0.2873     Total:     2.2971

*** Psi4 exiting successfully. Buy a developer a beer!
