                               Psi4 1.3.2 release

  ==> Input File <==

--------------------------------------------------------------------------
#psi4
#
memory 32 gb

molecule  {
0 1
  O       -1.4133929     1.0788557     0.2130593
  O        1.4425540    -1.0727980    -0.0074420
  O        1.2409190     1.1848430    -0.0695910
  C       -0.7273960    -0.1479950     0.3622400
  C       -1.3608000    -1.1844980    -0.5490290
  C        0.7334912     0.1063684     0.0550059
  H       -0.7692630    -0.5063940     1.4052130
  H       -1.2645370    -0.8668950    -1.5888250
  H       -2.4222350    -1.2600450    -0.3075440
  H       -0.8906180    -2.1601930    -0.4204410
  H       -0.7794970     1.7838810     0.3439450
  H        2.3720270    -0.8088230    -0.1742930
units angstrom
no_reorient  #important for SAPT in psi4, default
symmetry c1  #important for SAPT in psi4, default
}

set PROPERTIES_ORIGIN ["COM"]
properties('MP2/aug-cc-pvtz', properties = ['dipole'])
--------------------------------------------------------------------------

    Molecular point group: c1
  Charge       = 0
  Multiplicity = 1
  Basis Set: AUG-CC-PVTZ
    Blend: AUG-CC-PVTZ
  Basis Set: (AUG-CC-PVTZ AUX)
    Blend: AUG-CC-PVTZ-JKFIT

    Orbital Energies [Eh]
    ---------------------

    Doubly Occupied:

       1A    -20.626324     2A    -20.574738     3A    -20.564931
       4A    -11.401245     5A    -11.312145     6A    -11.231885
       7A     -1.477540     8A     -1.389174     9A     -1.368890
      10A     -1.053767    11A     -0.916681    12A     -0.807482
      13A     -0.739287    14A     -0.722244    15A     -0.693052
      16A     -0.638578    17A     -0.621895    18A     -0.584707
      19A     -0.562706    20A     -0.542828    21A     -0.536316
      22A     -0.505365    23A     -0.475655    24A     -0.455088

  @DF-RHF Final Energy:  -341.83793778548636

   => Energetics <=

    Nuclear Repulsion Energy =            249.9648088566811168
    One-Electron Energy =                -964.0004500004603187
    Two-Electron Energy =                 372.1977033582928698
    Total Energy =                       -341.8379377854863606
  Basis Set: (AUG-CC-PVTZ AUX)
    Blend: AUG-CC-PVTZ-RI
    Molecular point group: c1

    Geometry (in Angstrom), charge = 0, multiplicity = 1:

       Center              X                  Y                   Z               Mass
    ------------   -----------------  -----------------  -----------------  -----------------
         O           -1.416445891826     1.073451923263     0.214763354229    15.994914619570
         O            1.439501008174    -1.078201776737    -0.005737945771    15.994914619570
         O            1.237866008174     1.179439223263    -0.067886945771    15.994914619570
         C           -0.730448991826    -0.153398776737     0.363944054229    12.000000000000
         C           -1.363852991826    -1.189901776737    -0.547324945771    12.000000000000
         C            0.730438208174     0.100964623263     0.056709954229    12.000000000000
         H           -0.772315991826    -0.511797776737     1.406917054229     1.007825032230
         H           -1.267589991826    -0.872298776737    -1.587120945771     1.007825032230
         H           -2.425287991826    -1.265448776737    -0.305839945771     1.007825032230
         H           -0.893670991826    -2.165596776737    -0.418736945771     1.007825032230
         H           -0.782549991826     1.778477223263     0.345649054229     1.007825032230
         H            2.368974008174    -0.814226776737    -0.172588945771     1.007825032230

  Basis Set: AUG-CC-PVTZ
    Blend: AUG-CC-PVTZ
  Basis Set: (AUG-CC-PVTZ AUX)
    Blend: AUG-CC-PVTZ-JKFIT
	 Reference Energy          =    -341.8379377854863606 [Eh]
	 Singles Energy            =      -0.0000000000000000 [Eh]
	 Same-Spin Energy          =      -0.3265033712202891 [Eh]
	 Opposite-Spin Energy      =      -1.0105976227975229 [Eh]
	 Correlation Energy        =      -1.3371009940178120 [Eh]
	 Total Energy              =    -343.1750387795041775 [Eh]

	 ================> DF-SCS-MP2 Energies <==================
	-----------------------------------------------------------
	 SCS Same-Spin Scale       =       0.3333333333333333 [-]
	 SCS Opposite-Spin Scale   =       1.2000000000000000 [-]
	 SCS Same-Spin Energy      =      -0.1088344570734297 [Eh]
	 SCS Opposite-Spin Energy  =      -1.2127171473570273 [Eh]
	 SCS Correlation Energy    =      -1.3215516044304569 [Eh]
	 SCS Total Energy          =    -343.1594893899168142 [Eh]
	-----------------------------------------------------------

  Dipole Moment: [D]
     X:     1.1254      Y:    -1.6621      Z:     0.3187     Total:     2.0324

*** Psi4 exiting successfully. Buy a developer a beer!
