                               Psi4 1.3.2 release

  ==> Input File <==

--------------------------------------------------------------------------
#psi4
#
memory 32 gb

molecule  {
0 1
  O       -1.4344650     1.0675660     0.2191520
  O        1.4425540    -1.0727980    -0.0074420
  O        1.2409190     1.1848430    -0.0695910
  C       -0.7273960    -0.1479950     0.3622400
  C       -1.3608000    -1.1844980    -0.5490290
  C        0.7386720     0.0808740     0.0596700
  H       -0.7692630    -0.5063940     1.4052130
  H       -1.2645370    -0.8668950    -1.5888250
  H       -2.4222350    -1.2600450    -0.3075440
  H       -0.8906180    -2.1601930    -0.4204410
  H       -0.6456392     1.9302764     0.3694493
  H        2.3720270    -0.8088230    -0.1742930
units angstrom
no_reorient  #important for SAPT in psi4, default
symmetry c1  #important for SAPT in psi4, default
}

set PROPERTIES_ORIGIN ["COM"]
properties('MP2/aug-cc-pvtz', properties = ['dipole'])
--------------------------------------------------------------------------

    Molecular point group: c1
  Charge       = 0
  Multiplicity = 1
  Basis Set: AUG-CC-PVTZ
    Blend: AUG-CC-PVTZ
  Basis Set: (AUG-CC-PVTZ AUX)
    Blend: AUG-CC-PVTZ-JKFIT

    Orbital Energies [Eh]
    ---------------------

    Doubly Occupied:

       1A    -20.634581     2A    -20.573847     3A    -20.572408
       4A    -11.403668     5A    -11.308225     6A    -11.230022
       7A     -1.480643     8A     -1.381160     9A     -1.335343
      10A     -1.043894    11A     -0.917205    12A     -0.803569
      13A     -0.727703    14A     -0.720170    15A     -0.677057
      16A     -0.630757    17A     -0.620860    18A     -0.579320
      19A     -0.557969    20A     -0.538726    21A     -0.511349
      22A     -0.501205    23A     -0.474117    24A     -0.448490

  @DF-RHF Final Energy:  -341.80163901223142

   => Energetics <=

    Nuclear Repulsion Energy =            248.7570337107348166
    One-Electron Energy =                -961.7727683410390682
    Two-Electron Energy =                 371.2140956180728040
    Total Energy =                       -341.8016390122314192
  Basis Set: (AUG-CC-PVTZ AUX)
    Blend: AUG-CC-PVTZ-RI
    Molecular point group: c1

    Geometry (in Angstrom), charge = 0, multiplicity = 1:

       Center              X                  Y                   Z               Mass
    ------------   -----------------  -----------------  -----------------  -----------------
         O           -1.435963299335     1.065927226715     0.218866473891    15.994914619570
         O            1.441055700665    -1.074436773285    -0.007727526109    15.994914619570
         O            1.239420700665     1.183204226715    -0.069876526109    15.994914619570
         C           -0.728894299335    -0.149633773285     0.361954473891    12.000000000000
         C           -1.362298299335    -1.186136773285    -0.549314526109    12.000000000000
         C            0.737173700665     0.079235226715     0.059384473891    12.000000000000
         H           -0.770761299335    -0.508032773285     1.404927473891     1.007825032230
         H           -1.266035299335    -0.868533773285    -1.589110526109     1.007825032230
         H           -2.423733299335    -1.261683773285    -0.307829526109     1.007825032230
         H           -0.892116299335    -2.161831773285    -0.420726526109     1.007825032230
         H           -0.647137499335     1.928637626715     0.369163773891     1.007825032230
         H            2.370528700665    -0.810461773285    -0.174578526109     1.007825032230

  Basis Set: AUG-CC-PVTZ
    Blend: AUG-CC-PVTZ
  Basis Set: (AUG-CC-PVTZ AUX)
    Blend: AUG-CC-PVTZ-JKFIT
	 Reference Energy          =    -341.8016390122314192 [Eh]
	 Singles Energy            =      -0.0000000000000000 [Eh]
	 Same-Spin Energy          =      -0.3298518252899963 [Eh]
	 Opposite-Spin Energy      =      -1.0183643148624628 [Eh]
	 Correlation Energy        =      -1.3482161401524593 [Eh]
	 Total Energy              =    -343.1498551523839069 [Eh]

	 ================> DF-SCS-MP2 Energies <==================
	-----------------------------------------------------------
	 SCS Same-Spin Scale       =       0.3333333333333333 [-]
	 SCS Opposite-Spin Scale   =       1.2000000000000000 [-]
	 SCS Same-Spin Energy      =      -0.1099506084299988 [Eh]
	 SCS Opposite-Spin Energy  =      -1.2220371778349552 [Eh]
	 SCS Correlation Energy    =      -1.3319877862649541 [Eh]
	 SCS Total Energy          =    -343.1336267984963797 [Eh]
	-----------------------------------------------------------

  Dipole Moment: [D]
     X:     1.4313      Y:    -1.7073      Z:     0.3031     Total:     2.2484

*** Psi4 exiting successfully. Buy a developer a beer!
