                               Psi4 1.3.2 release

  ==> Input File <==

--------------------------------------------------------------------------
#psi4
#
memory 32 gb

molecule  {
0 1
  O       -1.4286555     1.0678728     0.1951777
  O        1.4425540    -1.0727980    -0.0074420
  O        1.2409190     1.1848430    -0.0695910
  C       -0.7273960    -0.1479950     0.3622400
  C       -1.3608000    -1.1844980    -0.5490290
  C        0.7386720     0.0808740     0.0596700
  H       -0.7586683    -0.5216815     1.4002072
  H       -1.2645370    -0.8668950    -1.5888250
  H       -2.4222350    -1.2600450    -0.3075440
  H       -0.8906180    -2.1601930    -0.4204410
  H       -0.7794970     1.7838810     0.3439450
  H        2.3720270    -0.8088230    -0.1742930
units angstrom
no_reorient  #important for SAPT in psi4, default
symmetry c1  #important for SAPT in psi4, default
}

set PROPERTIES_ORIGIN ["COM"]
properties('MP2/aug-cc-pvtz', properties = ['dipole'])
--------------------------------------------------------------------------

    Molecular point group: c1
  Charge       = 0
  Multiplicity = 1
  Basis Set: AUG-CC-PVTZ
    Blend: AUG-CC-PVTZ
  Basis Set: (AUG-CC-PVTZ AUX)
    Blend: AUG-CC-PVTZ-JKFIT

    Orbital Energies [Eh]
    ---------------------

    Doubly Occupied:

       1A    -20.633707     2A    -20.569988     3A    -20.567687
       4A    -11.402871     5A    -11.311725     6A    -11.231145
       7A     -1.479903     8A     -1.386782     9A     -1.362168
      10A     -1.053548    11A     -0.918538    12A     -0.811342
      13A     -0.738268    14A     -0.721812    15A     -0.692850
      16A     -0.639260    17A     -0.621086    18A     -0.584909
      19A     -0.560718    20A     -0.542316    21A     -0.533533
      22A     -0.499649    23A     -0.474969    24A     -0.454765

  @DF-RHF Final Energy:  -341.83658420248724

   => Energetics <=

    Nuclear Repulsion Energy =            249.7838236803161749
    One-Electron Energy =                -963.6537329908420588
    Two-Electron Energy =                 372.0333251080385821
    Total Energy =                       -341.8365842024872450
  Basis Set: (AUG-CC-PVTZ AUX)
    Blend: AUG-CC-PVTZ-RI
    Molecular point group: c1

    Geometry (in Angstrom), charge = 0, multiplicity = 1:

       Center              X                  Y                   Z               Mass
    ------------   -----------------  -----------------  -----------------  -----------------
         O           -1.429806086437     1.067989417811     0.199492950634    15.994914619570
         O            1.441403413563    -1.072681382189    -0.003126749366    15.994914619570
         O            1.239768413563     1.184959617811    -0.065275749366    15.994914619570
         C           -0.728546586437    -0.147878382189     0.366555250634    12.000000000000
         C           -1.361950586437    -1.184381382189    -0.544713749366    12.000000000000
         C            0.737521413563     0.080990617811     0.063985250634    12.000000000000
         H           -0.759818886437    -0.521564882189     1.404522450634     1.007825032230
         H           -1.265687586437    -0.866778382189    -1.584509749366     1.007825032230
         H           -2.423385586437    -1.259928382189    -0.303228749366     1.007825032230
         H           -0.891768586437    -2.160076382189    -0.416125749366     1.007825032230
         H           -0.780647586437     1.783997617811     0.348260250634     1.007825032230
         H            2.370876413563    -0.808706382189    -0.169977749366     1.007825032230

  Basis Set: AUG-CC-PVTZ
    Blend: AUG-CC-PVTZ
  Basis Set: (AUG-CC-PVTZ AUX)
    Blend: AUG-CC-PVTZ-JKFIT
	 Reference Energy          =    -341.8365842024872450 [Eh]
	 Singles Energy            =      -0.0000000000000000 [Eh]
	 Same-Spin Energy          =      -0.3271757512403161 [Eh]
	 Opposite-Spin Energy      =      -1.0117743045679430 [Eh]
	 Correlation Energy        =      -1.3389500558082590 [Eh]
	 Total Energy              =    -343.1755342582954995 [Eh]

	 ================> DF-SCS-MP2 Energies <==================
	-----------------------------------------------------------
	 SCS Same-Spin Scale       =       0.3333333333333333 [-]
	 SCS Opposite-Spin Scale   =       1.2000000000000000 [-]
	 SCS Same-Spin Energy      =      -0.1090585837467720 [Eh]
	 SCS Opposite-Spin Energy  =      -1.2141291654815316 [Eh]
	 SCS Correlation Energy    =      -1.3231877492283037 [Eh]
	 SCS Total Energy          =    -343.1597719517155269 [Eh]
	-----------------------------------------------------------

  Dipole Moment: [D]
     X:     1.2044      Y:    -1.8347      Z:     0.3592     Total:     2.2239

*** Psi4 exiting successfully. Buy a developer a beer!
