                               Psi4 1.3.2 release

  ==> Input File <==

--------------------------------------------------------------------------
#psi4
#
memory 32 gb

molecule  {
0 1
  O       -1.4344650     1.0675660     0.2191520
  O        1.4425540    -1.0727980    -0.0074420
  O        1.2597757     1.1756388    -0.0731794
  C       -0.7231298    -0.1740778     0.3620274
  C       -1.3608000    -1.1844980    -0.5490290
  C        0.7386720     0.0808740     0.0596700
  H       -0.7692630    -0.5063940     1.4052130
  H       -1.2645370    -0.8668950    -1.5888250
  H       -2.4222350    -1.2600450    -0.3075440
  H       -0.8906180    -2.1601930    -0.4204410
  H       -0.7794970     1.7838810     0.3439450
  H        2.3720270    -0.8088230    -0.1742930
units angstrom
no_reorient  #important for SAPT in psi4, default
symmetry c1  #important for SAPT in psi4, default
}

set PROPERTIES_ORIGIN ["COM"]
properties('MP2/aug-cc-pvtz', properties = ['dipole'])
--------------------------------------------------------------------------

    Molecular point group: c1
  Charge       = 0
  Multiplicity = 1
  Basis Set: AUG-CC-PVTZ
    Blend: AUG-CC-PVTZ
  Basis Set: (AUG-CC-PVTZ AUX)
    Blend: AUG-CC-PVTZ-JKFIT

    Orbital Energies [Eh]
    ---------------------

    Doubly Occupied:

       1A    -20.632250     2A    -20.570984     3A    -20.565209
       4A    -11.404165     5A    -11.312739     6A    -11.232249
       7A     -1.480379     8A     -1.381931     9A     -1.356459
      10A     -1.058336    11A     -0.920670    12A     -0.811206
      13A     -0.735232    14A     -0.721430    15A     -0.690395
      16A     -0.639059    17A     -0.621458    18A     -0.583270
      19A     -0.561788    20A     -0.540634    21A     -0.534365
      22A     -0.499620    23A     -0.476771    24A     -0.457058

  @DF-RHF Final Energy:  -341.83559175924250

   => Energetics <=

    Nuclear Repulsion Energy =            249.4323786534758938
    One-Electron Energy =                -962.9606249121228529
    Two-Electron Energy =                 371.6926544994044548
    Total Energy =                       -341.8355917592425044
  Basis Set: (AUG-CC-PVTZ AUX)
    Blend: AUG-CC-PVTZ-RI
    Molecular point group: c1

    Geometry (in Angstrom), charge = 0, multiplicity = 1:

       Center              X                  Y                   Z               Mass
    ------------   -----------------  -----------------  -----------------  -----------------
         O           -1.438383563301     1.072677682188     0.219817819131    15.994914619570
         O            1.438635436699    -1.067686317812    -0.006776180869    15.994914619570
         O            1.255857136699     1.180750482188    -0.072513580869    15.994914619570
         C           -0.727048363301    -0.168966117812     0.362693219131    12.000000000000
         C           -1.364718563301    -1.179386317812    -0.548363180869    12.000000000000
         C            0.734753436699     0.085985682188     0.060335819131    12.000000000000
         H           -0.773181563301    -0.501282317812     1.405878819131     1.007825032230
         H           -1.268455563301    -0.861783317812    -1.588159180869     1.007825032230
         H           -2.426153563301    -1.254933317812    -0.306878180869     1.007825032230
         H           -0.894536563301    -2.155081317812    -0.419775180869     1.007825032230
         H           -0.783415563301     1.788992682188     0.344610819131     1.007825032230
         H            2.368108436699    -0.803711317812    -0.173627180869     1.007825032230

  Basis Set: AUG-CC-PVTZ
    Blend: AUG-CC-PVTZ
  Basis Set: (AUG-CC-PVTZ AUX)
    Blend: AUG-CC-PVTZ-JKFIT
	 Reference Energy          =    -341.8355917592425044 [Eh]
	 Singles Energy            =      -0.0000000000000000 [Eh]
	 Same-Spin Energy          =      -0.3272135431191563 [Eh]
	 Opposite-Spin Energy      =      -1.0122237105209750 [Eh]
	 Correlation Energy        =      -1.3394372536401313 [Eh]
	 Total Energy              =    -343.1750290128826464 [Eh]

	 ================> DF-SCS-MP2 Energies <==================
	-----------------------------------------------------------
	 SCS Same-Spin Scale       =       0.3333333333333333 [-]
	 SCS Opposite-Spin Scale   =       1.2000000000000000 [-]
	 SCS Same-Spin Energy      =      -0.1090711810397188 [Eh]
	 SCS Opposite-Spin Energy  =      -1.2146684526251701 [Eh]
	 SCS Correlation Energy    =      -1.3237396336648888 [Eh]
	 SCS Total Energy          =    -343.1593313929074043 [Eh]
	-----------------------------------------------------------

  Dipole Moment: [D]
     X:     1.1936      Y:    -1.9046      Z:     0.3145     Total:     2.2696

*** Psi4 exiting successfully. Buy a developer a beer!
