                               Psi4 1.4a3.dev225

  ==> Input File <==

--------------------------------------------------------------------------
#psi4
#
memory 32 gb

molecule  {
0 1
  O       -1.3959680    -1.1167090    -0.2833280
  O        1.5522570     0.9331460    -0.3210200
  O        1.1768320    -1.1502310     0.4959580
  C       -0.6816250     0.0987340    -0.4130150
  C       -1.2846679     1.1740219     0.4533963
  C        0.7675010    -0.1293310    -0.0365160
  H       -0.7109810     0.4129130    -1.4639800
  H       -1.2242180     0.8953450     1.5161010
  H       -2.3476110     1.2964270     0.2055410
  H       -0.7844450     2.1448300     0.3211210
  H       -0.8100540    -1.7212800     0.2125920
  H        2.4531110     0.6959320    -0.0164550
units angstrom
no_reorient  #important for SAPT in psi4, default
symmetry c1  #important for SAPT in psi4, default
}

set PROPERTIES_ORIGIN ["COM"]
properties('MP2/aug-cc-pvtz', properties = ['dipole'])
--------------------------------------------------------------------------

    Molecular point group: c1
  Charge       = 0
  Multiplicity = 1
  Basis Set: AUG-CC-PVTZ
    Blend: AUG-CC-PVTZ
  Basis Set: (AUG-CC-PVTZ AUX)
    Blend: AUG-CC-PVTZ-JKFIT

    Orbital Energies [Eh]
    ---------------------

    Doubly Occupied:

       1A    -20.636032     2A    -20.572581     3A    -20.564549
       4A    -11.405706     5A    -11.310594     6A    -11.235317
       7A     -1.482029     8A     -1.387597     9A     -1.361209
      10A     -1.056556    11A     -0.918848    12A     -0.814553
      13A     -0.744539    14A     -0.726523    15A     -0.671038
      16A     -0.644055    17A     -0.626022    18A     -0.593119
      19A     -0.567522    20A     -0.540250    21A     -0.530246
      22A     -0.502172    23A     -0.468611    24A     -0.459529

  @DF-RHF Final Energy:  -341.83652886164549

   => Energetics <=

    Nuclear Repulsion Energy =            249.9062461759565110
    One-Electron Energy =                -963.8471572499505555
    Two-Electron Energy =                 372.1043822123485256
    Total Energy =                       -341.8365288616454905
  Basis Set: (AUG-CC-PVTZ AUX)
    Blend: AUG-CC-PVTZ-RI
    Molecular point group: c1

    Geometry (in Angstrom), charge = 0, multiplicity = 1:

       Center              X                  Y                   Z               Mass
    ------------   -----------------  -----------------  -----------------  -----------------
         O           -1.434695043288    -1.073840611663    -0.273261307029    15.994914619570
         O            1.513529956712     0.976014388337    -0.310953307029    15.994914619570
         O            1.138104956712    -1.107362611663     0.506024692971    15.994914619570
         C           -0.720352043288     0.141602388337    -0.402948307029    12.000000000000
         C           -1.323394943288     1.216890288337     0.463462992971    12.000000000000
         C            0.728773956712    -0.086462611663    -0.026449307029    12.000000000000
         H           -0.749708043288     0.455781388337    -1.453913307029     1.007825032230
         H           -1.262945043288     0.938213388337     1.526167692971     1.007825032230
         H           -2.386338043288     1.339295388337     0.215607692971     1.007825032230
         H           -0.823172043288     2.187698388337     0.331187692971     1.007825032230
         H           -0.848781043288    -1.678411611663     0.222658692971     1.007825032230
         H            2.414383956712     0.738800388337    -0.006388307029     1.007825032230

  Basis Set: AUG-CC-PVTZ
    Blend: AUG-CC-PVTZ
  Basis Set: (AUG-CC-PVTZ AUX)
    Blend: AUG-CC-PVTZ-JKFIT
	 Reference Energy          =    -341.8365288616454905 [Eh]
	 Singles Energy            =      -0.0000000000000000 [Eh]
	 Same-Spin Energy          =      -0.3273561977164192 [Eh]
	 Opposite-Spin Energy      =      -1.0119212267264837 [Eh]
	 Correlation Energy        =      -1.3392774244429029 [Eh]
	 Total Energy              =    -343.1758062860884024 [Eh]

	 ================> DF-SCS-MP2 Energies <==================
	-----------------------------------------------------------
	 SCS Same-Spin Scale       =       0.3333333333333333 [-]
	 SCS Opposite-Spin Scale   =       1.2000000000000000 [-]
	 SCS Same-Spin Energy      =      -0.1091187325721397 [Eh]
	 SCS Opposite-Spin Energy  =      -1.2143054720717803 [Eh]
	 SCS Correlation Energy    =      -1.3234242046439200 [Eh]
	 SCS Total Energy          =    -343.1599530662894040 [Eh]
	-----------------------------------------------------------

  Dipole Moment: [D]
     X:     1.3092      Y:     1.9730      Z:     0.0669     Total:     2.3688

*** Psi4 exiting successfully. Buy a developer a beer!
