                               Psi4 1.3.2 release

  ==> Input File <==

--------------------------------------------------------------------------
#psi4
#
memory 32 gb

molecule  {
0 1
  O       -1.4344650     1.0675660     0.2191520
  O        1.4425540    -1.0727980    -0.0074420
  O        1.2409190     1.1848430    -0.0695910
  C       -0.7273960    -0.1479950     0.3622400
  C       -1.3608000    -1.1844980    -0.5490290
  C        0.7386720     0.0808740     0.0596700
  H       -0.7692630    -0.5063940     1.4052130
  H       -1.2645370    -0.8668950    -1.5888250
  H       -2.4222350    -1.2600450    -0.3075440
  H       -0.8906180    -2.1601930    -0.4204410
  H       -0.7794970     1.7838810     0.3439450
  H        2.5616125    -0.7549798    -0.2083258
units angstrom
no_reorient  #important for SAPT in psi4, default
symmetry c1  #important for SAPT in psi4, default
}

set PROPERTIES_ORIGIN ["COM"]
properties('MP2/aug-cc-pvtz', properties = ['dipole'])
--------------------------------------------------------------------------

    Molecular point group: c1
  Charge       = 0
  Multiplicity = 1
  Basis Set: AUG-CC-PVTZ
    Blend: AUG-CC-PVTZ
  Basis Set: (AUG-CC-PVTZ AUX)
    Blend: AUG-CC-PVTZ-JKFIT

    Orbital Energies [Eh]
    ---------------------

    Doubly Occupied:

       1A    -20.641858     2A    -20.566677     3A    -20.565827
       4A    -11.399556     5A    -11.310475     6A    -11.230123
       7A     -1.460489     8A     -1.375609     9A     -1.354034
      10A     -1.048483    11A     -0.908086    12A     -0.790456
      13A     -0.733998    14A     -0.702637    15A     -0.685117
      16A     -0.628450    17A     -0.609682    18A     -0.582494
      19A     -0.560020    20A     -0.540709    21A     -0.526887
      22A     -0.494684    23A     -0.471673    24A     -0.452552

  @DF-RHF Final Energy:  -341.80195948820705

   => Energetics <=

    Nuclear Repulsion Energy =            248.5974197801954801
    One-Electron Energy =                -961.5176020608456611
    Two-Electron Energy =                 371.1182227924430777
    Total Energy =                       -341.8019594882070464
  Basis Set: (AUG-CC-PVTZ AUX)
    Blend: AUG-CC-PVTZ-RI
    Molecular point group: c1

    Geometry (in Angstrom), charge = 0, multiplicity = 1:

       Center              X                  Y                   Z               Mass
    ------------   -----------------  -----------------  -----------------  -----------------
         O           -1.436587121552     1.066963266578     0.219532938966    15.994914619570
         O            1.440431878448    -1.073400733422    -0.007061061034    15.994914619570
         O            1.238796878448     1.184240266578    -0.069210061034    15.994914619570
         C           -0.729518121552    -0.148597733422     0.362620938966    12.000000000000
         C           -1.362922121552    -1.185100733422    -0.548648061034    12.000000000000
         C            0.736549878448     0.080271266578     0.060050938966    12.000000000000
         H           -0.771385121552    -0.506996733422     1.405593938966     1.007825032230
         H           -1.266659121552    -0.867497733422    -1.588444061034     1.007825032230
         H           -2.424357121552    -1.260647733422    -0.307163061034     1.007825032230
         H           -0.892740121552    -2.160795733422    -0.420060061034     1.007825032230
         H           -0.781619121552     1.783278266578     0.344325938966     1.007825032230
         H            2.559490378448    -0.755582533422    -0.207944861034     1.007825032230

  Basis Set: AUG-CC-PVTZ
    Blend: AUG-CC-PVTZ
  Basis Set: (AUG-CC-PVTZ AUX)
    Blend: AUG-CC-PVTZ-JKFIT
	 Reference Energy          =    -341.8019594882070464 [Eh]
	 Singles Energy            =      -0.0000000000000000 [Eh]
	 Same-Spin Energy          =      -0.3296680556988130 [Eh]
	 Opposite-Spin Energy      =      -1.0181897062921768 [Eh]
	 Correlation Energy        =      -1.3478577619909897 [Eh]
	 Total Energy              =    -343.1498172501980548 [Eh]

	 ================> DF-SCS-MP2 Energies <==================
	-----------------------------------------------------------
	 SCS Same-Spin Scale       =       0.3333333333333333 [-]
	 SCS Opposite-Spin Scale   =       1.2000000000000000 [-]
	 SCS Same-Spin Energy      =      -0.1098893518996043 [Eh]
	 SCS Opposite-Spin Energy  =      -1.2218276475506120 [Eh]
	 SCS Correlation Energy    =      -1.3317169994502163 [Eh]
	 SCS Total Energy          =    -343.1336764876572829 [Eh]
	-----------------------------------------------------------

  Dipole Moment: [D]
     X:     1.4649      Y:    -1.8232      Z:     0.2669     Total:     2.3540

*** Psi4 exiting successfully. Buy a developer a beer!
