                               Psi4 1.4a3.dev225

  ==> Input File <==

--------------------------------------------------------------------------
#psi4
#
memory 32 gb

molecule  {
0 1
  O       -1.3959680    -1.1167090    -0.2833280
  O        1.5522570     0.9331460    -0.3210200
  O        1.1768320    -1.1502310     0.4959580
  C       -0.6816250     0.0987340    -0.4130150
  C       -1.3006761     1.2025661     0.4763957
  C        0.7675010    -0.1293310    -0.0365160
  H       -0.7109810     0.4129130    -1.4639800
  H       -1.2242180     0.8953450     1.5161010
  H       -2.3476110     1.2964270     0.2055410
  H       -0.7844450     2.1448300     0.3211210
  H       -0.8100540    -1.7212800     0.2125920
  H        2.4531110     0.6959320    -0.0164550
units angstrom
no_reorient  #important for SAPT in psi4, default
symmetry c1  #important for SAPT in psi4, default
}

set PROPERTIES_ORIGIN ["COM"]
properties('MP2/aug-cc-pvtz', properties = ['dipole'])
--------------------------------------------------------------------------

    Molecular point group: c1
  Charge       = 0
  Multiplicity = 1
  Basis Set: AUG-CC-PVTZ
    Blend: AUG-CC-PVTZ
  Basis Set: (AUG-CC-PVTZ AUX)
    Blend: AUG-CC-PVTZ-JKFIT

    Orbital Energies [Eh]
    ---------------------

    Doubly Occupied:

       1A    -20.635788     2A    -20.572152     3A    -20.564699
       4A    -11.405364     5A    -11.311899     6A    -11.234391
       7A     -1.481662     8A     -1.387141     9A     -1.360614
      10A     -1.050278    11A     -0.920852    12A     -0.814521
      13A     -0.743594    14A     -0.726055    15A     -0.669406
      16A     -0.642470    17A     -0.625701    18A     -0.587674
      19A     -0.571547    20A     -0.546627    21A     -0.533027
      22A     -0.501827    23A     -0.469737    24A     -0.454313

  @DF-RHF Final Energy:  -341.83691724602892

   => Energetics <=

    Nuclear Repulsion Energy =            249.2644002376285925
    One-Electron Energy =                -962.5799569146631711
    Two-Electron Energy =                 371.4786394310056608
    Total Energy =                       -341.8369172460289178
  Basis Set: (AUG-CC-PVTZ AUX)
    Blend: AUG-CC-PVTZ-RI
    Molecular point group: c1

    Geometry (in Angstrom), charge = 0, multiplicity = 1:

       Center              X                  Y                   Z               Mass
    ------------   -----------------  -----------------  -----------------  -----------------
         O           -1.432561368008    -1.077645165199    -0.276326814159    15.994914619570
         O            1.515663631992     0.972209834801    -0.314018814159    15.994914619570
         O            1.140238631992    -1.111167165199     0.502959185841    15.994914619570
         C           -0.718218368008     0.137797834801    -0.406013814159    12.000000000000
         C           -1.337269468008     1.241629934801     0.483396885841    12.000000000000
         C            0.730907631992    -0.090267165199    -0.029514814159    12.000000000000
         H           -0.747574368008     0.451976834801    -1.456978814159     1.007825032230
         H           -1.260811368008     0.934408834801     1.523102185841     1.007825032230
         H           -2.384204368008     1.335490834801     0.212542185841     1.007825032230
         H           -0.821038368008     2.183893834801     0.328122185841     1.007825032230
         H           -0.846647368008    -1.682216165199     0.219593185841     1.007825032230
         H            2.416517631992     0.734995834801    -0.009453814159     1.007825032230

  Basis Set: AUG-CC-PVTZ
    Blend: AUG-CC-PVTZ
  Basis Set: (AUG-CC-PVTZ AUX)
    Blend: AUG-CC-PVTZ-JKFIT
	 Reference Energy          =    -341.8369172460289178 [Eh]
	 Singles Energy            =      -0.0000000000000000 [Eh]
	 Same-Spin Energy          =      -0.3271204326940541 [Eh]
	 Opposite-Spin Energy      =      -1.0117155939814428 [Eh]
	 Correlation Energy        =      -1.3388360266754968 [Eh]
	 Total Energy              =    -343.1757532727044122 [Eh]

	 ================> DF-SCS-MP2 Energies <==================
	-----------------------------------------------------------
	 SCS Same-Spin Scale       =       0.3333333333333333 [-]
	 SCS Opposite-Spin Scale   =       1.2000000000000000 [-]
	 SCS Same-Spin Energy      =      -0.1090401442313513 [Eh]
	 SCS Opposite-Spin Energy  =      -1.2140587127777314 [Eh]
	 SCS Correlation Energy    =      -1.3230988570090827 [Eh]
	 SCS Total Energy          =    -343.1600161030380036 [Eh]
	-----------------------------------------------------------

  Dipole Moment: [D]
     X:     1.2982      Y:     1.9600      Z:     0.0601     Total:     2.3517

*** Psi4 exiting successfully. Buy a developer a beer!
