                               Psi4 1.3.2 release

  ==> Input File <==

--------------------------------------------------------------------------
#psi4
#
memory 32 gb

molecule  {
0 1
  O       -1.4344650     1.0675660     0.2191520
  O        1.4425540    -1.0727980    -0.0074420
  O        1.2409190     1.1848430    -0.0695910
  C       -0.7273960    -0.1479950     0.3622400
  C       -1.3608000    -1.1844980    -0.5490290
  C        0.6563173    -0.1001466     0.0808653
  H       -0.7692630    -0.5063940     1.4052130
  H       -1.2645370    -0.8668950    -1.5888250
  H       -2.4222350    -1.2600450    -0.3075440
  H       -0.8906180    -2.1601930    -0.4204410
  H       -0.7794970     1.7838810     0.3439450
  H        2.3720270    -0.8088230    -0.1742930
units angstrom
no_reorient  #important for SAPT in psi4, default
symmetry c1  #important for SAPT in psi4, default
}

set PROPERTIES_ORIGIN ["COM"]
properties('MP2/aug-cc-pvtz', properties = ['dipole'])
--------------------------------------------------------------------------

    Molecular point group: c1
  Charge       = 0
  Multiplicity = 1
  Basis Set: AUG-CC-PVTZ
    Blend: AUG-CC-PVTZ
  Basis Set: (AUG-CC-PVTZ AUX)
    Blend: AUG-CC-PVTZ-JKFIT

    Orbital Energies [Eh]
    ---------------------

    Doubly Occupied:

       1A    -20.665592     2A    -20.571879     3A    -20.531581
       4A    -11.417284     5A    -11.317137     6A    -11.241334
       7A     -1.523828     8A     -1.380795     9A     -1.259780
      10A     -1.088630    11A     -0.947306    12A     -0.860375
      13A     -0.754134    14A     -0.727534    15A     -0.705842
      16A     -0.652627    17A     -0.604226    18A     -0.576304
      19A     -0.567846    20A     -0.552704    21A     -0.506403
      22A     -0.471113    23A     -0.442282    24A     -0.433615

  @DF-RHF Final Energy:  -341.77063897945368

   => Energetics <=

    Nuclear Repulsion Energy =            249.7628150242994138
    One-Electron Energy =                -963.4666095294792285
    Two-Electron Energy =                 371.9331555257260788
    Total Energy =                       -341.7706389794536790
  Basis Set: (AUG-CC-PVTZ AUX)
    Blend: AUG-CC-PVTZ-RI
    Molecular point group: c1

    Geometry (in Angstrom), charge = 0, multiplicity = 1:

       Center              X                  Y                   Z               Mass
    ------------   -----------------  -----------------  -----------------  -----------------
         O           -1.423488118750     1.091693576811     0.216326926786    15.994914619570
         O            1.453530881250    -1.048670423189    -0.010267073214    15.994914619570
         O            1.251895881250     1.208970576811    -0.072416073214    15.994914619570
         C           -0.716419118750    -0.123867423189     0.359414926786    12.000000000000
         C           -1.349823118750    -1.160370423189    -0.551854073214    12.000000000000
         C            0.667294181250    -0.076019023189     0.078040226786    12.000000000000
         H           -0.758286118750    -0.482266423189     1.402387926786     1.007825032230
         H           -1.253560118750    -0.842767423189    -1.591650073214     1.007825032230
         H           -2.411258118750    -1.235917423189    -0.310369073214     1.007825032230
         H           -0.879641118750    -2.136065423189    -0.423266073214     1.007825032230
         H           -0.768520118750     1.808008576811     0.341119926786     1.007825032230
         H            2.383003881250    -0.784695423189    -0.177118073214     1.007825032230

  Basis Set: AUG-CC-PVTZ
    Blend: AUG-CC-PVTZ
  Basis Set: (AUG-CC-PVTZ AUX)
    Blend: AUG-CC-PVTZ-JKFIT
	 Reference Energy          =    -341.7706389794536790 [Eh]
	 Singles Energy            =      -0.0000000000000000 [Eh]
	 Same-Spin Energy          =      -0.3317579244895217 [Eh]
	 Opposite-Spin Energy      =      -1.0192885399079223 [Eh]
	 Correlation Energy        =      -1.3510464643974440 [Eh]
	 Total Energy              =    -343.1216854438511064 [Eh]

	 ================> DF-SCS-MP2 Energies <==================
	-----------------------------------------------------------
	 SCS Same-Spin Scale       =       0.3333333333333333 [-]
	 SCS Opposite-Spin Scale   =       1.2000000000000000 [-]
	 SCS Same-Spin Energy      =      -0.1105859748298406 [Eh]
	 SCS Opposite-Spin Energy  =      -1.2231462478895068 [Eh]
	 SCS Correlation Energy    =      -1.3337322227193473 [Eh]
	 SCS Total Energy          =    -343.1043712021730130 [Eh]
	-----------------------------------------------------------

  Dipole Moment: [D]
     X:     0.9404      Y:    -3.1008      Z:     0.3927     Total:     3.2640

*** Psi4 exiting successfully. Buy a developer a beer!
