                               Psi4 1.4a3.dev225

  ==> Input File <==

--------------------------------------------------------------------------
#psi4
#
memory 32 gb

molecule  {
0 1
  O       -1.3959680    -1.1167090    -0.2833280
  O        1.5522570     0.9331460    -0.3210200
  O        1.1768320    -1.1502310     0.4959580
  C       -0.6816250     0.0987340    -0.4130150
  C       -1.2926720     1.1882940     0.4648960
  C        0.7675010    -0.1293310    -0.0365160
  H       -0.7109810     0.4129130    -1.4639800
  H       -1.2242180     0.8953450     1.5161010
  H       -2.3476110     1.2964270     0.2055410
  H       -0.7844450     2.1448300     0.3211210
  H       -0.7800719    -1.7522168     0.2379690
  H        2.4531110     0.6959320    -0.0164550
units angstrom
no_reorient  #important for SAPT in psi4, default
symmetry c1  #important for SAPT in psi4, default
}

set PROPERTIES_ORIGIN ["COM"]
properties('MP2/aug-cc-pvtz', properties = ['dipole'])
--------------------------------------------------------------------------

    Molecular point group: c1
  Charge       = 0
  Multiplicity = 1
  Basis Set: AUG-CC-PVTZ
    Blend: AUG-CC-PVTZ
  Basis Set: (AUG-CC-PVTZ AUX)
    Blend: AUG-CC-PVTZ-JKFIT

    Orbital Energies [Eh]
    ---------------------

    Doubly Occupied:

       1A    -20.636122     2A    -20.573035     3A    -20.566876
       4A    -11.405665     5A    -11.310416     6A    -11.234294
       7A     -1.482028     8A     -1.384779     9A     -1.353457
      10A     -1.050716    11A     -0.919412    12A     -0.811016
      13A     -0.740452    14A     -0.726705    15A     -0.668296
      16A     -0.640236    17A     -0.625397    18A     -0.588138
      19A     -0.568110    20A     -0.541883    21A     -0.527936
      22A     -0.502575    23A     -0.469808    24A     -0.454853

  @DF-RHF Final Energy:  -341.83209539771997

   => Energetics <=

    Nuclear Repulsion Energy =            249.3412750148514476
    One-Electron Energy =                -962.7823335176731234
    Two-Electron Energy =                 371.6089631051016795
    Total Energy =                       -341.8320953977199679
  Basis Set: (AUG-CC-PVTZ AUX)
    Blend: AUG-CC-PVTZ-RI
    Molecular point group: c1

    Geometry (in Angstrom), charge = 0, multiplicity = 1:

       Center              X                  Y                   Z               Mass
    ------------   -----------------  -----------------  -----------------  -----------------
         O           -1.433963828689    -1.075396578370    -0.275078133621    15.994914619570
         O            1.514261171311     0.974458421630    -0.312770133621    15.994914619570
         O            1.138836171311    -1.108918578370     0.504207866379    15.994914619570
         C           -0.719620828689     0.140046421630    -0.404765133621    12.000000000000
         C           -1.330667828689     1.229606421630     0.473145866379    12.000000000000
         C            0.729505171311    -0.088018578370    -0.028266133621    12.000000000000
         H           -0.748976828689     0.454225421630    -1.455730133621     1.007825032230
         H           -1.262213828689     0.936657421630     1.524350866379     1.007825032230
         H           -2.385606828689     1.337739421630     0.213790866379     1.007825032230
         H           -0.822440828689     2.186142421630     0.329370866379     1.007825032230
         H           -0.818067728689    -1.710904378370     0.246218866379     1.007825032230
         H            2.415115171311     0.737244421630    -0.008205133621     1.007825032230

  Basis Set: AUG-CC-PVTZ
    Blend: AUG-CC-PVTZ
  Basis Set: (AUG-CC-PVTZ AUX)
    Blend: AUG-CC-PVTZ-JKFIT
	 Reference Energy          =    -341.8320953977199679 [Eh]
	 Singles Energy            =      -0.0000000000000000 [Eh]
	 Same-Spin Energy          =      -0.3279251810401395 [Eh]
	 Opposite-Spin Energy      =      -1.0133351567126070 [Eh]
	 Correlation Energy        =      -1.3412603377527463 [Eh]
	 Total Energy              =    -343.1733557354727395 [Eh]

	 ================> DF-SCS-MP2 Energies <==================
	-----------------------------------------------------------
	 SCS Same-Spin Scale       =       0.3333333333333333 [-]
	 SCS Opposite-Spin Scale   =       1.2000000000000000 [-]
	 SCS Same-Spin Energy      =      -0.1093083936800465 [Eh]
	 SCS Opposite-Spin Energy  =      -1.2160021880551284 [Eh]
	 SCS Correlation Energy    =      -1.3253105817351749 [Eh]
	 SCS Total Energy          =    -343.1574059794551204 [Eh]
	-----------------------------------------------------------

  Dipole Moment: [D]
     X:     1.3563      Y:     1.9327      Z:     0.0909     Total:     2.3628

*** Psi4 exiting successfully. Buy a developer a beer!
