                               Psi4 1.3.2 release

  ==> Input File <==

--------------------------------------------------------------------------
#psi4
#
memory 32 gb

molecule  {
0 1
  O       -1.4344650     1.0675660     0.2191520
  O        1.4425540    -1.0727980    -0.0074420
  O        1.2219093     1.1937109    -0.0659632
  C       -0.7312156    -0.1218425     0.3623604
  C       -1.3608000    -1.1844980    -0.5490290
  C        0.7386720     0.0808740     0.0596700
  H       -0.7692630    -0.5063940     1.4052130
  H       -1.2645370    -0.8668950    -1.5888250
  H       -2.4222350    -1.2600450    -0.3075440
  H       -0.8906180    -2.1601930    -0.4204410
  H       -0.7794970     1.7838810     0.3439450
  H        2.3720270    -0.8088230    -0.1742930
units angstrom
no_reorient  #important for SAPT in psi4, default
symmetry c1  #important for SAPT in psi4, default
}

set PROPERTIES_ORIGIN ["COM"]
properties('MP2/aug-cc-pvtz', properties = ['dipole'])
--------------------------------------------------------------------------

    Molecular point group: c1
  Charge       = 0
  Multiplicity = 1
  Basis Set: AUG-CC-PVTZ
    Blend: AUG-CC-PVTZ
  Basis Set: (AUG-CC-PVTZ AUX)
    Blend: AUG-CC-PVTZ-JKFIT

    Orbital Energies [Eh]
    ---------------------

    Doubly Occupied:

       1A    -20.635889     2A    -20.569972     3A    -20.568831
       4A    -11.402916     5A    -11.310500     6A    -11.230670
       7A     -1.480200     8A     -1.392945     9A     -1.366883
      10A     -1.048354    11A     -0.916633    12A     -0.812863
      13A     -0.742568    14A     -0.722844    15A     -0.691780
      16A     -0.639442    17A     -0.621864    18A     -0.588755
      19A     -0.560883    20A     -0.543638    21A     -0.533108
      22A     -0.500867    23A     -0.471140    24A     -0.451552

  @DF-RHF Final Energy:  -341.83647690562663

   => Energetics <=

    Nuclear Repulsion Energy =            249.8897035210130753
    One-Electron Energy =                -963.8421716099855985
    Two-Electron Energy =                 372.1159911833458978
    Total Energy =                       -341.8364769056266255
  Basis Set: (AUG-CC-PVTZ AUX)
    Blend: AUG-CC-PVTZ-RI
    Molecular point group: c1

    Geometry (in Angstrom), charge = 0, multiplicity = 1:

       Center              X                  Y                   Z               Mass
    ------------   -----------------  -----------------  -----------------  -----------------
         O           -1.430578540388     1.062504761350     0.218491413979    15.994914619570
         O            1.446440459612    -1.077859238650    -0.008102586021    15.994914619570
         O            1.225795759612     1.188649661350    -0.066623786021    15.994914619570
         C           -0.727329140388    -0.126903738650     0.361699813979    12.000000000000
         C           -1.356913540388    -1.189559238650    -0.549689586021    12.000000000000
         C            0.742558459612     0.075812761350     0.059009413979    12.000000000000
         H           -0.765376540388    -0.511455238650     1.404552413979     1.007825032230
         H           -1.260650540388    -0.871956238650    -1.589485586021     1.007825032230
         H           -2.418348540388    -1.265106238650    -0.308204586021     1.007825032230
         H           -0.886731540388    -2.165254238650    -0.421101586021     1.007825032230
         H           -0.775610540388     1.778819761350     0.343284413979     1.007825032230
         H            2.375913459612    -0.813884238650    -0.174953586021     1.007825032230

  Basis Set: AUG-CC-PVTZ
    Blend: AUG-CC-PVTZ
  Basis Set: (AUG-CC-PVTZ AUX)
    Blend: AUG-CC-PVTZ-JKFIT
	 Reference Energy          =    -341.8364769056266255 [Eh]
	 Singles Energy            =      -0.0000000000000000 [Eh]
	 Same-Spin Energy          =      -0.3271355701559708 [Eh]
	 Opposite-Spin Energy      =      -1.0114167570842980 [Eh]
	 Correlation Energy        =      -1.3385523272402688 [Eh]
	 Total Energy              =    -343.1750292328669047 [Eh]

	 ================> DF-SCS-MP2 Energies <==================
	-----------------------------------------------------------
	 SCS Same-Spin Scale       =       0.3333333333333333 [-]
	 SCS Opposite-Spin Scale   =       1.2000000000000000 [-]
	 SCS Same-Spin Energy      =      -0.1090451900519903 [Eh]
	 SCS Opposite-Spin Energy  =      -1.2137001085011576 [Eh]
	 SCS Correlation Energy    =      -1.3227452985531478 [Eh]
	 SCS Total Energy          =    -343.1592222041797982 [Eh]
	-----------------------------------------------------------

  Dipole Moment: [D]
     X:     1.2539      Y:    -1.7747      Z:     0.3007     Total:     2.1937

*** Psi4 exiting successfully. Buy a developer a beer!
