                               Psi4 1.3.2 release

  ==> Input File <==

--------------------------------------------------------------------------
#psi4
#
memory 32 gb

molecule  {
0 1
  O       -1.4344650     1.0675660     0.2191520
  O        1.4425540    -1.0727980    -0.0074420
  O        1.2409190     1.1848430    -0.0695910
  C       -0.7089844    -0.1054896     0.2976277
  C       -1.3608000    -1.1844980    -0.5490290
  C        0.7386720     0.0808740     0.0596700
  H       -0.7692630    -0.5063940     1.4052130
  H       -1.2375695    -0.8199933    -1.5704322
  H       -2.4222350    -1.2600450    -0.3075440
  H       -0.8906180    -2.1601930    -0.4204410
  H       -0.7794970     1.7838810     0.3439450
  H        2.3720270    -0.8088230    -0.1742930
units angstrom
no_reorient  #important for SAPT in psi4, default
symmetry c1  #important for SAPT in psi4, default
}

set PROPERTIES_ORIGIN ["COM"]
properties('MP2/aug-cc-pvtz', properties = ['dipole'])
--------------------------------------------------------------------------

    Molecular point group: c1
  Charge       = 0
  Multiplicity = 1
  Basis Set: AUG-CC-PVTZ
    Blend: AUG-CC-PVTZ
  Basis Set: (AUG-CC-PVTZ AUX)
    Blend: AUG-CC-PVTZ-JKFIT

    Orbital Energies [Eh]
    ---------------------

    Doubly Occupied:

       1A    -20.634631     2A    -20.572326     3A    -20.569360
       4A    -11.403023     5A    -11.313426     6A    -11.232095
       7A     -1.481464     8A     -1.396604     9A     -1.368614
      10A     -1.055520    11A     -0.923461    12A     -0.808798
      13A     -0.747108    14A     -0.722747    15A     -0.688743
      16A     -0.639631    17A     -0.621222    18A     -0.593363
      19A     -0.561468    20A     -0.544485    21A     -0.540451
      22A     -0.500953    23A     -0.475193    24A     -0.440852

  @DF-RHF Final Energy:  -341.82966966558337

   => Energetics <=

    Nuclear Repulsion Energy =            250.5946823680425553
    One-Electron Energy =                -965.1776319042795649
    Two-Electron Energy =                 372.7532798706536710
    Total Energy =                       -341.8296696655833671
  Basis Set: (AUG-CC-PVTZ AUX)
    Blend: AUG-CC-PVTZ-RI
    Molecular point group: c1

    Geometry (in Angstrom), charge = 0, multiplicity = 1:

       Center              X                  Y                   Z               Mass
    ------------   -----------------  -----------------  -----------------  -----------------
         O           -1.437220772951     1.061375578954     0.227558021418    15.994914619570
         O            1.439798227049    -1.078988421046     0.000964021418    15.994914619570
         O            1.238163227049     1.178652578954    -0.061184978582    15.994914619570
         C           -0.711740172951    -0.111680021046     0.306033721418    12.000000000000
         C           -1.363555772951    -1.190688421046    -0.540622978582    12.000000000000
         C            0.735916227049     0.074683578954     0.068076021418    12.000000000000
         H           -0.772018772951    -0.512584421046     1.413619021418     1.007825032230
         H           -1.240325272951    -0.826183721046    -1.562026178582     1.007825032230
         H           -2.424990772951    -1.266235421046    -0.299137978582     1.007825032230
         H           -0.893373772951    -2.166383421046    -0.412034978582     1.007825032230
         H           -0.782252772951     1.777690578954     0.352351021418     1.007825032230
         H            2.369271227049    -0.815013421046    -0.165886978582     1.007825032230

  Basis Set: AUG-CC-PVTZ
    Blend: AUG-CC-PVTZ
  Basis Set: (AUG-CC-PVTZ AUX)
    Blend: AUG-CC-PVTZ-JKFIT
	 Reference Energy          =    -341.8296696655833671 [Eh]
	 Singles Energy            =      -0.0000000000000000 [Eh]
	 Same-Spin Energy          =      -0.3276360610869604 [Eh]
	 Opposite-Spin Energy      =      -1.0120332704133275 [Eh]
	 Correlation Energy        =      -1.3396693315002879 [Eh]
	 Total Energy              =    -343.1693389970836279 [Eh]

	 ================> DF-SCS-MP2 Energies <==================
	-----------------------------------------------------------
	 SCS Same-Spin Scale       =       0.3333333333333333 [-]
	 SCS Opposite-Spin Scale   =       1.2000000000000000 [-]
	 SCS Same-Spin Energy      =      -0.1092120203623201 [Eh]
	 SCS Opposite-Spin Energy  =      -1.2144399244959929 [Eh]
	 SCS Correlation Energy    =      -1.3236519448583131 [Eh]
	 SCS Total Energy          =    -343.1533216104417079 [Eh]
	-----------------------------------------------------------

  Dipole Moment: [D]
     X:     1.1375      Y:    -1.7268      Z:     0.2235     Total:     2.0799

*** Psi4 exiting successfully. Buy a developer a beer!
