                               Psi4 1.3.2 release

  ==> Input File <==

--------------------------------------------------------------------------
#psi4
#
memory 32 gb

molecule  {
0 1
  O       -1.4344650     1.0675660     0.2191520
  O        1.4622480    -1.0603214    -0.0112095
  O        1.2599312     1.1756673    -0.0723321
  C       -0.7273960    -0.1479950     0.3622400
  C       -1.3608000    -1.1844980    -0.5490290
  C        0.7386720     0.0808740     0.0596700
  H       -0.7692630    -0.5063940     1.4052130
  H       -1.2645370    -0.8668950    -1.5888250
  H       -2.4222350    -1.2600450    -0.3075440
  H       -0.8906180    -2.1601930    -0.4204410
  H       -0.7794970     1.7838810     0.3439450
  H        2.3720270    -0.8088230    -0.1742930
units angstrom
no_reorient  #important for SAPT in psi4, default
symmetry c1  #important for SAPT in psi4, default
}

set PROPERTIES_ORIGIN ["COM"]
properties('MP2/aug-cc-pvtz', properties = ['dipole'])
--------------------------------------------------------------------------

    Molecular point group: c1
  Charge       = 0
  Multiplicity = 1
  Basis Set: AUG-CC-PVTZ
    Blend: AUG-CC-PVTZ
  Basis Set: (AUG-CC-PVTZ AUX)
    Blend: AUG-CC-PVTZ-JKFIT

    Orbital Energies [Eh]
    ---------------------

    Doubly Occupied:

       1A    -20.629167     2A    -20.568999     3A    -20.568879
       4A    -11.403342     5A    -11.313808     6A    -11.232570
       7A     -1.482224     8A     -1.386471     9A     -1.362569
      10A     -1.055106    11A     -0.920913    12A     -0.816518
      13A     -0.739419    14A     -0.722270    15A     -0.691942
      16A     -0.639039    17A     -0.620778    18A     -0.586367
      19A     -0.562276    20A     -0.543476    21A     -0.535005
      22A     -0.498506    23A     -0.474831    24A     -0.456027

  @DF-RHF Final Energy:  -341.83812671197887

   => Energetics <=

    Nuclear Repulsion Energy =            249.5554568757336540
    One-Electron Energy =                -963.1661591870674783
    Two-Electron Energy =                 371.7725755993549797
    Total Energy =                       -341.8381267119788731
  Basis Set: (AUG-CC-PVTZ AUX)
    Blend: AUG-CC-PVTZ-RI
    Molecular point group: c1

    Geometry (in Angstrom), charge = 0, multiplicity = 1:

       Center              X                  Y                   Z               Mass
    ------------   -----------------  -----------------  -----------------  -----------------
         O           -1.441341373442     1.066979559852     0.220308281409    15.994914619570
         O            1.455371626558    -1.060907840148    -0.010053218591    15.994914619570
         O            1.253054826558     1.175080859852    -0.071175818591    15.994914619570
         C           -0.734272373442    -0.148581440148     0.363396281409    12.000000000000
         C           -1.367676373442    -1.185084440148    -0.547872718591    12.000000000000
         C            0.731795626558     0.080287559852     0.060826281409    12.000000000000
         H           -0.776139373442    -0.506980440148     1.406369281409     1.007825032230
         H           -1.271413373442    -0.867481440148    -1.587668718591     1.007825032230
         H           -2.429111373442    -1.260631440148    -0.306387718591     1.007825032230
         H           -0.897494373442    -2.160779440148    -0.419284718591     1.007825032230
         H           -0.786373373442     1.783294559852     0.345101281409     1.007825032230
         H            2.365150626558    -0.809409440148    -0.173136718591     1.007825032230

  Basis Set: AUG-CC-PVTZ
    Blend: AUG-CC-PVTZ
  Basis Set: (AUG-CC-PVTZ AUX)
    Blend: AUG-CC-PVTZ-JKFIT
	 Reference Energy          =    -341.8381267119788731 [Eh]
	 Singles Energy            =      -0.0000000000000000 [Eh]
	 Same-Spin Energy          =      -0.3266383396516666 [Eh]
	 Opposite-Spin Energy      =      -1.0107375827899445 [Eh]
	 Correlation Energy        =      -1.3373759224416111 [Eh]
	 Total Energy              =    -343.1755026344204680 [Eh]

	 ================> DF-SCS-MP2 Energies <==================
	-----------------------------------------------------------
	 SCS Same-Spin Scale       =       0.3333333333333333 [-]
	 SCS Opposite-Spin Scale   =       1.2000000000000000 [-]
	 SCS Same-Spin Energy      =      -0.1088794465505555 [Eh]
	 SCS Opposite-Spin Energy  =      -1.2128850993479334 [Eh]
	 SCS Correlation Energy    =      -1.3217645458984890 [Eh]
	 SCS Total Energy          =    -343.1598912578773479 [Eh]
	-----------------------------------------------------------

  Dipole Moment: [D]
     X:     1.1058      Y:    -1.8276      Z:     0.3228     Total:     2.1604

*** Psi4 exiting successfully. Buy a developer a beer!
