                               Psi4 1.3.2 release

  ==> Input File <==

--------------------------------------------------------------------------
#psi4
#
memory 32 gb

molecule  {
0 1
  O       -1.4344650     1.0675660     0.2191520
  O        1.4425540    -1.0727980    -0.0074420
  O        1.2409190     1.1848430    -0.0695910
  C       -0.7908353    -0.1840831     0.3500126
  C       -1.3608000    -1.1844980    -0.5490290
  C        0.7386720     0.0808740     0.0596700
  H       -0.7692630    -0.5063940     1.4052130
  H       -1.2645370    -0.8668950    -1.5888250
  H       -2.4222350    -1.2600450    -0.3075440
  H       -0.8906180    -2.1601930    -0.4204410
  H       -0.8171624     1.8177937     0.3364525
  H        2.3720270    -0.8088230    -0.1742930
units angstrom
no_reorient  #important for SAPT in psi4, default
symmetry c1  #important for SAPT in psi4, default
}

set PROPERTIES_ORIGIN ["COM"]
properties('MP2/aug-cc-pvtz', properties = ['dipole'])
--------------------------------------------------------------------------

    Molecular point group: c1
  Charge       = 0
  Multiplicity = 1
  Basis Set: AUG-CC-PVTZ
    Blend: AUG-CC-PVTZ
  Basis Set: (AUG-CC-PVTZ AUX)
    Blend: AUG-CC-PVTZ-JKFIT

    Orbital Energies [Eh]
    ---------------------

    Doubly Occupied:

       1A    -20.631535     2A    -20.568444     3A    -20.563774
       4A    -11.401067     5A    -11.315075     6A    -11.229286
       7A     -1.476219     8A     -1.382026     9A     -1.359478
      10A     -1.060790    11A     -0.909439    12A     -0.812965
      13A     -0.735150    14A     -0.716293    15A     -0.692028
      16A     -0.639635    17A     -0.619937    18A     -0.592480
      19A     -0.567324    20A     -0.541878    21A     -0.525979
      22A     -0.498193    23A     -0.475675    24A     -0.444622

  @DF-RHF Final Energy:  -341.83123160375601

   => Energetics <=

    Nuclear Repulsion Energy =            249.0892160558543083
    One-Electron Energy =                -962.3223103535340215
    Two-Electron Energy =                 371.4018626939237038
    Total Energy =                       -341.8312316037560095
  Basis Set: (AUG-CC-PVTZ AUX)
    Blend: AUG-CC-PVTZ-RI
    Molecular point group: c1

    Geometry (in Angstrom), charge = 0, multiplicity = 1:

       Center              X                  Y                   Z               Mass
    ------------   -----------------  -----------------  -----------------  -----------------
         O           -1.425587653464     1.071996423640     0.220865589902    15.994914619570
         O            1.451431346536    -1.068367576360    -0.005728410098    15.994914619570
         O            1.249796346536     1.189273423640    -0.067877410098    15.994914619570
         C           -0.781957953464    -0.179652676360     0.351726189902    12.000000000000
         C           -1.351922653464    -1.180067576360    -0.547315410098    12.000000000000
         C            0.747549346536     0.085304423640     0.061383589902    12.000000000000
         H           -0.760385653464    -0.501963576360     1.406926589902     1.007825032230
         H           -1.255659653464    -0.862464576360    -1.587111410098     1.007825032230
         H           -2.413357653464    -1.255614576360    -0.305830410098     1.007825032230
         H           -0.881740653464    -2.155762576360    -0.418727410098     1.007825032230
         H           -0.808285053464     1.822224123640     0.338166089902     1.007825032230
         H            2.380904346536    -0.804392576360    -0.172579410098     1.007825032230

  Basis Set: AUG-CC-PVTZ
    Blend: AUG-CC-PVTZ
  Basis Set: (AUG-CC-PVTZ AUX)
    Blend: AUG-CC-PVTZ-JKFIT
	 Reference Energy          =    -341.8312316037560095 [Eh]
	 Singles Energy            =      -0.0000000000000000 [Eh]
	 Same-Spin Energy          =      -0.3271921696649174 [Eh]
	 Opposite-Spin Energy      =      -1.0116212948985202 [Eh]
	 Correlation Energy        =      -1.3388134645634375 [Eh]
	 Total Energy              =    -343.1700450683194390 [Eh]

	 ================> DF-SCS-MP2 Energies <==================
	-----------------------------------------------------------
	 SCS Same-Spin Scale       =       0.3333333333333333 [-]
	 SCS Opposite-Spin Scale   =       1.2000000000000000 [-]
	 SCS Same-Spin Energy      =      -0.1090640565549724 [Eh]
	 SCS Opposite-Spin Energy  =      -1.2139455538782242 [Eh]
	 SCS Correlation Energy    =      -1.3230096104331968 [Eh]
	 SCS Total Energy          =    -343.1542412141891987 [Eh]
	-----------------------------------------------------------

  Dipole Moment: [D]
     X:     1.1376      Y:    -1.8406      Z:     0.2619     Total:     2.1796

*** Psi4 exiting successfully. Buy a developer a beer!
