                               Psi4 1.3.2 release

  ==> Input File <==

--------------------------------------------------------------------------
#psi4
#
memory 32 gb

molecule  {
0 1
  O       -1.4344650     1.0675660     0.2191520
  O        1.4524282    -1.0666034    -0.0093284
  O        1.2504446     1.1802970    -0.0709665
  C       -0.7273960    -0.1479950     0.3622400
  C       -1.3608000    -1.1844980    -0.5490290
  C        0.7386720     0.0808740     0.0596700
  H       -0.7692630    -0.5063940     1.4052130
  H       -1.2645370    -0.8668950    -1.5888250
  H       -2.4222350    -1.2600450    -0.3075440
  H       -0.8906180    -2.1601930    -0.4204410
  H       -0.7794970     1.7838810     0.3439450
  H        2.3720270    -0.8088230    -0.1742930
units angstrom
no_reorient  #important for SAPT in psi4, default
symmetry c1  #important for SAPT in psi4, default
}

set PROPERTIES_ORIGIN ["COM"]
properties('MP2/aug-cc-pvtz', properties = ['dipole'])
--------------------------------------------------------------------------

    Molecular point group: c1
  Charge       = 0
  Multiplicity = 1
  Basis Set: AUG-CC-PVTZ
    Blend: AUG-CC-PVTZ
  Basis Set: (AUG-CC-PVTZ AUX)
    Blend: AUG-CC-PVTZ-JKFIT

    Orbital Energies [Eh]
    ---------------------

    Doubly Occupied:

       1A    -20.631640     2A    -20.569742     3A    -20.567956
       4A    -11.403410     5A    -11.312651     6A    -11.232022
       7A     -1.481199     8A     -1.386528     9A     -1.362404
      10A     -1.054218    11A     -0.919753    12A     -0.814201
      13A     -0.738954    14A     -0.722297    15A     -0.691536
      16A     -0.639149    17A     -0.621173    18A     -0.585741
      19A     -0.561850    20A     -0.542905    21A     -0.534580
      22A     -0.499352    23A     -0.474593    24A     -0.455336

  @DF-RHF Final Energy:  -341.83771847365290

   => Energetics <=

    Nuclear Repulsion Energy =            249.6013598422096607
    One-Electron Energy =                -963.2717724191778643
    Two-Electron Energy =                 371.8326941033152480
    Total Energy =                       -341.8377184736528989
  Basis Set: (AUG-CC-PVTZ AUX)
    Blend: AUG-CC-PVTZ-RI
    Molecular point group: c1

    Geometry (in Angstrom), charge = 0, multiplicity = 1:

       Center              X                  Y                   Z               Mass
    ------------   -----------------  -----------------  -----------------  -----------------
         O           -1.437911423325     1.067273105339     0.219731476875    15.994914619570
         O            1.448981776675    -1.066896294661    -0.008748923125    15.994914619570
         O            1.246998176675     1.180004105339    -0.070387023125    15.994914619570
         C           -0.730842423325    -0.148287894661     0.362819476875    12.000000000000
         C           -1.364246423325    -1.184790894661    -0.548449523125    12.000000000000
         C            0.735225576675     0.080581105339     0.060249476875    12.000000000000
         H           -0.772709423325    -0.506686894661     1.405792476875     1.007825032230
         H           -1.267983423325    -0.867187894661    -1.588245523125     1.007825032230
         H           -2.425681423325    -1.260337894661    -0.306964523125     1.007825032230
         H           -0.894064423325    -2.160485894661    -0.419861523125     1.007825032230
         H           -0.782943423325     1.783588105339     0.344524476875     1.007825032230
         H            2.368580576675    -0.809115894661    -0.173713523125     1.007825032230

  Basis Set: AUG-CC-PVTZ
    Blend: AUG-CC-PVTZ
  Basis Set: (AUG-CC-PVTZ AUX)
    Blend: AUG-CC-PVTZ-JKFIT
	 Reference Energy          =    -341.8377184736528989 [Eh]
	 Singles Energy            =      -0.0000000000000000 [Eh]
	 Same-Spin Energy          =      -0.3268837525695005 [Eh]
	 Opposite-Spin Energy      =      -1.0112353535347345 [Eh]
	 Correlation Energy        =      -1.3381191061042350 [Eh]
	 Total Energy              =    -343.1758375797571148 [Eh]

	 ================> DF-SCS-MP2 Energies <==================
	-----------------------------------------------------------
	 SCS Same-Spin Scale       =       0.3333333333333333 [-]
	 SCS Opposite-Spin Scale   =       1.2000000000000000 [-]
	 SCS Same-Spin Energy      =      -0.1089612508565002 [Eh]
	 SCS Opposite-Spin Energy  =      -1.2134824242416813 [Eh]
	 SCS Correlation Energy    =      -1.3224436750981814 [Eh]
	 SCS Total Energy          =    -343.1601621487510556 [Eh]
	-----------------------------------------------------------

  Dipole Moment: [D]
     X:     1.1651      Y:    -1.8345      Z:     0.3156     Total:     2.1960

*** Psi4 exiting successfully. Buy a developer a beer!
