                               Psi4 1.3.2 release

  ==> Input File <==

--------------------------------------------------------------------------
#psi4
#
memory 32 gb

molecule  {
0 1
  O       -1.4400591     1.0668889     0.2431699
  O        1.4425540    -1.0727980    -0.0074420
  O        1.2409190     1.1848430    -0.0695910
  C       -0.7273960    -0.1479950     0.3622400
  C       -1.3608000    -1.1844980    -0.5490290
  C        0.7386720     0.0808740     0.0596700
  H       -0.7798450    -0.4909974     1.4099011
  H       -1.2645370    -0.8668950    -1.5888250
  H       -2.4222350    -1.2600450    -0.3075440
  H       -0.8906180    -2.1601930    -0.4204410
  H       -0.7794970     1.7838810     0.3439450
  H        2.3720270    -0.8088230    -0.1742930
units angstrom
no_reorient  #important for SAPT in psi4, default
symmetry c1  #important for SAPT in psi4, default
}

set PROPERTIES_ORIGIN ["COM"]
properties('MP2/aug-cc-pvtz', properties = ['dipole'])
--------------------------------------------------------------------------

    Molecular point group: c1
  Charge       = 0
  Multiplicity = 1
  Basis Set: AUG-CC-PVTZ
    Blend: AUG-CC-PVTZ
  Basis Set: (AUG-CC-PVTZ AUX)
    Blend: AUG-CC-PVTZ-JKFIT

    Orbital Energies [Eh]
    ---------------------

    Doubly Occupied:

       1A    -20.634407     2A    -20.570946     3A    -20.566475
       4A    -11.404104     5A    -11.311228     6A    -11.231789
       7A     -1.480535     8A     -1.386510     9A     -1.362116
      10A     -1.053074    11A     -0.918699    12A     -0.812485
      13A     -0.738995    14A     -0.722516    15A     -0.689315
      16A     -0.639146    17A     -0.622002    18A     -0.585356
      19A     -0.562124    20A     -0.542315    21A     -0.534671
      22A     -0.500691    23A     -0.473712    24A     -0.454283

  @DF-RHF Final Energy:  -341.83683394127019

   => Energetics <=

    Nuclear Repulsion Energy =            249.5216426680003678
    One-Electron Energy =                -963.1219644991980431
    Two-Electron Energy =                 371.7634878899274895
    Total Energy =                       -341.8368339412701857
  Basis Set: (AUG-CC-PVTZ AUX)
    Blend: AUG-CC-PVTZ-RI
    Molecular point group: c1

    Geometry (in Angstrom), charge = 0, multiplicity = 1:

       Center              X                  Y                   Z               Mass
    ------------   -----------------  -----------------  -----------------  -----------------
         O           -1.438946683181     1.066836834907     0.238850403674    15.994914619570
         O            1.443666416819    -1.072850065093    -0.011761496326    15.994914619570
         O            1.242031416819     1.184790934907    -0.073910496326    15.994914619570
         C           -0.726283583181    -0.148047065093     0.357920503674    12.000000000000
         C           -1.359687583181    -1.184550065093    -0.553348496326    12.000000000000
         C            0.739784416819     0.080821934907     0.055350503674    12.000000000000
         H           -0.778732583181    -0.491049465093     1.405581603674     1.007825032230
         H           -1.263424583181    -0.866947065093    -1.593144496326     1.007825032230
         H           -2.421122583181    -1.260097065093    -0.311863496326     1.007825032230
         H           -0.889505583181    -2.160245065093    -0.424760496326     1.007825032230
         H           -0.778384583181     1.783828934907     0.339625503674     1.007825032230
         H            2.373139416819    -0.808875065093    -0.178612496326     1.007825032230

  Basis Set: AUG-CC-PVTZ
    Blend: AUG-CC-PVTZ
  Basis Set: (AUG-CC-PVTZ AUX)
    Blend: AUG-CC-PVTZ-JKFIT
	 Reference Energy          =    -341.8368339412701857 [Eh]
	 Singles Energy            =      -0.0000000000000000 [Eh]
	 Same-Spin Energy          =      -0.3271252495974443 [Eh]
	 Opposite-Spin Energy      =      -1.0117814230960511 [Eh]
	 Correlation Energy        =      -1.3389066726934953 [Eh]
	 Total Energy              =    -343.1757406139636828 [Eh]

	 ================> DF-SCS-MP2 Energies <==================
	-----------------------------------------------------------
	 SCS Same-Spin Scale       =       0.3333333333333333 [-]
	 SCS Opposite-Spin Scale   =       1.2000000000000000 [-]
	 SCS Same-Spin Energy      =      -0.1090417498658147 [Eh]
	 SCS Opposite-Spin Energy  =      -1.2141377077152613 [Eh]
	 SCS Correlation Energy    =      -1.3231794575810760 [Eh]
	 SCS Total Energy          =    -343.1600133988512766 [Eh]
	-----------------------------------------------------------

  Dipole Moment: [D]
     X:     1.2418      Y:    -1.8461      Z:     0.2574     Total:     2.2397

*** Psi4 exiting successfully. Buy a developer a beer!
