                               Psi4 1.3.2 release

  ==> Input File <==

--------------------------------------------------------------------------
#psi4
#
memory 32 gb

molecule  {
0 1
  O       -1.4344650     1.0675660     0.2191520
  O        1.4620953    -1.0603653    -0.0120553
  O        1.2409190     1.1848430    -0.0695910
  C       -0.7314046    -0.1218836     0.3614135
  C       -1.3608000    -1.1844980    -0.5490290
  C        0.7386720     0.0808740     0.0596700
  H       -0.7692630    -0.5063940     1.4052130
  H       -1.2645370    -0.8668950    -1.5888250
  H       -2.4222350    -1.2600450    -0.3075440
  H       -0.8906180    -2.1601930    -0.4204410
  H       -0.7794970     1.7838810     0.3439450
  H        2.3720270    -0.8088230    -0.1742930
units angstrom
no_reorient  #important for SAPT in psi4, default
symmetry c1  #important for SAPT in psi4, default
}

set PROPERTIES_ORIGIN ["COM"]
properties('MP2/aug-cc-pvtz', properties = ['dipole'])
--------------------------------------------------------------------------

    Molecular point group: c1
  Charge       = 0
  Multiplicity = 1
  Basis Set: AUG-CC-PVTZ
    Blend: AUG-CC-PVTZ
  Basis Set: (AUG-CC-PVTZ AUX)
    Blend: AUG-CC-PVTZ-JKFIT

    Orbital Energies [Eh]
    ---------------------

    Doubly Occupied:

       1A    -20.631034     2A    -20.570691     3A    -20.568519
       4A    -11.402743     5A    -11.312871     6A    -11.231763
       7A     -1.482168     8A     -1.393382     9A     -1.366783
      10A     -1.050235    11A     -0.918946    12A     -0.817384
      13A     -0.743682    14A     -0.722745    15A     -0.692508
      16A     -0.639125    17A     -0.621085    18A     -0.590287
      19A     -0.561753    20A     -0.544761    21A     -0.533809
      22A     -0.499282    23A     -0.471844    24A     -0.452918

  @DF-RHF Final Energy:  -341.83797732996976

   => Energetics <=

    Nuclear Repulsion Energy =            249.7931827010078791
    One-Electron Energy =                -963.6216870848924145
    Two-Electron Energy =                 371.9905270539148319
    Total Energy =                       -341.8379773299697604
  Basis Set: (AUG-CC-PVTZ AUX)
    Blend: AUG-CC-PVTZ-RI
    Molecular point group: c1

    Geometry (in Angstrom), charge = 0, multiplicity = 1:

       Center              X                  Y                   Z               Mass
    ------------   -----------------  -----------------  -----------------  -----------------
         O           -1.437402270186     1.061876921652     0.220081726062    15.994914619570
         O            1.459158029814    -1.066054378348    -0.011125573938    15.994914619570
         O            1.237981729814     1.179153921652    -0.068661273938    15.994914619570
         C           -0.734341870186    -0.127572678348     0.362343226062    12.000000000000
         C           -1.363737270186    -1.190187078348    -0.548099273938    12.000000000000
         C            0.735734729814     0.075184921652     0.060599726062    12.000000000000
         H           -0.772200270186    -0.512083078348     1.406142726062     1.007825032230
         H           -1.267474270186    -0.872584078348    -1.587895273938     1.007825032230
         H           -2.425172270186    -1.265734078348    -0.306614273938     1.007825032230
         H           -0.893555270186    -2.165882078348    -0.419511273938     1.007825032230
         H           -0.782434270186     1.778191921652     0.344874726062     1.007825032230
         H            2.369089729814    -0.814512078348    -0.173363273938     1.007825032230

  Basis Set: AUG-CC-PVTZ
    Blend: AUG-CC-PVTZ
  Basis Set: (AUG-CC-PVTZ AUX)
    Blend: AUG-CC-PVTZ-JKFIT
	 Reference Energy          =    -341.8379773299697604 [Eh]
	 Singles Energy            =      -0.0000000000000000 [Eh]
	 Same-Spin Energy          =      -0.3266317821655043 [Eh]
	 Opposite-Spin Energy      =      -1.0103837530739128 [Eh]
	 Correlation Energy        =      -1.3370155352394171 [Eh]
	 Total Energy              =    -343.1749928652091626 [Eh]

	 ================> DF-SCS-MP2 Energies <==================
	-----------------------------------------------------------
	 SCS Same-Spin Scale       =       0.3333333333333333 [-]
	 SCS Opposite-Spin Scale   =       1.2000000000000000 [-]
	 SCS Same-Spin Energy      =      -0.1088772607218347 [Eh]
	 SCS Opposite-Spin Energy  =      -1.2124605036886953 [Eh]
	 SCS Correlation Energy    =      -1.3213377644105300 [Eh]
	 SCS Total Energy          =    -343.1593150943803039 [Eh]
	-----------------------------------------------------------

  Dipole Moment: [D]
     X:     1.1353      Y:    -1.7620      Z:     0.3162     Total:     2.1198

*** Psi4 exiting successfully. Buy a developer a beer!
