                               Psi4 1.4a3.dev225

  ==> Input File <==

--------------------------------------------------------------------------
#psi4
#
memory 32 gb

molecule  {
0 1
  O       -1.3959680    -1.1167090    -0.2833280
  O        1.5522570     0.9331460    -0.3210200
  O        1.1768320    -1.1502310     0.4959580
  C       -0.6816250     0.0987340    -0.4130150
  C       -1.2926720     1.1882940     0.4648960
  C        0.7608017    -0.1126225    -0.0452307
  H       -0.7109810     0.4129130    -1.4639800
  H       -1.2242180     0.8953450     1.5161010
  H       -2.3476110     1.2964270     0.2055410
  H       -0.7844450     2.1448300     0.3211210
  H       -0.8100540    -1.7212800     0.2125920
  H        2.4531110     0.6959320    -0.0164550
units angstrom
no_reorient  #important for SAPT in psi4, default
symmetry c1  #important for SAPT in psi4, default
}

set PROPERTIES_ORIGIN ["COM"]
properties('MP2/aug-cc-pvtz', properties = ['dipole'])
--------------------------------------------------------------------------

    Molecular point group: c1
  Charge       = 0
  Multiplicity = 1
  Basis Set: AUG-CC-PVTZ
    Blend: AUG-CC-PVTZ
  Basis Set: (AUG-CC-PVTZ AUX)
    Blend: AUG-CC-PVTZ-JKFIT

    Orbital Energies [Eh]
    ---------------------

    Doubly Occupied:

       1A    -20.639345     2A    -20.568670     3A    -20.565028
       4A    -11.407350     5A    -11.311849     6A    -11.235763
       7A     -1.483118     8A     -1.383825     9A     -1.354900
      10A     -1.056456    11A     -0.923279    12A     -0.818364
      13A     -0.745131    14A     -0.725303    15A     -0.670929
      16A     -0.643236    17A     -0.623586    18A     -0.589925
      19A     -0.570611    20A     -0.544051    21A     -0.529681
      22A     -0.495610    23A     -0.469445    24A     -0.457779

  @DF-RHF Final Energy:  -341.83491298818035

   => Energetics <=

    Nuclear Repulsion Energy =            249.5521460622306620
    One-Electron Energy =                -963.1476546107325021
    Two-Electron Energy =                 371.7605955603214625
    Total Energy =                       -341.8349129881803492
  Basis Set: (AUG-CC-PVTZ AUX)
    Blend: AUG-CC-PVTZ-RI
    Molecular point group: c1

    Geometry (in Angstrom), charge = 0, multiplicity = 1:

       Center              X                  Y                   Z               Mass
    ------------   -----------------  -----------------  -----------------  -----------------
         O           -1.432735280097    -1.077969904174    -0.273632509642    15.994914619570
         O            1.515489719903     0.971885095826    -0.311324509642    15.994914619570
         O            1.140064719903    -1.111491904174     0.505653490358    15.994914619570
         C           -0.718392280097     0.137473095826    -0.403319509642    12.000000000000
         C           -1.329439280097     1.227033095826     0.474591490358    12.000000000000
         C            0.724034419903    -0.073883404174    -0.035535209642    12.000000000000
         H           -0.747748280097     0.451652095826    -1.454284509642     1.007825032230
         H           -1.260985280097     0.934084095826     1.525796490358     1.007825032230
         H           -2.384378280097     1.335166095826     0.215236490358     1.007825032230
         H           -0.821212280097     2.183569095826     0.330816490358     1.007825032230
         H           -0.846821280097    -1.682540904174     0.222287490358     1.007825032230
         H            2.416343719903     0.734671095826    -0.006759509642     1.007825032230

  Basis Set: AUG-CC-PVTZ
    Blend: AUG-CC-PVTZ
  Basis Set: (AUG-CC-PVTZ AUX)
    Blend: AUG-CC-PVTZ-JKFIT
	 Reference Energy          =    -341.8349129881803492 [Eh]
	 Singles Energy            =      -0.0000000000000000 [Eh]
	 Same-Spin Energy          =      -0.3276466173331914 [Eh]
	 Opposite-Spin Energy      =      -1.0124820318345682 [Eh]
	 Correlation Energy        =      -1.3401286491677595 [Eh]
	 Total Energy              =    -343.1750416373481016 [Eh]

	 ================> DF-SCS-MP2 Energies <==================
	-----------------------------------------------------------
	 SCS Same-Spin Scale       =       0.3333333333333333 [-]
	 SCS Opposite-Spin Scale   =       1.2000000000000000 [-]
	 SCS Same-Spin Energy      =      -0.1092155391110638 [Eh]
	 SCS Opposite-Spin Energy  =      -1.2149784382014819 [Eh]
	 SCS Correlation Energy    =      -1.3241939773125457 [Eh]
	 SCS Total Energy          =    -343.1591069654928674 [Eh]
	-----------------------------------------------------------

  Dipole Moment: [D]
     X:     1.2879      Y:     2.0918      Z:     0.0125     Total:     2.4565

*** Psi4 exiting successfully. Buy a developer a beer!
