                               Psi4 1.3.2 release

  ==> Input File <==

--------------------------------------------------------------------------
#psi4
#
memory 32 gb

molecule  {
0 1
  O       -1.4344650     1.0675660     0.2191520
  O        1.4425540    -1.0727980    -0.0074420
  O        1.2409190     1.1848430    -0.0695910
  C       -0.7273960    -0.1479950     0.3622400
  C       -1.3608000    -1.1844980    -0.5490290
  C        0.7386720     0.0808740     0.0596700
  H       -0.7768502    -0.5713432     1.5942210
  H       -1.2645370    -0.8668950    -1.5888250
  H       -2.4222350    -1.2600450    -0.3075440
  H       -0.8906180    -2.1601930    -0.4204410
  H       -0.7794970     1.7838810     0.3439450
  H        2.3720270    -0.8088230    -0.1742930
units angstrom
no_reorient  #important for SAPT in psi4, default
symmetry c1  #important for SAPT in psi4, default
}

set PROPERTIES_ORIGIN ["COM"]
properties('MP2/aug-cc-pvtz', properties = ['dipole'])
--------------------------------------------------------------------------

    Molecular point group: c1
  Charge       = 0
  Multiplicity = 1
  Basis Set: AUG-CC-PVTZ
    Blend: AUG-CC-PVTZ
  Basis Set: (AUG-CC-PVTZ AUX)
    Blend: AUG-CC-PVTZ-JKFIT

    Orbital Energies [Eh]
    ---------------------

    Doubly Occupied:

       1A    -20.633964     2A    -20.572267     3A    -20.571481
       4A    -11.405720     5A    -11.333624     6A    -11.233835
       7A     -1.480537     8A     -1.388503     9A     -1.364335
      10A     -1.048946    11A     -0.917875    12A     -0.803325
      13A     -0.740389    14A     -0.720684    15A     -0.674998
      16A     -0.637561    17A     -0.618177    18A     -0.587816
      19A     -0.562804    20A     -0.539978    21A     -0.535653
      22A     -0.500703    23A     -0.474576    24A     -0.441801

  @DF-RHF Final Energy:  -341.81697165581687

   => Energetics <=

    Nuclear Repulsion Energy =            248.7109959862200412
    One-Electron Energy =                -961.4768284997597902
    Two-Electron Energy =                 370.9488608577228774
    Total Energy =                       -341.8169716558168716
  Basis Set: (AUG-CC-PVTZ AUX)
    Blend: AUG-CC-PVTZ-RI
    Molecular point group: c1

    Geometry (in Angstrom), charge = 0, multiplicity = 1:

       Center              X                  Y                   Z               Mass
    ------------   -----------------  -----------------  -----------------  -----------------
         O           -1.434379947903     1.068293042226     0.217036194861    15.994914619570
         O            1.442639052097    -1.072070957774    -0.009557805139    15.994914619570
         O            1.241004052097     1.185570042226    -0.071706805139    15.994914619570
         C           -0.727310947903    -0.147267957774     0.360124194861    12.000000000000
         C           -1.360714947903    -1.183770957774    -0.551144805139    12.000000000000
         C            0.738757052097     0.081601042226     0.057554194861    12.000000000000
         H           -0.776765147903    -0.570616157774     1.592105194861     1.007825032230
         H           -1.264451947903    -0.866167957774    -1.590940805139     1.007825032230
         H           -2.422149947903    -1.259317957774    -0.309659805139     1.007825032230
         H           -0.890532947903    -2.159465957774    -0.422556805139     1.007825032230
         H           -0.779411947903     1.784608042226     0.341829194861     1.007825032230
         H            2.372112052097    -0.808095957774    -0.176408805139     1.007825032230

  Basis Set: AUG-CC-PVTZ
    Blend: AUG-CC-PVTZ
  Basis Set: (AUG-CC-PVTZ AUX)
    Blend: AUG-CC-PVTZ-JKFIT
	 Reference Energy          =    -341.8169716558168716 [Eh]
	 Singles Energy            =      -0.0000000000000000 [Eh]
	 Same-Spin Energy          =      -0.3275206699917393 [Eh]
	 Opposite-Spin Energy      =      -1.0137241361813363 [Eh]
	 Correlation Energy        =      -1.3412448061730755 [Eh]
	 Total Energy              =    -343.1582164619899231 [Eh]

	 ================> DF-SCS-MP2 Energies <==================
	-----------------------------------------------------------
	 SCS Same-Spin Scale       =       0.3333333333333333 [-]
	 SCS Opposite-Spin Scale   =       1.2000000000000000 [-]
	 SCS Same-Spin Energy      =      -0.1091735566639131 [Eh]
	 SCS Opposite-Spin Energy  =      -1.2164689634176036 [Eh]
	 SCS Correlation Energy    =      -1.3256425200815167 [Eh]
	 SCS Total Energy          =    -343.1426141758984159 [Eh]
	-----------------------------------------------------------

  Dipole Moment: [D]
     X:     1.1776      Y:    -1.7493      Z:     0.1674     Total:     2.1154

*** Psi4 exiting successfully. Buy a developer a beer!
