                               Psi4 1.3.2 release

  ==> Input File <==

--------------------------------------------------------------------------
#psi4
#
memory 32 gb

molecule  {
0 1
  O       -1.4344650     1.0675660     0.2191520
  O        1.4425540    -1.0727980    -0.0074420
  O        1.2409190     1.1848430    -0.0695910
  C       -0.7273960    -0.1479950     0.3622400
  C       -1.3608000    -1.1844980    -0.5490290
  C        0.7386720     0.0808740     0.0596700
  H       -0.7692630    -0.5063940     1.4052130
  H       -1.2645370    -0.8668950    -1.5888250
  H       -2.4222350    -1.2600450    -0.3075440
  H       -0.8906180    -2.1601930    -0.4204410
  H       -0.8464259     1.7106833     0.3311928
  H        2.3720270    -0.8088230    -0.1742930
units angstrom
no_reorient  #important for SAPT in psi4, default
symmetry c1  #important for SAPT in psi4, default
}

set PROPERTIES_ORIGIN ["COM"]
properties('MP2/aug-cc-pvtz', properties = ['dipole'])
--------------------------------------------------------------------------

    Molecular point group: c1
  Charge       = 0
  Multiplicity = 1
  Basis Set: AUG-CC-PVTZ
    Blend: AUG-CC-PVTZ
  Basis Set: (AUG-CC-PVTZ AUX)
    Blend: AUG-CC-PVTZ-JKFIT

    Orbital Energies [Eh]
    ---------------------

    Doubly Occupied:

       1A    -20.634015     2A    -20.569828     3A    -20.560069
       4A    -11.403662     5A    -11.313162     6A    -11.232288
       7A     -1.480429     8A     -1.403399     9A     -1.370594
      10A     -1.059817    11A     -0.919426    12A     -0.819941
      13A     -0.748546    14A     -0.722154    15A     -0.697357
      16A     -0.642231    17A     -0.622127    18A     -0.588463
      19A     -0.563618    20A     -0.544508    21A     -0.541673
      22A     -0.499724    23A     -0.475318    24A     -0.457092

  @DF-RHF Final Energy:  -341.83265571517933

   => Energetics <=

    Nuclear Repulsion Energy =            250.2225684676771209
    One-Electron Energy =                -964.3715644152379127
    Two-Electron Energy =                 372.3163402323814921
    Total Energy =                       -341.8326557151793281
  Basis Set: (AUG-CC-PVTZ AUX)
    Blend: AUG-CC-PVTZ-RI
    Molecular point group: c1

    Geometry (in Angstrom), charge = 0, multiplicity = 1:

       Center              X                  Y                   Z               Mass
    ------------   -----------------  -----------------  -----------------  -----------------
         O           -1.433715670158     1.068385376874     0.219294721507    15.994914619570
         O            1.443303329842    -1.071978623126    -0.007299278493    15.994914619570
         O            1.241668329842     1.185662376874    -0.069448278493    15.994914619570
         C           -0.726646670158    -0.147175623126     0.362382721507    12.000000000000
         C           -1.360050670158    -1.183678623126    -0.548886278493    12.000000000000
         C            0.739421329842     0.081693376874     0.059812721507    12.000000000000
         H           -0.768513670158    -0.505574623126     1.405355721507     1.007825032230
         H           -1.263787670158    -0.866075623126    -1.588682278493     1.007825032230
         H           -2.421485670158    -1.259225623126    -0.307401278493     1.007825032230
         H           -0.889868670158    -2.159373623126    -0.420298278493     1.007825032230
         H           -0.845676570158     1.711502676874     0.331335521507     1.007825032230
         H            2.372776329842    -0.808003623126    -0.174150278493     1.007825032230

  Basis Set: AUG-CC-PVTZ
    Blend: AUG-CC-PVTZ
  Basis Set: (AUG-CC-PVTZ AUX)
    Blend: AUG-CC-PVTZ-JKFIT
	 Reference Energy          =    -341.8326557151793281 [Eh]
	 Singles Energy            =      -0.0000000000000000 [Eh]
	 Same-Spin Energy          =      -0.3257956365946462 [Eh]
	 Opposite-Spin Energy      =      -1.0088661609935334 [Eh]
	 Correlation Energy        =      -1.3346617975881796 [Eh]
	 Total Energy              =    -343.1673175127675108 [Eh]

	 ================> DF-SCS-MP2 Energies <==================
	-----------------------------------------------------------
	 SCS Same-Spin Scale       =       0.3333333333333333 [-]
	 SCS Opposite-Spin Scale   =       1.2000000000000000 [-]
	 SCS Same-Spin Energy      =      -0.1085985455315487 [Eh]
	 SCS Opposite-Spin Energy  =      -1.2106393931922401 [Eh]
	 SCS Correlation Energy    =      -1.3192379387237889 [Eh]
	 SCS Total Energy          =    -343.1518936539031301 [Eh]
	-----------------------------------------------------------

  Dipole Moment: [D]
     X:     1.1418      Y:    -1.9221      Z:     0.3070     Total:     2.2567

*** Psi4 exiting successfully. Buy a developer a beer!
