                               Psi4 1.3.2 release

  ==> Input File <==

--------------------------------------------------------------------------
#psi4
#
memory 32 gb

molecule  {
0 1
  O       -1.4344650     1.0675660     0.2191520
  O        1.4425540    -1.0727980    -0.0074420
  O        1.2409190     1.1848430    -0.0695910
  C       -0.7273960    -0.1479950     0.3622400
  C       -1.2773770    -1.0479845    -0.4290096
  C        0.7386720     0.0808740     0.0596700
  H       -0.7692630    -0.5063940     1.4052130
  H       -1.2645370    -0.8668950    -1.5888250
  H       -2.4222350    -1.2600450    -0.3075440
  H       -0.8906180    -2.1601930    -0.4204410
  H       -0.7794970     1.7838810     0.3439450
  H        2.3720270    -0.8088230    -0.1742930
units angstrom
no_reorient  #important for SAPT in psi4, default
symmetry c1  #important for SAPT in psi4, default
}

set PROPERTIES_ORIGIN ["COM"]
properties('MP2/aug-cc-pvtz', properties = ['dipole'])
--------------------------------------------------------------------------

    Molecular point group: c1
  Charge       = 0
  Multiplicity = 1
  Basis Set: AUG-CC-PVTZ
    Blend: AUG-CC-PVTZ
  Basis Set: (AUG-CC-PVTZ AUX)
    Blend: AUG-CC-PVTZ-JKFIT

    Orbital Energies [Eh]
    ---------------------

    Doubly Occupied:

       1A    -20.635129     2A    -20.572366     3A    -20.567352
       4A    -11.405432     5A    -11.302385     6A    -11.240523
       7A     -1.482091     8A     -1.389971     9A     -1.366390
      10A     -1.096152    11A     -0.910716    12A     -0.809559
      13A     -0.744494    14A     -0.725515    15A     -0.701587
      16A     -0.652465    17A     -0.624440    18A     -0.613106
      19A     -0.550212    20A     -0.527726    21A     -0.502915
      22A     -0.496217    23A     -0.483649    24A     -0.444092

  @DF-RHF Final Energy:  -341.78524039638518

   => Energetics <=

    Nuclear Repulsion Energy =            253.1469625807840771
    One-Electron Energy =                -970.1754369878242414
    Two-Electron Energy =                 375.2432340106550441
    Total Energy =                       -341.7852403963851771
  Basis Set: (AUG-CC-PVTZ AUX)
    Blend: AUG-CC-PVTZ-RI
    Molecular point group: c1

    Geometry (in Angstrom), charge = 0, multiplicity = 1:

       Center              X                  Y                   Z               Mass
    ------------   -----------------  -----------------  -----------------  -----------------
         O           -1.445584030873     1.049370601107     0.203155018688    15.994914619570
         O            1.431434969127    -1.090993398893    -0.023438981312    15.994914619570
         O            1.229799969127     1.166647601107    -0.085587981312    15.994914619570
         C           -0.738515030873    -0.166190398893     0.346243018688    12.000000000000
         C           -1.288496030873    -1.066179898893    -0.445006581312    12.000000000000
         C            0.727552969127     0.062678601107     0.043673018688    12.000000000000
         H           -0.780382030873    -0.524589398893     1.389216018688     1.007825032230
         H           -1.275656030873    -0.885090398893    -1.604821981312     1.007825032230
         H           -2.433354030873    -1.278240398893    -0.323540981312     1.007825032230
         H           -0.901737030873    -2.178388398893    -0.436437981312     1.007825032230
         H           -0.790616030873     1.765685601107     0.327948018688     1.007825032230
         H            2.360907969127    -0.827018398893    -0.190289981312     1.007825032230

  Basis Set: AUG-CC-PVTZ
    Blend: AUG-CC-PVTZ
  Basis Set: (AUG-CC-PVTZ AUX)
    Blend: AUG-CC-PVTZ-JKFIT
	 Reference Energy          =    -341.7852403963851771 [Eh]
	 Singles Energy            =      -0.0000000000000000 [Eh]
	 Same-Spin Energy          =      -0.3301860137455741 [Eh]
	 Opposite-Spin Energy      =      -1.0159666403775358 [Eh]
	 Correlation Energy        =      -1.3461526541231099 [Eh]
	 Total Energy              =    -343.1313930505082794 [Eh]

	 ================> DF-SCS-MP2 Energies <==================
	-----------------------------------------------------------
	 SCS Same-Spin Scale       =       0.3333333333333333 [-]
	 SCS Opposite-Spin Scale   =       1.2000000000000000 [-]
	 SCS Same-Spin Energy      =      -0.1100620045818580 [Eh]
	 SCS Opposite-Spin Energy  =      -1.2191599684530430 [Eh]
	 SCS Correlation Energy    =      -1.3292219730349011 [Eh]
	 SCS Total Energy          =    -343.1144623694200959 [Eh]
	-----------------------------------------------------------

  Dipole Moment: [D]
     X:     1.2797      Y:    -1.8992      Z:     0.2961     Total:     2.3091

*** Psi4 exiting successfully. Buy a developer a beer!
