                               Psi4 1.4a3.dev225

  ==> Input File <==

--------------------------------------------------------------------------
#psi4
#
memory 32 gb

molecule  {
0 1
  O       -1.3959680    -1.1167090    -0.2833280
  O        1.5522570     0.9331460    -0.3210200
  O        1.1768320    -1.1502310     0.4959580
  C       -0.6816250     0.0987340    -0.4130150
  C       -1.2926720     1.1882940     0.4648960
  C        0.7675010    -0.1293310    -0.0365160
  H       -0.7123186     0.4272288    -1.5118681
  H       -1.2242180     0.8953450     1.5161010
  H       -2.3476110     1.2964270     0.2055410
  H       -0.7844450     2.1448300     0.3211210
  H       -0.8100540    -1.7212800     0.2125920
  H        2.4531110     0.6959320    -0.0164550
units angstrom
no_reorient  #important for SAPT in psi4, default
symmetry c1  #important for SAPT in psi4, default
}

set PROPERTIES_ORIGIN ["COM"]
properties('MP2/aug-cc-pvtz', properties = ['dipole'])
--------------------------------------------------------------------------

    Molecular point group: c1
  Charge       = 0
  Multiplicity = 1
  Basis Set: AUG-CC-PVTZ
    Blend: AUG-CC-PVTZ
  Basis Set: (AUG-CC-PVTZ AUX)
    Blend: AUG-CC-PVTZ-JKFIT

    Orbital Energies [Eh]
    ---------------------

    Doubly Occupied:

       1A    -20.635772     2A    -20.572607     3A    -20.565491
       4A    -11.405940     5A    -11.317030     6A    -11.235242
       7A     -1.481831     8A     -1.387625     9A     -1.361244
      10A     -1.051574    11A     -0.919348    12A     -0.811146
      13A     -0.743435    14A     -0.725813    15A     -0.667834
      16A     -0.641621    17A     -0.625144    18A     -0.590574
      19A     -0.569826    20A     -0.542915    21A     -0.530520
      22A     -0.502098    23A     -0.468578    24A     -0.455663

  @DF-RHF Final Energy:  -341.83482750960513

   => Energetics <=

    Nuclear Repulsion Energy =            249.3296913553747629
    One-Electron Energy =                -962.7113018124346127
    Two-Electron Energy =                 371.5467829474547443
    Total Energy =                       -341.8348275096051339
  Basis Set: (AUG-CC-PVTZ AUX)
    Blend: AUG-CC-PVTZ-RI
    Molecular point group: c1

    Geometry (in Angstrom), charge = 0, multiplicity = 1:

       Center              X                  Y                   Z               Mass
    ------------   -----------------  -----------------  -----------------  -----------------
         O           -1.433613232401    -1.075903141126    -0.274257995751    15.994914619570
         O            1.514611767599     0.973951858874    -0.311949995751    15.994914619570
         O            1.139186767599    -1.109425141126     0.505028004249    15.994914619570
         C           -0.719270232401     0.139539858874    -0.403944995751    12.000000000000
         C           -1.330317232401     1.229099858874     0.473966004249    12.000000000000
         C            0.729855767599    -0.088525141126    -0.027445995751    12.000000000000
         H           -0.749963832401     0.468034658874    -1.502798095751     1.007825032230
         H           -1.261863232401     0.936150858874     1.525171004249     1.007825032230
         H           -2.385256232401     1.337232858874     0.214611004249     1.007825032230
         H           -0.822090232401     2.185635858874     0.330191004249     1.007825032230
         H           -0.847699232401    -1.680474141126     0.221662004249     1.007825032230
         H            2.415465767599     0.736737858874    -0.007384995751     1.007825032230

  Basis Set: AUG-CC-PVTZ
    Blend: AUG-CC-PVTZ
  Basis Set: (AUG-CC-PVTZ AUX)
    Blend: AUG-CC-PVTZ-JKFIT
	 Reference Energy          =    -341.8348275096051339 [Eh]
	 Singles Energy            =      -0.0000000000000000 [Eh]
	 Same-Spin Energy          =      -0.3273000772214696 [Eh]
	 Opposite-Spin Energy      =      -1.0121888259767475 [Eh]
	 Correlation Energy        =      -1.3394889031982171 [Eh]
	 Total Energy              =    -343.1743164128033641 [Eh]

	 ================> DF-SCS-MP2 Energies <==================
	-----------------------------------------------------------
	 SCS Same-Spin Scale       =       0.3333333333333333 [-]
	 SCS Opposite-Spin Scale   =       1.2000000000000000 [-]
	 SCS Same-Spin Energy      =      -0.1091000257404899 [Eh]
	 SCS Opposite-Spin Energy  =      -1.2146265911720970 [Eh]
	 SCS Correlation Energy    =      -1.3237266169125870 [Eh]
	 SCS Total Energy          =    -343.1585541265177426 [Eh]
	-----------------------------------------------------------

  Dipole Moment: [D]
     X:     1.2952      Y:     1.9530      Z:     0.0833     Total:     2.3449

*** Psi4 exiting successfully. Buy a developer a beer!
