                               Psi4 1.3.2 release

  ==> Input File <==

--------------------------------------------------------------------------
#psi4
#
memory 32 gb

molecule  {
0 1
  O       -1.4372891     1.0672737     0.2311560
  O        1.4425540    -1.0727980    -0.0074420
  O        1.2409190     1.1848430    -0.0695910
  C       -0.7273960    -0.1479950     0.3622400
  C       -1.3608000    -1.1844980    -0.5490290
  C        0.7386720     0.0808740     0.0596700
  H       -0.7745558    -0.4987090     1.4075969
  H       -1.2645370    -0.8668950    -1.5888250
  H       -2.4222350    -1.2600450    -0.3075440
  H       -0.8906180    -2.1601930    -0.4204410
  H       -0.7794970     1.7838810     0.3439450
  H        2.3720270    -0.8088230    -0.1742930
units angstrom
no_reorient  #important for SAPT in psi4, default
symmetry c1  #important for SAPT in psi4, default
}

set PROPERTIES_ORIGIN ["COM"]
properties('MP2/aug-cc-pvtz', properties = ['dipole'])
--------------------------------------------------------------------------

    Molecular point group: c1
  Charge       = 0
  Multiplicity = 1
  Basis Set: AUG-CC-PVTZ
    Blend: AUG-CC-PVTZ
  Basis Set: (AUG-CC-PVTZ AUX)
    Blend: AUG-CC-PVTZ-JKFIT

    Orbital Energies [Eh]
    ---------------------

    Doubly Occupied:

       1A    -20.634237     2A    -20.570713     3A    -20.566740
       4A    -11.403804     5A    -11.311364     6A    -11.231634
       7A     -1.480382     8A     -1.386584     9A     -1.362155
      10A     -1.053210    11A     -0.918662    12A     -0.812221
      13A     -0.738813    14A     -0.722346    15A     -0.690232
      16A     -0.639204    17A     -0.621781    18A     -0.585227
      19A     -0.561780    20A     -0.542334    21A     -0.534408
      22A     -0.500440    23A     -0.474003    24A     -0.454470

  @DF-RHF Final Energy:  -341.83691481551330

   => Energetics <=

    Nuclear Repulsion Energy =            249.5868494996838933
    One-Electron Energy =                -963.2540433919615452
    Two-Electron Energy =                 371.8302790767643273
    Total Energy =                       -341.8369148155132962
  Basis Set: (AUG-CC-PVTZ AUX)
    Blend: AUG-CC-PVTZ-RI
    Molecular point group: c1

    Geometry (in Angstrom), charge = 0, multiplicity = 1:

       Center              X                  Y                   Z               Mass
    ------------   -----------------  -----------------  -----------------  -----------------
         O           -1.436728005715     1.067239596364     0.228996671127    15.994914619570
         O            1.443115094285    -1.072832103636    -0.009601328873    15.994914619570
         O            1.241480094285     1.184808896364    -0.071750328873    15.994914619570
         C           -0.726834905715    -0.148029103636     0.360080671127    12.000000000000
         C           -1.360238905715    -1.184532103636    -0.551188328873    12.000000000000
         C            0.739233094285     0.080839896364     0.057510671127    12.000000000000
         H           -0.773994705715    -0.498743103636     1.405437571127     1.007825032230
         H           -1.263975905715    -0.866929103636    -1.590984328873     1.007825032230
         H           -2.421673905715    -1.260079103636    -0.309703328873     1.007825032230
         H           -0.890056905715    -2.160227103636    -0.422600328873     1.007825032230
         H           -0.778935905715     1.783846896364     0.341785671127     1.007825032230
         H            2.372588094285    -0.808857103636    -0.176452328873     1.007825032230

  Basis Set: AUG-CC-PVTZ
    Blend: AUG-CC-PVTZ
  Basis Set: (AUG-CC-PVTZ AUX)
    Blend: AUG-CC-PVTZ-JKFIT
	 Reference Energy          =    -341.8369148155132962 [Eh]
	 Singles Energy            =      -0.0000000000000000 [Eh]
	 Same-Spin Energy          =      -0.3271280999173208 [Eh]
	 Opposite-Spin Energy      =      -1.0117609704541610 [Eh]
	 Correlation Energy        =      -1.3388890703714817 [Eh]
	 Total Energy              =    -343.1758038858847613 [Eh]

	 ================> DF-SCS-MP2 Energies <==================
	-----------------------------------------------------------
	 SCS Same-Spin Scale       =       0.3333333333333333 [-]
	 SCS Opposite-Spin Scale   =       1.2000000000000000 [-]
	 SCS Same-Spin Energy      =      -0.1090426999724403 [Eh]
	 SCS Opposite-Spin Energy  =      -1.2141131645449932 [Eh]
	 SCS Correlation Energy    =      -1.3231558645174335 [Eh]
	 SCS Total Energy          =    -343.1600706800307421 [Eh]
	-----------------------------------------------------------

  Dipole Moment: [D]
     X:     1.2331      Y:    -1.8438      Z:     0.2830     Total:     2.2361

*** Psi4 exiting successfully. Buy a developer a beer!
