                               Psi4 1.4a3.dev225

  ==> Input File <==

--------------------------------------------------------------------------
#psi4
#
memory 32 gb

molecule  {
0 1
  O       -1.3959680    -1.1167090    -0.2833280
  O        1.5522570     0.9331460    -0.3210200
  O        1.1768320    -1.1502310     0.4959580
  C       -0.6816250     0.0987340    -0.4130150
  C       -1.2926720     1.1882940     0.4648960
  C        0.7866376    -0.1323427    -0.0315441
  H       -0.7109810     0.4129130    -1.4639800
  H       -1.2242180     0.8953450     1.5161010
  H       -2.3476110     1.2964270     0.2055410
  H       -0.7844450     2.1448300     0.3211210
  H       -0.8100540    -1.7212800     0.2125920
  H        2.4531110     0.6959320    -0.0164550
units angstrom
no_reorient  #important for SAPT in psi4, default
symmetry c1  #important for SAPT in psi4, default
}

set PROPERTIES_ORIGIN ["COM"]
properties('MP2/aug-cc-pvtz', properties = ['dipole'])
--------------------------------------------------------------------------

    Molecular point group: c1
  Charge       = 0
  Multiplicity = 1
  Basis Set: AUG-CC-PVTZ
    Blend: AUG-CC-PVTZ
  Basis Set: (AUG-CC-PVTZ AUX)
    Blend: AUG-CC-PVTZ-JKFIT

    Orbital Energies [Eh]
    ---------------------

    Doubly Occupied:

       1A    -20.637732     2A    -20.573099     3A    -20.563443
       4A    -11.403861     5A    -11.310158     6A    -11.233219
       7A     -1.487028     8A     -1.391566     9A     -1.362418
      10A     -1.048978    11A     -0.916361    12A     -0.814632
      13A     -0.743596    14A     -0.728445    15A     -0.670481
      16A     -0.644622    17A     -0.628714    18A     -0.589720
      19A     -0.568672    20A     -0.542074    21A     -0.532421
      22A     -0.505667    23A     -0.466116    24A     -0.455340

  @DF-RHF Final Energy:  -341.83791470474745

   => Energetics <=

    Nuclear Repulsion Energy =            249.5708438663104687
    One-Electron Energy =                -963.1807919528725961
    Two-Electron Energy =                 371.7720333818146514
    Total Energy =                       -341.8379147047474476
  Basis Set: (AUG-CC-PVTZ AUX)
    Blend: AUG-CC-PVTZ-RI
    Molecular point group: c1

    Geometry (in Angstrom), charge = 0, multiplicity = 1:

       Center              X                  Y                   Z               Mass
    ------------   -----------------  -----------------  -----------------  -----------------
         O           -1.436178854088    -1.075341469793    -0.275456747225    15.994914619570
         O            1.512046145912     0.974513530207    -0.313148747225    15.994914619570
         O            1.136621145912    -1.108863469793     0.503829252775    15.994914619570
         C           -0.721835854088     0.140101530207    -0.405143747225    12.000000000000
         C           -1.332882854088     1.229661530207     0.472767252775    12.000000000000
         C            0.746426745912    -0.090975169793    -0.023672847225    12.000000000000
         H           -0.751191854088     0.454280530207    -1.456108747225     1.007825032230
         H           -1.264428854088     0.936712530207     1.523972252775     1.007825032230
         H           -2.387821854088     1.337794530207     0.213412252775     1.007825032230
         H           -0.824655854088     2.186197530207     0.328992252775     1.007825032230
         H           -0.850264854088    -1.679912469793     0.220463252775     1.007825032230
         H            2.412900145912     0.737299530207    -0.008583747225     1.007825032230

  Basis Set: AUG-CC-PVTZ
    Blend: AUG-CC-PVTZ
  Basis Set: (AUG-CC-PVTZ AUX)
    Blend: AUG-CC-PVTZ-JKFIT
	 Reference Energy          =    -341.8379147047474476 [Eh]
	 Singles Energy            =      -0.0000000000000000 [Eh]
	 Same-Spin Energy          =      -0.3268866802038968 [Eh]
	 Opposite-Spin Energy      =      -1.0111221361214402 [Eh]
	 Correlation Energy        =      -1.3380088163253370 [Eh]
	 Total Energy              =    -343.1759235210727752 [Eh]

	 ================> DF-SCS-MP2 Energies <==================
	-----------------------------------------------------------
	 SCS Same-Spin Scale       =       0.3333333333333333 [-]
	 SCS Opposite-Spin Scale   =       1.2000000000000000 [-]
	 SCS Same-Spin Energy      =      -0.1089622267346323 [Eh]
	 SCS Opposite-Spin Energy  =      -1.2133465633457281 [Eh]
	 SCS Correlation Energy    =      -1.3223087900803603 [Eh]
	 SCS Total Energy          =    -343.1602234948277896 [Eh]
	-----------------------------------------------------------

  Dipole Moment: [D]
     X:     1.4118      Y:     1.9502      Z:     0.0797     Total:     2.4089

*** Psi4 exiting successfully. Buy a developer a beer!
