                               Psi4 1.3.2 release

  ==> Input File <==

--------------------------------------------------------------------------
#psi4
#
memory 32 gb

molecule  {
0 1
  O       -1.4344650     1.0675660     0.2191520
  O        1.4425540    -1.0727980    -0.0074420
  O        1.1834541     1.2104272    -0.0585940
  C       -0.7375105    -0.0693602     0.3623247
  C       -1.3608000    -1.1844980    -0.5490290
  C        0.7386720     0.0808740     0.0596700
  H       -0.7692630    -0.5063940     1.4052130
  H       -1.2645370    -0.8668950    -1.5888250
  H       -2.4222350    -1.2600450    -0.3075440
  H       -0.8906180    -2.1601930    -0.4204410
  H       -0.7794970     1.7838810     0.3439450
  H        2.3720270    -0.8088230    -0.1742930
units angstrom
no_reorient  #important for SAPT in psi4, default
symmetry c1  #important for SAPT in psi4, default
}

set PROPERTIES_ORIGIN ["COM"]
properties('MP2/aug-cc-pvtz', properties = ['dipole'])
--------------------------------------------------------------------------

    Molecular point group: c1
  Charge       = 0
  Multiplicity = 1
  Basis Set: AUG-CC-PVTZ
    Blend: AUG-CC-PVTZ
  Basis Set: (AUG-CC-PVTZ AUX)
    Blend: AUG-CC-PVTZ-JKFIT

    Orbital Energies [Eh]
    ---------------------

    Doubly Occupied:

       1A    -20.639559     2A    -20.572500     3A    -20.568990
       4A    -11.402012     5A    -11.309319     6A    -11.228898
       7A     -1.480613     8A     -1.409990     9A     -1.373583
      10A     -1.038495    11A     -0.912823    12A     -0.815344
      13A     -0.751794    14A     -0.724048    15A     -0.693034
      16A     -0.639861    17A     -0.623329    18A     -0.599888
      19A     -0.558920    20A     -0.544979    21A     -0.530494
      22A     -0.502569    23A     -0.463132    24A     -0.443244

  @DF-RHF Final Energy:  -341.83000450822556

   => Energetics <=

    Nuclear Repulsion Energy =            250.4196295756714790
    One-Electron Energy =                -964.8444344359422757
    Two-Electron Energy =                 372.5948003520452403
    Total Energy =                       -341.8300045082255565
  Basis Set: (AUG-CC-PVTZ AUX)
    Blend: AUG-CC-PVTZ-RI
    Molecular point group: c1

    Geometry (in Angstrom), charge = 0, multiplicity = 1:

       Center              X                  Y                   Z               Mass
    ------------   -----------------  -----------------  -----------------  -----------------
         O           -1.422907614633     1.052539788451     0.217186969738    15.994914619570
         O            1.454111385367    -1.087824211549    -0.009407030262    15.994914619570
         O            1.195011485367     1.195400988451    -0.060559030262    15.994914619570
         C           -0.725953114633    -0.084386411549     0.360359669738    12.000000000000
         C           -1.349242614633    -1.199524211549    -0.550994030262    12.000000000000
         C            0.750229385367     0.065847788451     0.057704969738    12.000000000000
         H           -0.757705614633    -0.521420211549     1.403247969738     1.007825032230
         H           -1.252979614633    -0.881921211549    -1.590790030262     1.007825032230
         H           -2.410677614633    -1.275071211549    -0.309509030262     1.007825032230
         H           -0.879060614633    -2.175219211549    -0.422406030262     1.007825032230
         H           -0.767939614633     1.768854788451     0.341979969738     1.007825032230
         H            2.383584385367    -0.823849211549    -0.176258030262     1.007825032230

  Basis Set: AUG-CC-PVTZ
    Blend: AUG-CC-PVTZ
  Basis Set: (AUG-CC-PVTZ AUX)
    Blend: AUG-CC-PVTZ-JKFIT
	 Reference Energy          =    -341.8300045082255565 [Eh]
	 Singles Energy            =      -0.0000000000000000 [Eh]
	 Same-Spin Energy          =      -0.3273576774854847 [Eh]
	 Opposite-Spin Energy      =      -1.0111577327314483 [Eh]
	 Correlation Energy        =      -1.3385154102169330 [Eh]
	 Total Energy              =    -343.1685199184424846 [Eh]

	 ================> DF-SCS-MP2 Energies <==================
	-----------------------------------------------------------
	 SCS Same-Spin Scale       =       0.3333333333333333 [-]
	 SCS Opposite-Spin Scale   =       1.2000000000000000 [-]
	 SCS Same-Spin Energy      =      -0.1091192258284949 [Eh]
	 SCS Opposite-Spin Energy  =      -1.2133892792777379 [Eh]
	 SCS Correlation Energy    =      -1.3225085051062329 [Eh]
	 SCS Total Energy          =    -343.1525130133317703 [Eh]
	-----------------------------------------------------------

  Dipole Moment: [D]
     X:     1.3125      Y:    -1.6310      Z:     0.2797     Total:     2.1121

*** Psi4 exiting successfully. Buy a developer a beer!
