                               Psi4 1.3.2 release

  ==> Input File <==

--------------------------------------------------------------------------
#psi4
#
memory 32 gb

molecule  {
0 1
  O       -1.4553217     1.0559060     0.2252883
  O        1.4425540    -1.0727980    -0.0074420
  O        1.2409190     1.1848430    -0.0695910
  C       -0.7273960    -0.1479950     0.3622400
  C       -1.3608000    -1.1844980    -0.5490290
  C        0.7434062     0.0553099     0.0644262
  H       -0.7692630    -0.5063940     1.4052130
  H       -1.2645370    -0.8668950    -1.5888250
  H       -2.4222350    -1.2600450    -0.3075440
  H       -0.8906180    -2.1601930    -0.4204410
  H       -0.7794970     1.7838810     0.3439450
  H        2.3720270    -0.8088230    -0.1742930
units angstrom
no_reorient  #important for SAPT in psi4, default
symmetry c1  #important for SAPT in psi4, default
}

set PROPERTIES_ORIGIN ["COM"]
properties('MP2/aug-cc-pvtz', properties = ['dipole'])
--------------------------------------------------------------------------

    Molecular point group: c1
  Charge       = 0
  Multiplicity = 1
  Basis Set: AUG-CC-PVTZ
    Blend: AUG-CC-PVTZ
  Basis Set: (AUG-CC-PVTZ AUX)
    Blend: AUG-CC-PVTZ-JKFIT

    Orbital Energies [Eh]
    ---------------------

    Doubly Occupied:

       1A    -20.641579     2A    -20.569094     3A    -20.566082
       4A    -11.405700     5A    -11.311063     6A    -11.231120
       7A     -1.487668     8A     -1.381495     9A     -1.354275
      10A     -1.053138    11A     -0.921031    12A     -0.817348
      13A     -0.738460    14A     -0.722591    15A     -0.689763
      16A     -0.640757    17A     -0.620483    18A     -0.585503
      19A     -0.560149    20A     -0.542391    21A     -0.530763
      22A     -0.494142    23A     -0.472353    24A     -0.453769

  @DF-RHF Final Energy:  -341.83268478734220

   => Energetics <=

    Nuclear Repulsion Energy =            249.3682451313499371
    One-Electron Energy =                -962.8204282707699804
    Two-Electron Energy =                 371.6194983520778692
    Total Energy =                       -341.8326847873422025
  Basis Set: (AUG-CC-PVTZ AUX)
    Blend: AUG-CC-PVTZ-RI
    Molecular point group: c1

    Geometry (in Angstrom), charge = 0, multiplicity = 1:

       Center              X                  Y                   Z               Mass
    ------------   -----------------  -----------------  -----------------  -----------------
         O           -1.452247209922     1.061384840794     0.223564168032    15.994914619570
         O            1.445628490078    -1.067319159206    -0.009166131968    15.994914619570
         O            1.243993490078     1.190321840794    -0.071315131968    15.994914619570
         C           -0.724321509922    -0.142516159206     0.360515868032    12.000000000000
         C           -1.357725509922    -1.179019159206    -0.550753131968    12.000000000000
         C            0.746480690078     0.060788740794     0.062702068032    12.000000000000
         H           -0.766188509922    -0.500915159206     1.403488868032     1.007825032230
         H           -1.261462509922    -0.861416159206    -1.590549131968     1.007825032230
         H           -2.419160509922    -1.254566159206    -0.309268131968     1.007825032230
         H           -0.887543509922    -2.154714159206    -0.422165131968     1.007825032230
         H           -0.776422509922     1.789359840794     0.342220868032     1.007825032230
         H            2.375101490078    -0.803344159206    -0.176017131968     1.007825032230

  Basis Set: AUG-CC-PVTZ
    Blend: AUG-CC-PVTZ
  Basis Set: (AUG-CC-PVTZ AUX)
    Blend: AUG-CC-PVTZ-JKFIT
	 Reference Energy          =    -341.8326847873422025 [Eh]
	 Singles Energy            =      -0.0000000000000000 [Eh]
	 Same-Spin Energy          =      -0.3278256132334245 [Eh]
	 Opposite-Spin Energy      =      -1.0130130950274459 [Eh]
	 Correlation Energy        =      -1.3408387082608704 [Eh]
	 Total Energy              =    -343.1735234956030922 [Eh]

	 ================> DF-SCS-MP2 Energies <==================
	-----------------------------------------------------------
	 SCS Same-Spin Scale       =       0.3333333333333333 [-]
	 SCS Opposite-Spin Scale   =       1.2000000000000000 [-]
	 SCS Same-Spin Energy      =      -0.1092752044111415 [Eh]
	 SCS Opposite-Spin Energy  =      -1.2156157140329349 [Eh]
	 SCS Correlation Energy    =      -1.3248909184440765 [Eh]
	 SCS Total Energy          =    -343.1575757057862575 [Eh]
	-----------------------------------------------------------

  Dipole Moment: [D]
     X:     1.3158      Y:    -2.0169      Z:     0.2987     Total:     2.4266

*** Psi4 exiting successfully. Buy a developer a beer!
