                               Psi4 1.4a3.dev225

  ==> Input File <==

--------------------------------------------------------------------------
#psi4
#
memory 32 gb

molecule  {
0 1
  O       -1.3959680    -1.1167090    -0.2833280
  O        1.5522570     0.9331460    -0.3210200
  O        1.1768320    -1.1502310     0.4959580
  C       -0.6816250     0.0987340    -0.4130150
  C       -1.2926720     1.1882940     0.4648960
  C        0.7842492    -0.1711022    -0.0147293
  H       -0.7109810     0.4129130    -1.4639800
  H       -1.2242180     0.8953450     1.5161010
  H       -2.3476110     1.2964270     0.2055410
  H       -0.7844450     2.1448300     0.3211210
  H       -0.8100540    -1.7212800     0.2125920
  H        2.4531110     0.6959320    -0.0164550
units angstrom
no_reorient  #important for SAPT in psi4, default
symmetry c1  #important for SAPT in psi4, default
}

set PROPERTIES_ORIGIN ["COM"]
properties('MP2/aug-cc-pvtz', properties = ['dipole'])
--------------------------------------------------------------------------

    Molecular point group: c1
  Charge       = 0
  Multiplicity = 1
  Basis Set: AUG-CC-PVTZ
    Blend: AUG-CC-PVTZ
  Basis Set: (AUG-CC-PVTZ AUX)
    Blend: AUG-CC-PVTZ-JKFIT

    Orbital Energies [Eh]
    ---------------------

    Doubly Occupied:

       1A    -20.626960     2A    -20.581418     3A    -20.563677
       4A    -11.400645     5A    -11.309754     6A    -11.232408
       7A     -1.489114     8A     -1.396244     9A     -1.367352
      10A     -1.045879    11A     -0.910975    12A     -0.805939
      13A     -0.743506    14A     -0.730282    15A     -0.670212
      16A     -0.643972    17A     -0.630612    18A     -0.590192
      19A     -0.567491    20A     -0.543236    21A     -0.536789
      22A     -0.515996    23A     -0.465488    24A     -0.454865

  @DF-RHF Final Energy:  -341.83639587604290

   => Energetics <=

    Nuclear Repulsion Energy =            249.7058784604510606
    One-Electron Energy =                -963.4385351745399930
    Two-Electron Energy =                 371.8962608380460892
    Total Energy =                       -341.8363958760429000
  Basis Set: (AUG-CC-PVTZ AUX)
    Blend: AUG-CC-PVTZ-RI
    Molecular point group: c1

    Geometry (in Angstrom), charge = 0, multiplicity = 1:

       Center              X                  Y                   Z               Mass
    ------------   -----------------  -----------------  -----------------  -----------------
         O           -1.435860512861    -1.070175355738    -0.277697931312    15.994914619570
         O            1.512364487139     0.979679644262    -0.315389931312    15.994914619570
         O            1.136939487139    -1.103697355738     0.501588068688    15.994914619570
         C           -0.721517512861     0.145267644262    -0.407384931312    12.000000000000
         C           -1.332564512861     1.234827644262     0.470526068688    12.000000000000
         C            0.744356687139    -0.124568555738    -0.009099231312    12.000000000000
         H           -0.750873512861     0.459446644262    -1.458349931312     1.007825032230
         H           -1.264110512861     0.941878644262     1.521731068688     1.007825032230
         H           -2.387503512861     1.342960644262     0.211171068688     1.007825032230
         H           -0.824337512861     2.191363644262     0.326751068688     1.007825032230
         H           -0.849946512861    -1.674746355738     0.218222068688     1.007825032230
         H            2.413218487139     0.742465644262    -0.010824931312     1.007825032230

  Basis Set: AUG-CC-PVTZ
    Blend: AUG-CC-PVTZ
  Basis Set: (AUG-CC-PVTZ AUX)
    Blend: AUG-CC-PVTZ-JKFIT
	 Reference Energy          =    -341.8363958760429000 [Eh]
	 Singles Energy            =      -0.0000000000000000 [Eh]
	 Same-Spin Energy          =      -0.3262489782465934 [Eh]
	 Opposite-Spin Energy      =      -1.0102108685065556 [Eh]
	 Correlation Energy        =      -1.3364598467531490 [Eh]
	 Total Energy              =    -343.1728557227960437 [Eh]

	 ================> DF-SCS-MP2 Energies <==================
	-----------------------------------------------------------
	 SCS Same-Spin Scale       =       0.3333333333333333 [-]
	 SCS Opposite-Spin Scale   =       1.2000000000000000 [-]
	 SCS Same-Spin Energy      =      -0.1087496594155311 [Eh]
	 SCS Opposite-Spin Energy  =      -1.2122530422078668 [Eh]
	 SCS Correlation Energy    =      -1.3210027016233978 [Eh]
	 SCS Total Energy          =    -343.1573985776662994 [Eh]
	-----------------------------------------------------------

  Dipole Moment: [D]
     X:     1.3425      Y:     1.6394      Z:     0.1974     Total:     2.1281

*** Psi4 exiting successfully. Buy a developer a beer!
