                               Psi4 1.3.2 release

  ==> Input File <==

--------------------------------------------------------------------------
#psi4
#
memory 32 gb

molecule  {
0 1
  O       -1.4269455     1.0728462     0.2273820
  O        1.4425540    -1.0727980    -0.0074420
  O        1.2409190     1.1848430    -0.0695910
  C       -0.7273960    -0.1479950     0.3622400
  C       -1.3519340    -1.1934471    -0.5449163
  C        0.7386720     0.0808740     0.0596700
  H       -0.7692630    -0.5063940     1.4052130
  H       -1.2645370    -0.8668950    -1.5888250
  H       -2.4222350    -1.2600450    -0.3075440
  H       -0.8906180    -2.1601930    -0.4204410
  H       -0.7794970     1.7838810     0.3439450
  H        2.3720270    -0.8088230    -0.1742930
units angstrom
no_reorient  #important for SAPT in psi4, default
symmetry c1  #important for SAPT in psi4, default
}

set PROPERTIES_ORIGIN ["COM"]
properties('MP2/aug-cc-pvtz', properties = ['dipole'])
--------------------------------------------------------------------------

    Molecular point group: c1
  Charge       = 0
  Multiplicity = 1
  Basis Set: AUG-CC-PVTZ
    Blend: AUG-CC-PVTZ
  Basis Set: (AUG-CC-PVTZ AUX)
    Blend: AUG-CC-PVTZ-JKFIT

    Orbital Energies [Eh]
    ---------------------

    Doubly Occupied:

       1A    -20.633882     2A    -20.570118     3A    -20.566214
       4A    -11.403137     5A    -11.311810     6A    -11.232022
       7A     -1.480064     8A     -1.387362     9A     -1.362861
      10A     -1.054429    11A     -0.918320    12A     -0.812901
      13A     -0.739612    14A     -0.721963    15A     -0.691620
      16A     -0.639420    17A     -0.621487    18A     -0.585270
      19A     -0.562645    20A     -0.543461    21A     -0.534141
      22A     -0.499948    23A     -0.473644    24A     -0.454450

  @DF-RHF Final Energy:  -341.83737721920534

   => Energetics <=

    Nuclear Repulsion Energy =            249.7203477325600431
    One-Electron Energy =                -963.5138861227045481
    Two-Electron Energy =                 371.9561611709391400
    Total Energy =                       -341.8373772192053366
  Basis Set: (AUG-CC-PVTZ AUX)
    Blend: AUG-CC-PVTZ-RI
    Molecular point group: c1

    Geometry (in Angstrom), charge = 0, multiplicity = 1:

       Center              X                  Y                   Z               Mass
    ------------   -----------------  -----------------  -----------------  -----------------
         O           -1.429463001737     1.073100913251     0.225371673786    15.994914619570
         O            1.440036498263    -1.072543286749    -0.009452326214    15.994914619570
         O            1.238401498263     1.185097713251    -0.071601326214    15.994914619570
         C           -0.729913501737    -0.147740286749     0.360229673786    12.000000000000
         C           -1.354451501737    -1.193192386749    -0.546926626214    12.000000000000
         C            0.736154498263     0.081128713251     0.057659673786    12.000000000000
         H           -0.771780501737    -0.506139286749     1.403202673786     1.007825032230
         H           -1.267054501737    -0.866640286749    -1.590835326214     1.007825032230
         H           -2.424752501737    -1.259790286749    -0.309554326214     1.007825032230
         H           -0.893135501737    -2.159938286749    -0.422451326214     1.007825032230
         H           -0.782014501737     1.784135713251     0.341934673786     1.007825032230
         H            2.369509498263    -0.808568286749    -0.176303326214     1.007825032230

  Basis Set: AUG-CC-PVTZ
    Blend: AUG-CC-PVTZ
  Basis Set: (AUG-CC-PVTZ AUX)
    Blend: AUG-CC-PVTZ-JKFIT
	 Reference Energy          =    -341.8373772192053366 [Eh]
	 Singles Energy            =      -0.0000000000000000 [Eh]
	 Same-Spin Energy          =      -0.3269807653749403 [Eh]
	 Opposite-Spin Energy      =      -1.0113748255408899 [Eh]
	 Correlation Energy        =      -1.3383555909158300 [Eh]
	 Total Energy              =    -343.1757328101211897 [Eh]

	 ================> DF-SCS-MP2 Energies <==================
	-----------------------------------------------------------
	 SCS Same-Spin Scale       =       0.3333333333333333 [-]
	 SCS Opposite-Spin Scale   =       1.2000000000000000 [-]
	 SCS Same-Spin Energy      =      -0.1089935884583134 [Eh]
	 SCS Opposite-Spin Energy  =      -1.2136497906490678 [Eh]
	 SCS Correlation Energy    =      -1.3226433791073813 [Eh]
	 SCS Total Energy          =    -343.1600205983127125 [Eh]
	-----------------------------------------------------------

  Dipole Moment: [D]
     X:     1.2105      Y:    -1.8586      Z:     0.2939     Total:     2.2374

*** Psi4 exiting successfully. Buy a developer a beer!
