                               Psi4 1.3.2 release

  ==> Input File <==

--------------------------------------------------------------------------
#psi4
#
memory 32 gb

molecule  {
0 1
  O       -1.4344650     1.0675660     0.2191520
  O        1.4425540    -1.0727980    -0.0074420
  O        1.2409190     1.1848430    -0.0695910
  C       -0.7273960    -0.1479950     0.3622400
  C       -1.4025115    -1.2527547    -0.6090387
  C        0.7386720     0.0808740     0.0596700
  H       -0.7692630    -0.5063940     1.4052130
  H       -1.2645370    -0.8668950    -1.5888250
  H       -2.4222350    -1.2600450    -0.3075440
  H       -0.8906180    -2.1601930    -0.4204410
  H       -0.7794970     1.7838810     0.3439450
  H        2.3720270    -0.8088230    -0.1742930
units angstrom
no_reorient  #important for SAPT in psi4, default
symmetry c1  #important for SAPT in psi4, default
}

set PROPERTIES_ORIGIN ["COM"]
properties('MP2/aug-cc-pvtz', properties = ['dipole'])
--------------------------------------------------------------------------

    Molecular point group: c1
  Charge       = 0
  Multiplicity = 1
  Basis Set: AUG-CC-PVTZ
    Blend: AUG-CC-PVTZ
  Basis Set: (AUG-CC-PVTZ AUX)
    Blend: AUG-CC-PVTZ-JKFIT

    Orbital Energies [Eh]
    ---------------------

    Doubly Occupied:

       1A    -20.633420     2A    -20.569405     3A    -20.566971
       4A    -11.402631     5A    -11.313964     6A    -11.231260
       7A     -1.479287     8A     -1.385455     9A     -1.360628
      10A     -1.039631    11A     -0.923508    12A     -0.811561
      13A     -0.736355    14A     -0.720886    15A     -0.687626
      16A     -0.636660    17A     -0.621625    18A     -0.582599
      19A     -0.569262    20A     -0.560997    21A     -0.526987
      22A     -0.499149    23A     -0.465406    24A     -0.450731

  @DF-RHF Final Energy:  -341.82964887342757

   => Energetics <=

    Nuclear Repulsion Energy =            248.0827827457472381
    One-Electron Energy =                -960.2728570068477438
    Two-Electron Energy =                 370.3604253876729899
    Total Energy =                       -341.8296488734275727
  Basis Set: (AUG-CC-PVTZ AUX)
    Blend: AUG-CC-PVTZ-RI
    Molecular point group: c1

    Geometry (in Angstrom), charge = 0, multiplicity = 1:

       Center              X                  Y                   Z               Mass
    ------------   -----------------  -----------------  -----------------  -----------------
         O           -1.428905304389     1.076663683014     0.227150448550    15.994914619570
         O            1.448113695611    -1.063700316986     0.000556448550    15.994914619570
         O            1.246478695611     1.193940683014    -0.061592551450    15.994914619570
         C           -0.721836304389    -0.138897316986     0.370238448550    12.000000000000
         C           -1.396951804389    -1.243657016986    -0.601040251450    12.000000000000
         C            0.744231695611     0.089971683014     0.067668448550    12.000000000000
         H           -0.763703304389    -0.497296316986     1.413211448550     1.007825032230
         H           -1.258977304389    -0.857797316986    -1.580826551450     1.007825032230
         H           -2.416675304389    -1.250947316986    -0.299545551450     1.007825032230
         H           -0.885058304389    -2.151095316986    -0.412442551450     1.007825032230
         H           -0.773937304389     1.792978683014     0.351943448550     1.007825032230
         H            2.377586695611    -0.799725316986    -0.166294551450     1.007825032230

  Basis Set: AUG-CC-PVTZ
    Blend: AUG-CC-PVTZ
  Basis Set: (AUG-CC-PVTZ AUX)
    Blend: AUG-CC-PVTZ-JKFIT
	 Reference Energy          =    -341.8296488734275727 [Eh]
	 Singles Energy            =      -0.0000000000000000 [Eh]
	 Same-Spin Energy          =      -0.3268270130289625 [Eh]
	 Opposite-Spin Energy      =      -1.0117469024341561 [Eh]
	 Correlation Energy        =      -1.3385739154631187 [Eh]
	 Total Energy              =    -343.1682227888907164 [Eh]

	 ================> DF-SCS-MP2 Energies <==================
	-----------------------------------------------------------
	 SCS Same-Spin Scale       =       0.3333333333333333 [-]
	 SCS Opposite-Spin Scale   =       1.2000000000000000 [-]
	 SCS Same-Spin Energy      =      -0.1089423376763208 [Eh]
	 SCS Opposite-Spin Energy  =      -1.2140962829209874 [Eh]
	 SCS Correlation Energy    =      -1.3230386205973081 [Eh]
	 SCS Total Energy          =    -343.1526874940248604 [Eh]
	-----------------------------------------------------------

  Dipole Moment: [D]
     X:     1.1988      Y:    -1.8170      Z:     0.3187     Total:     2.2000

*** Psi4 exiting successfully. Buy a developer a beer!
