                               Psi4 1.3.2 release

  ==> Input File <==

--------------------------------------------------------------------------
#psi4
#
memory 32 gb

molecule  {
0 1
  O       -1.4344650     1.0675660     0.2191520
  O        1.4425540    -1.0727980    -0.0074420
  O        1.2409190     1.1848430    -0.0695910
  C       -0.7273960    -0.1479950     0.3622400
  C       -1.3608000    -1.1844980    -0.5490290
  C        0.7485942     0.0869793     0.0577450
  H       -0.7692630    -0.5063940     1.4052130
  H       -1.2645370    -0.8668950    -1.5888250
  H       -2.4222350    -1.2600450    -0.3075440
  H       -0.8906180    -2.1601930    -0.4204410
  H       -0.7794970     1.7838810     0.3439450
  H        2.3696588    -0.8006006    -0.1742572
units angstrom
no_reorient  #important for SAPT in psi4, default
symmetry c1  #important for SAPT in psi4, default
}

set PROPERTIES_ORIGIN ["COM"]
properties('MP2/aug-cc-pvtz', properties = ['dipole'])
--------------------------------------------------------------------------

    Molecular point group: c1
  Charge       = 0
  Multiplicity = 1
  Basis Set: AUG-CC-PVTZ
    Blend: AUG-CC-PVTZ
  Basis Set: (AUG-CC-PVTZ AUX)
    Blend: AUG-CC-PVTZ-JKFIT

    Orbital Energies [Eh]
    ---------------------

    Doubly Occupied:

       1A    -20.634036     2A    -20.571920     3A    -20.566459
       4A    -11.402357     5A    -11.310883     6A    -11.230665
       7A     -1.482730     8A     -1.389256     9A     -1.364336
      10A     -1.050808    11A     -0.916150    12A     -0.810434
      13A     -0.738975    14A     -0.723031    15A     -0.690723
      16A     -0.640883    17A     -0.623580    18A     -0.584615
      19A     -0.560993    20A     -0.541624    21A     -0.534942
      22A     -0.503426    23A     -0.473919    24A     -0.453038

  @DF-RHF Final Energy:  -341.83751338850340

   => Energetics <=

    Nuclear Repulsion Energy =            249.6710427428194805
    One-Electron Energy =                -963.4175437147403045
    Two-Electron Energy =                 371.9089875834173995
    Total Energy =                       -341.8375133885033961
  Basis Set: (AUG-CC-PVTZ AUX)
    Blend: AUG-CC-PVTZ-RI
    Molecular point group: c1

    Geometry (in Angstrom), charge = 0, multiplicity = 1:

       Center              X                  Y                   Z               Mass
    ------------   -----------------  -----------------  -----------------  -----------------
         O           -1.435760864258     1.066660197574     0.219408147491    15.994914619570
         O            1.441258135742    -1.073703802426    -0.007185852509    15.994914619570
         O            1.239623135742     1.183937197574    -0.069334852509    15.994914619570
         C           -0.728691864258    -0.148900802426     0.362496147491    12.000000000000
         C           -1.362095864258    -1.185403802426    -0.548772852509    12.000000000000
         C            0.747298335742     0.086073497574     0.058001147491    12.000000000000
         H           -0.770558864258    -0.507299802426     1.405469147491     1.007825032230
         H           -1.265832864258    -0.867800802426    -1.588568852509     1.007825032230
         H           -2.423530864258    -1.260950802426    -0.307287852509     1.007825032230
         H           -0.891913864258    -2.161098802426    -0.420184852509     1.007825032230
         H           -0.780792864258     1.782975197574     0.344201147491     1.007825032230
         H            2.368362935742    -0.801506402426    -0.174001052509     1.007825032230

  Basis Set: AUG-CC-PVTZ
    Blend: AUG-CC-PVTZ
  Basis Set: (AUG-CC-PVTZ AUX)
    Blend: AUG-CC-PVTZ-JKFIT
	 Reference Energy          =    -341.8375133885033961 [Eh]
	 Singles Energy            =      -0.0000000000000000 [Eh]
	 Same-Spin Energy          =      -0.3269174988295183 [Eh]
	 Opposite-Spin Energy      =      -1.0113438133353529 [Eh]
	 Correlation Energy        =      -1.3382613121648712 [Eh]
	 Total Energy              =    -343.1757747006682848 [Eh]

	 ================> DF-SCS-MP2 Energies <==================
	-----------------------------------------------------------
	 SCS Same-Spin Scale       =       0.3333333333333333 [-]
	 SCS Opposite-Spin Scale   =       1.2000000000000000 [-]
	 SCS Same-Spin Energy      =      -0.1089724996098394 [Eh]
	 SCS Opposite-Spin Energy  =      -1.2136125760024234 [Eh]
	 SCS Correlation Energy    =      -1.3225850756122628 [Eh]
	 SCS Total Energy          =    -343.1600984641156629 [Eh]
	-----------------------------------------------------------

  Dipole Moment: [D]
     X:     1.2664      Y:    -1.7877      Z:     0.3011     Total:     2.2114

*** Psi4 exiting successfully. Buy a developer a beer!
