                               Psi4 1.3.2 release

  ==> Input File <==

--------------------------------------------------------------------------
#psi4
#
memory 32 gb

molecule  {
0 1
  O       -1.4344650     1.0675660     0.2191520
  O        1.4425540    -1.0727980    -0.0074420
  O        1.2409190     1.1848430    -0.0695910
  C       -0.7273960    -0.1479950     0.3622400
  C       -1.3608000    -1.1844980    -0.5490290
  C        0.7386720     0.0808740     0.0596700
  H       -0.7654694    -0.4739194     1.3107090
  H       -1.2645370    -0.8668950    -1.5888250
  H       -2.4222350    -1.2600450    -0.3075440
  H       -0.8906180    -2.1601930    -0.4204410
  H       -0.7794970     1.7838810     0.3439450
  H        2.3720270    -0.8088230    -0.1742930
units angstrom
no_reorient  #important for SAPT in psi4, default
symmetry c1  #important for SAPT in psi4, default
}

set PROPERTIES_ORIGIN ["COM"]
properties('MP2/aug-cc-pvtz', properties = ['dipole'])
--------------------------------------------------------------------------

    Molecular point group: c1
  Charge       = 0
  Multiplicity = 1
  Basis Set: AUG-CC-PVTZ
    Blend: AUG-CC-PVTZ
  Basis Set: (AUG-CC-PVTZ AUX)
    Blend: AUG-CC-PVTZ-JKFIT

    Orbital Energies [Eh]
    ---------------------

    Doubly Occupied:

       1A    -20.634308     2A    -20.570342     3A    -20.565190
       4A    -11.402828     5A    -11.299304     6A    -11.230690
       7A     -1.480338     8A     -1.386265     9A     -1.361661
      10A     -1.058257    11A     -0.920148    12A     -0.820403
      13A     -0.738513    14A     -0.724610    15A     -0.699282
      16A     -0.640321    17A     -0.622735    18A     -0.584292
      19A     -0.561056    20A     -0.544203    21A     -0.533406
      22A     -0.500151    23A     -0.474854    24A     -0.458760

  @DF-RHF Final Energy:  -341.83183784922556

   => Energetics <=

    Nuclear Repulsion Energy =            250.2006242629566657
    One-Electron Energy =                -964.4410903134768205
    Two-Electron Energy =                 372.4086282012945617
    Total Energy =                       -341.8318378492255647
  Basis Set: (AUG-CC-PVTZ AUX)
    Blend: AUG-CC-PVTZ-RI
    Molecular point group: c1

    Geometry (in Angstrom), charge = 0, multiplicity = 1:

       Center              X                  Y                   Z               Mass
    ------------   -----------------  -----------------  -----------------  -----------------
         O           -1.434507345874     1.067202469118     0.220209860463    15.994914619570
         O            1.442511654126    -1.073161530882    -0.006384139537    15.994914619570
         O            1.240876654126     1.184479469118    -0.068533139537    15.994914619570
         C           -0.727438345874    -0.148358530882     0.363297860463    12.000000000000
         C           -1.360842345874    -1.184861530882    -0.547971139537    12.000000000000
         C            0.738629654126     0.080510469118     0.060727860463    12.000000000000
         H           -0.765511745874    -0.474282930882     1.311766860463     1.007825032230
         H           -1.264579345874    -0.867258530882    -1.587767139537     1.007825032230
         H           -2.422277345874    -1.260408530882    -0.306486139537     1.007825032230
         H           -0.890660345874    -2.160556530882    -0.419383139537     1.007825032230
         H           -0.779539345874     1.783517469118     0.345002860463     1.007825032230
         H            2.371984654126    -0.809186530882    -0.173235139537     1.007825032230

  Basis Set: AUG-CC-PVTZ
    Blend: AUG-CC-PVTZ
  Basis Set: (AUG-CC-PVTZ AUX)
    Blend: AUG-CC-PVTZ-JKFIT
	 Reference Energy          =    -341.8318378492255647 [Eh]
	 Singles Energy            =      -0.0000000000000000 [Eh]
	 Same-Spin Energy          =      -0.3270266665610204 [Eh]
	 Opposite-Spin Energy      =      -1.0111843560672447 [Eh]
	 Correlation Energy        =      -1.3382110226282651 [Eh]
	 Total Energy              =    -343.1700488718538509 [Eh]

	 ================> DF-SCS-MP2 Energies <==================
	-----------------------------------------------------------
	 SCS Same-Spin Scale       =       0.3333333333333333 [-]
	 SCS Opposite-Spin Scale   =       1.2000000000000000 [-]
	 SCS Same-Spin Energy      =      -0.1090088888536735 [Eh]
	 SCS Opposite-Spin Energy  =      -1.2134212272806935 [Eh]
	 SCS Correlation Energy    =      -1.3224301161343670 [Eh]
	 SCS Total Energy          =    -343.1542679653599066 [Eh]
	-----------------------------------------------------------

  Dipole Moment: [D]
     X:     1.2492      Y:    -1.8725      Z:     0.3447     Total:     2.2772

*** Psi4 exiting successfully. Buy a developer a beer!
