                               Psi4 1.3.2 release

  ==> Input File <==

--------------------------------------------------------------------------
#psi4
#
memory 32 gb

molecule  {
0 1
  O       -1.4344650     1.0675660     0.2191520
  O        1.4425540    -1.0727980    -0.0074420
  O        1.2409190     1.1848430    -0.0695910
  C       -0.7273960    -0.1479950     0.3622400
  C       -1.3608000    -1.1844980    -0.5490290
  C        0.7786749     0.1047636     0.0519407
  H       -0.7692630    -0.5063940     1.4052130
  H       -1.2645370    -0.8668950    -1.5888250
  H       -2.4222350    -1.2600450    -0.3075440
  H       -0.8906180    -2.1601930    -0.4204410
  H       -0.7794970     1.7838810     0.3439450
  H        2.3621315    -0.7760602    -0.1740736
units angstrom
no_reorient  #important for SAPT in psi4, default
symmetry c1  #important for SAPT in psi4, default
}

set PROPERTIES_ORIGIN ["COM"]
properties('MP2/aug-cc-pvtz', properties = ['dipole'])
--------------------------------------------------------------------------

    Molecular point group: c1
  Charge       = 0
  Multiplicity = 1
  Basis Set: AUG-CC-PVTZ
    Blend: AUG-CC-PVTZ
  Basis Set: (AUG-CC-PVTZ AUX)
    Blend: AUG-CC-PVTZ-JKFIT

    Orbital Energies [Eh]
    ---------------------

    Doubly Occupied:

       1A    -20.634076     2A    -20.576260     3A    -20.564737
       4A    -11.399150     5A    -11.308733     6A    -11.228239
       7A     -1.491751     8A     -1.400107     9A     -1.366720
      10A     -1.043642    11A     -0.908576    12A     -0.806036
      13A     -0.742026    14A     -0.724865    15A     -0.689702
      16A     -0.646231    17A     -0.629241    18A     -0.582929
      19A     -0.559965    20A     -0.539557    21A     -0.537919
      22A     -0.512885    23A     -0.471638    24A     -0.447432

  @DF-RHF Final Energy:  -341.83613005826930

   => Energetics <=

    Nuclear Repulsion Energy =            249.7404180092067918
    One-Electron Energy =                -963.5282637720166576
    Two-Electron Energy =                 371.9517157045405611
    Total Energy =                       -341.8361300582693048
  Basis Set: (AUG-CC-PVTZ AUX)
    Blend: AUG-CC-PVTZ-RI
    Molecular point group: c1

    Geometry (in Angstrom), charge = 0, multiplicity = 1:

       Center              X                  Y                   Z               Mass
    ------------   -----------------  -----------------  -----------------  -----------------
         O           -1.439685950889     1.064015084296     0.220179726479    15.994914619570
         O            1.437333049111    -1.076348915704    -0.006414273521    15.994914619570
         O            1.235698049111     1.181292084296    -0.068563273521    15.994914619570
         C           -0.732616950889    -0.151545915704     0.363267726479    12.000000000000
         C           -1.366020950889    -1.188048915704    -0.548001273521    12.000000000000
         C            0.773453949111     0.101212684296     0.052968426479    12.000000000000
         H           -0.774483950889    -0.509944915704     1.406240726479     1.007825032230
         H           -1.269757950889    -0.870445915704    -1.587797273521     1.007825032230
         H           -2.427455950889    -1.263595915704    -0.306516273521     1.007825032230
         H           -0.895838950889    -2.163743915704    -0.419413273521     1.007825032230
         H           -0.784717950889     1.780330084296     0.344972726479     1.007825032230
         H            2.356910549111    -0.779611115704    -0.173045873521     1.007825032230

  Basis Set: AUG-CC-PVTZ
    Blend: AUG-CC-PVTZ
  Basis Set: (AUG-CC-PVTZ AUX)
    Blend: AUG-CC-PVTZ-JKFIT
	 Reference Energy          =    -341.8361300582693048 [Eh]
	 Singles Energy            =      -0.0000000000000000 [Eh]
	 Same-Spin Energy          =      -0.3263692047969189 [Eh]
	 Opposite-Spin Energy      =      -1.0103106632047174 [Eh]
	 Correlation Energy        =      -1.3366798680016363 [Eh]
	 Total Energy              =    -343.1728099262709293 [Eh]

	 ================> DF-SCS-MP2 Energies <==================
	-----------------------------------------------------------
	 SCS Same-Spin Scale       =       0.3333333333333333 [-]
	 SCS Opposite-Spin Scale   =       1.2000000000000000 [-]
	 SCS Same-Spin Energy      =      -0.1087897349323063 [Eh]
	 SCS Opposite-Spin Energy  =      -1.2123727958456609 [Eh]
	 SCS Correlation Energy    =      -1.3211625307779673 [Eh]
	 SCS Total Energy          =    -343.1572925890472447 [Eh]
	-----------------------------------------------------------

  Dipole Moment: [D]
     X:     1.3991      Y:    -1.6263      Z:     0.2785     Total:     2.1633

*** Psi4 exiting successfully. Buy a developer a beer!
