                               Psi4 1.3.2 release

  ==> Input File <==

--------------------------------------------------------------------------
#psi4
#
memory 32 gb

molecule  {
0 1
  O       -1.3885604     1.0978446     0.2686735
  O        1.4425540    -1.0727980    -0.0074420
  O        1.2409190     1.1848430    -0.0695910
  C       -0.7273960    -0.1479950     0.3622400
  C       -1.3069042    -1.2369850    -0.5233227
  C        0.7386720     0.0808740     0.0596700
  H       -0.7692630    -0.5063940     1.4052130
  H       -1.2645370    -0.8668950    -1.5888250
  H       -2.4222350    -1.2600450    -0.3075440
  H       -0.8906180    -2.1601930    -0.4204410
  H       -0.7794970     1.7838810     0.3439450
  H        2.3720270    -0.8088230    -0.1742930
units angstrom
no_reorient  #important for SAPT in psi4, default
symmetry c1  #important for SAPT in psi4, default
}

set PROPERTIES_ORIGIN ["COM"]
properties('MP2/aug-cc-pvtz', properties = ['dipole'])
--------------------------------------------------------------------------

    Molecular point group: c1
  Charge       = 0
  Multiplicity = 1
  Basis Set: AUG-CC-PVTZ
    Blend: AUG-CC-PVTZ
  Basis Set: (AUG-CC-PVTZ AUX)
    Blend: AUG-CC-PVTZ-JKFIT

    Orbital Energies [Eh]
    ---------------------

    Doubly Occupied:

       1A    -20.633033     2A    -20.568449     3A    -20.562250
       4A    -11.401442     5A    -11.314075     6A    -11.235755
       7A     -1.479398     8A     -1.392726     9A     -1.365636
      10A     -1.060285    11A     -0.917802    12A     -0.819522
      13A     -0.744368    14A     -0.721045    15A     -0.693922
      16A     -0.640772    17A     -0.622663    18A     -0.591750
      19A     -0.575029    20A     -0.538587    21A     -0.530387
      22A     -0.498808    23A     -0.469960    24A     -0.453024

  @DF-RHF Final Energy:  -341.82887208172224

   => Energetics <=

    Nuclear Repulsion Energy =            250.1147257001217383
    One-Electron Energy =                -964.2258187632676254
    Two-Electron Energy =                 372.2822209814236203
    Total Energy =                       -341.8288720817222384
  Basis Set: (AUG-CC-PVTZ AUX)
    Blend: AUG-CC-PVTZ-RI
    Molecular point group: c1

    Geometry (in Angstrom), charge = 0, multiplicity = 1:

       Center              X                  Y                   Z               Mass
    ------------   -----------------  -----------------  -----------------  -----------------
         O           -1.403899208826     1.099461139524     0.256449246050    15.994914619570
         O            1.427215191174    -1.071181460476    -0.019666253950    15.994914619570
         O            1.225580191174     1.186459539524    -0.081815253950    15.994914619570
         C           -0.742734808826    -0.146378460476     0.350015746050    12.000000000000
         C           -1.322243008826    -1.235368460476    -0.535546953950    12.000000000000
         C            0.723333191174     0.082490539524     0.047445746050    12.000000000000
         H           -0.784601808826    -0.504777460476     1.392988746050     1.007825032230
         H           -1.279875808826    -0.865278460476    -1.601049253950     1.007825032230
         H           -2.437573808826    -1.258428460476    -0.319768253950     1.007825032230
         H           -0.905956808826    -2.158576460476    -0.432665253950     1.007825032230
         H           -0.794835808826     1.785497539524     0.331720746050     1.007825032230
         H            2.356688191174    -0.807206460476    -0.186517253950     1.007825032230

  Basis Set: AUG-CC-PVTZ
    Blend: AUG-CC-PVTZ
  Basis Set: (AUG-CC-PVTZ AUX)
    Blend: AUG-CC-PVTZ-JKFIT
	 Reference Energy          =    -341.8288720817222384 [Eh]
	 Singles Energy            =      -0.0000000000000000 [Eh]
	 Same-Spin Energy          =      -0.3263913565646438 [Eh]
	 Opposite-Spin Energy      =      -1.0100051186641308 [Eh]
	 Correlation Energy        =      -1.3363964752287747 [Eh]
	 Total Energy              =    -343.1652685569509913 [Eh]

	 ================> DF-SCS-MP2 Energies <==================
	-----------------------------------------------------------
	 SCS Same-Spin Scale       =       0.3333333333333333 [-]
	 SCS Opposite-Spin Scale   =       1.2000000000000000 [-]
	 SCS Same-Spin Energy      =      -0.1087971188548813 [Eh]
	 SCS Opposite-Spin Energy  =      -1.2120061423969568 [Eh]
	 SCS Correlation Energy    =      -1.3208032612518381 [Eh]
	 SCS Total Energy          =    -343.1496753429740920 [Eh]
	-----------------------------------------------------------

  Dipole Moment: [D]
     X:     1.1416      Y:    -1.9330      Z:     0.2203     Total:     2.2558

*** Psi4 exiting successfully. Buy a developer a beer!
