                               Psi4 1.3.2 release

  ==> Input File <==

--------------------------------------------------------------------------
#psi4
#
memory 32 gb

molecule  {
1 1
  N       -0.0000070     0.5428950     0.0000130
  C        1.4274366    -0.3862876    -0.0000029
  C       -1.2598080    -0.2771790    -0.0000030
  H       -0.0000060     1.1640620     0.8196270
  H       -0.0000050     1.1640360    -0.8196790
  H        1.2623770    -0.8971870     0.8951090
  H        1.2610580    -0.8992150    -0.8937010
  H        2.1166910     0.3953100    -0.0014200
  H       -2.1167010     0.3952880     0.0003870
  H       -1.2619210    -0.8979260    -0.8945960
  H       -1.2615120    -0.8984910     0.8942090
units angstrom
no_reorient  #important for SAPT in psi4, default
symmetry c1  #important for SAPT in psi4, default
}

set PROPERTIES_ORIGIN ["COM"]
properties('MP2/aug-cc-pvtz', properties = ['dipole'])
--------------------------------------------------------------------------

    Molecular point group: c1
  Charge       = 1
  Multiplicity = 1
  Basis Set: AUG-CC-PVTZ
    Blend: AUG-CC-PVTZ
  Basis Set: (AUG-CC-PVTZ AUX)
    Blend: AUG-CC-PVTZ-JKFIT

    Orbital Energies [Eh]
    ---------------------

    Doubly Occupied:

       1A    -15.871555     2A    -11.491867     3A    -11.467199
       4A     -1.472334     5A     -1.188039     6A     -1.128176
       7A     -0.953818     8A     -0.879885     9A     -0.818566
      10A     -0.815117    11A     -0.792896    12A     -0.755727
      13A     -0.720653

  @DF-RHF Final Energy:  -134.64585802884514

   => Energetics <=

    Nuclear Repulsion Energy =             88.6956887840707253
    One-Electron Energy =                -349.9714283770624661
    Two-Electron Energy =                 126.6298815641465865
    Total Energy =                       -134.6458580288451401
  Basis Set: (AUG-CC-PVTZ AUX)
    Blend: AUG-CC-PVTZ-RI
    Molecular point group: c1

    Geometry (in Angstrom), charge = 1, multiplicity = 1:

       Center              X                  Y                   Z               Mass
    ------------   -----------------  -----------------  -----------------  -----------------
         N           -0.043671313223     0.561069777196     0.000011985380    14.003074004430
         C            1.383772286777    -0.368112822804    -0.000003914620    12.000000000000
         C           -1.303472313223    -0.259004222804    -0.000004014620    12.000000000000
         H           -0.043670313223     1.182236777196     0.819625985380     1.007825032230
         H           -0.043669313223     1.182210777196    -0.819680014620     1.007825032230
         H            1.218712686777    -0.879012222804     0.895107985380     1.007825032230
         H            1.217393686777    -0.881040222804    -0.893702014620     1.007825032230
         H            2.073026686777     0.413484777196    -0.001421014620     1.007825032230
         H           -2.160365313223     0.413462777196     0.000385985380     1.007825032230
         H           -1.305585313223    -0.879751222804    -0.894597014620     1.007825032230
         H           -1.305176313223    -0.880316222804     0.894207985380     1.007825032230

  Basis Set: AUG-CC-PVTZ
    Blend: AUG-CC-PVTZ
  Basis Set: (AUG-CC-PVTZ AUX)
    Blend: AUG-CC-PVTZ-JKFIT
	 Reference Energy          =    -134.6458580288451401 [Eh]
	 Singles Energy            =      -0.0000000000000000 [Eh]
	 Same-Spin Energy          =      -0.1296273253269305 [Eh]
	 Opposite-Spin Energy      =      -0.5028137506212149 [Eh]
	 Correlation Energy        =      -0.6324410759481454 [Eh]
	 Total Energy              =    -135.2782991047932910 [Eh]

	 ================> DF-SCS-MP2 Energies <==================
	-----------------------------------------------------------
	 SCS Same-Spin Scale       =       0.3333333333333333 [-]
	 SCS Opposite-Spin Scale   =       1.2000000000000000 [-]
	 SCS Same-Spin Energy      =      -0.0432091084423102 [Eh]
	 SCS Opposite-Spin Energy  =      -0.6033765007454579 [Eh]
	 SCS Correlation Energy    =      -0.6465856091877681 [Eh]
	 SCS Total Energy          =    -135.2924436380329212 [Eh]
	-----------------------------------------------------------

  Dipole Moment: [D]
     X:     0.2966      Y:     1.2986      Z:    -0.0001     Total:     1.3320

*** Psi4 exiting successfully. Buy a developer a beer!
