                               Psi4 1.3.2 release

  ==> Input File <==

--------------------------------------------------------------------------
#psi4
#
memory 32 gb

molecule  {
1 1
  N       -0.0000070     0.5428950     0.0000130
  C        1.2988727    -0.2020878    -0.1326426
  C       -1.2598080    -0.2771790    -0.0000030
  H       -0.0000060     1.1640620     0.8196270
  H       -0.0000050     1.1640360    -0.8196790
  H        1.2623770    -0.8971870     0.8951090
  H        1.2610580    -0.8992150    -0.8937010
  H        2.1166910     0.3953100    -0.0014200
  H       -2.1167010     0.3952880     0.0003870
  H       -1.2619210    -0.8979260    -0.8945960
  H       -1.2615120    -0.8984910     0.8942090
units angstrom
no_reorient  #important for SAPT in psi4, default
symmetry c1  #important for SAPT in psi4, default
}

set PROPERTIES_ORIGIN ["COM"]
properties('MP2/aug-cc-pvtz', properties = ['dipole'])
--------------------------------------------------------------------------

    Molecular point group: c1
  Charge       = 1
  Multiplicity = 1
  Basis Set: AUG-CC-PVTZ
    Blend: AUG-CC-PVTZ
  Basis Set: (AUG-CC-PVTZ AUX)
    Blend: AUG-CC-PVTZ-JKFIT

    Orbital Energies [Eh]
    ---------------------

    Doubly Occupied:

       1A    -15.894760     2A    -11.479767     3A    -11.478085
       4A     -1.515006     5A     -1.194226     6A     -1.128025
       7A     -0.978361     8A     -0.910048     9A     -0.851368
      10A     -0.796851    11A     -0.768940    12A     -0.760646
      13A     -0.708646

  @DF-RHF Final Energy:  -134.64431853854205

   => Energetics <=

    Nuclear Repulsion Energy =             90.7700696880160507
    One-Electron Energy =                -353.8993153772868823
    Two-Electron Energy =                 128.4849271507287654
    Total Energy =                       -134.6443185385420520
  Basis Set: (AUG-CC-PVTZ AUX)
    Blend: AUG-CC-PVTZ-RI
    Molecular point group: c1

    Geometry (in Angstrom), charge = 1, multiplicity = 1:

       Center              X                  Y                   Z               Mass
    ------------   -----------------  -----------------  -----------------  -----------------
         N           -0.010180719094     0.513086161730     0.034564315840    14.003074004430
         C            1.288698980906    -0.231896638270    -0.098091284160    12.000000000000
         C           -1.269981719094    -0.306987838270     0.034548315840    12.000000000000
         H           -0.010179719094     1.134253161730     0.854178315840     1.007825032230
         H           -0.010178719094     1.134227161730    -0.785127684160     1.007825032230
         H            1.252203280906    -0.926995838270     0.929660315840     1.007825032230
         H            1.250884280906    -0.929023838270    -0.859149684160     1.007825032230
         H            2.106517280906     0.365501161730     0.033131315840     1.007825032230
         H           -2.126874719094     0.365479161730     0.034938315840     1.007825032230
         H           -1.272094719094    -0.927734838270    -0.860044684160     1.007825032230
         H           -1.271685719094    -0.928299838270     0.928760315840     1.007825032230

  Basis Set: AUG-CC-PVTZ
    Blend: AUG-CC-PVTZ
  Basis Set: (AUG-CC-PVTZ AUX)
    Blend: AUG-CC-PVTZ-JKFIT
	 Reference Energy          =    -134.6443185385420520 [Eh]
	 Singles Energy            =      -0.0000000000000000 [Eh]
	 Same-Spin Energy          =      -0.1308287993077573 [Eh]
	 Opposite-Spin Energy      =      -0.5030275731425558 [Eh]
	 Correlation Energy        =      -0.6338563724503130 [Eh]
	 Total Energy              =    -135.2781749109923624 [Eh]

	 ================> DF-SCS-MP2 Energies <==================
	-----------------------------------------------------------
	 SCS Same-Spin Scale       =       0.3333333333333333 [-]
	 SCS Opposite-Spin Scale   =       1.2000000000000000 [-]
	 SCS Same-Spin Energy      =      -0.0436095997692524 [Eh]
	 SCS Opposite-Spin Energy  =      -0.6036330877710668 [Eh]
	 SCS Correlation Energy    =      -0.6472426875403192 [Eh]
	 SCS Total Energy          =    -135.2915612260823650 [Eh]
	-----------------------------------------------------------

  Dipole Moment: [D]
     X:    -0.0762      Y:     1.3912      Z:     0.0920     Total:     1.3963

*** Psi4 exiting successfully. Buy a developer a beer!
