                               Psi4 1.3.2 release

  ==> Input File <==

--------------------------------------------------------------------------
#psi4
#
memory 32 gb

molecule  {
1 1
  N       -0.0000070     0.5428950     0.0000130
  C        1.1995457    -0.3630624    -0.0000026
  C       -1.2598080    -0.2771790    -0.0000030
  H       -0.0000060     1.1640620     0.8196270
  H       -0.0000050     1.1640360    -0.8196790
  H        1.2623770    -0.8971870     0.8951090
  H        1.2610580    -0.8992150    -0.8937010
  H        2.1166910     0.3953100    -0.0014200
  H       -2.1167010     0.3952880     0.0003870
  H       -1.2619210    -0.8979260    -0.8945960
  H       -1.2615120    -0.8984910     0.8942090
units angstrom
no_reorient  #important for SAPT in psi4, default
symmetry c1  #important for SAPT in psi4, default
}

set PROPERTIES_ORIGIN ["COM"]
properties('MP2/aug-cc-pvtz', properties = ['dipole'])
--------------------------------------------------------------------------

    Molecular point group: c1
  Charge       = 1
  Multiplicity = 1
  Basis Set: AUG-CC-PVTZ
    Blend: AUG-CC-PVTZ
  Basis Set: (AUG-CC-PVTZ AUX)
    Blend: AUG-CC-PVTZ-JKFIT

    Orbital Energies [Eh]
    ---------------------

    Doubly Occupied:

       1A    -15.894373     2A    -11.477890     3A    -11.475028
       4A     -1.514948     5A     -1.186550     6A     -1.135184
       7A     -0.981730     8A     -0.898253     9A     -0.845823
      10A     -0.800372    11A     -0.765984    12A     -0.765241
      13A     -0.718394

  @DF-RHF Final Energy:  -134.65744756623266

   => Energetics <=

    Nuclear Repulsion Energy =             91.1426079350052731
    One-Electron Energy =                -354.6805720613965605
    Two-Electron Energy =                 128.8805165601586111
    Total Energy =                       -134.6574475662326620
  Basis Set: (AUG-CC-PVTZ AUX)
    Blend: AUG-CC-PVTZ-RI
    Molecular point group: c1

    Geometry (in Angstrom), charge = 1, multiplicity = 1:

       Center              X                  Y                   Z               Mass
    ------------   -----------------  -----------------  -----------------  -----------------
         N            0.015693731223     0.555019667121     0.000011907231    14.003074004430
         C            1.215246431223    -0.350937732879    -0.000003692769    12.000000000000
         C           -1.244107268777    -0.265054332879    -0.000004092769    12.000000000000
         H            0.015694731223     1.176186667121     0.819625907231     1.007825032230
         H            0.015695731223     1.176160667121    -0.819680092769     1.007825032230
         H            1.278077731223    -0.885062332879     0.895107907231     1.007825032230
         H            1.276758731223    -0.887090332879    -0.893702092769     1.007825032230
         H            2.132391731223     0.407434667121    -0.001421092769     1.007825032230
         H           -2.101000268777     0.407412667121     0.000385907231     1.007825032230
         H           -1.246220268777    -0.885801332879    -0.894597092769     1.007825032230
         H           -1.245811268777    -0.886366332879     0.894207907231     1.007825032230

  Basis Set: AUG-CC-PVTZ
    Blend: AUG-CC-PVTZ
  Basis Set: (AUG-CC-PVTZ AUX)
    Blend: AUG-CC-PVTZ-JKFIT
	 Reference Energy          =    -134.6574475662326620 [Eh]
	 Singles Energy            =      -0.0000000000000000 [Eh]
	 Same-Spin Energy          =      -0.1306273236391114 [Eh]
	 Opposite-Spin Energy      =      -0.5024486023919477 [Eh]
	 Correlation Energy        =      -0.6330759260310591 [Eh]
	 Total Energy              =    -135.2905234922637305 [Eh]

	 ================> DF-SCS-MP2 Energies <==================
	-----------------------------------------------------------
	 SCS Same-Spin Scale       =       0.3333333333333333 [-]
	 SCS Opposite-Spin Scale   =       1.2000000000000000 [-]
	 SCS Same-Spin Energy      =      -0.0435424412130371 [Eh]
	 SCS Opposite-Spin Energy  =      -0.6029383228703372 [Eh]
	 SCS Correlation Energy    =      -0.6464807640833744 [Eh]
	 SCS Total Energy          =    -135.3039283303160403 [Eh]
	-----------------------------------------------------------

  Dipole Moment: [D]
     X:     0.0530      Y:     1.5046      Z:    -0.0000     Total:     1.5056

*** Psi4 exiting successfully. Buy a developer a beer!
