                               Psi4 1.3.2 release

  ==> Input File <==

--------------------------------------------------------------------------
#psi4
#
memory 32 gb

molecule  {
1 1
  N       -0.0000070     0.5428950     0.0000130
  C        1.3436283    -0.3317333    -0.0000019
  C       -1.2598080    -0.2771790    -0.0000030
  H       -0.0000060     1.1640620     0.8196270
  H       -0.0000050     1.1640360    -0.8196790
  H        1.2623770    -0.8971870     0.8951090
  H        1.2610580    -0.8992150    -0.8937010
  H        2.1166910     0.3953100    -0.0014200
  H       -2.1167010     0.3952880     0.0003870
  H       -1.2619210    -0.8979260    -0.8945960
  H       -1.2615120    -0.8984910     0.8942090
units angstrom
no_reorient  #important for SAPT in psi4, default
symmetry c1  #important for SAPT in psi4, default
}

set PROPERTIES_ORIGIN ["COM"]
properties('MP2/aug-cc-pvtz', properties = ['dipole'])
--------------------------------------------------------------------------

    Molecular point group: c1
  Charge       = 1
  Multiplicity = 1
  Basis Set: AUG-CC-PVTZ
    Blend: AUG-CC-PVTZ
  Basis Set: (AUG-CC-PVTZ AUX)
    Blend: AUG-CC-PVTZ-JKFIT

    Orbital Energies [Eh]
    ---------------------

    Doubly Occupied:

       1A    -15.883849     2A    -11.482235     3A    -11.472113
       4A     -1.491652     5A     -1.187130     6A     -1.130161
       7A     -0.966105     8A     -0.888900     9A     -0.828086
      10A     -0.795368    11A     -0.781078    12A     -0.760194
      13A     -0.740758

  @DF-RHF Final Energy:  -134.66266610496092

   => Energetics <=

    Nuclear Repulsion Energy =             89.7758949266392818
    One-Electron Energy =                -352.0618630974952907
    Two-Electron Energy =                 127.6233020658950750
    Total Energy =                       -134.6626661049609197
  Basis Set: (AUG-CC-PVTZ AUX)
    Blend: AUG-CC-PVTZ-RI
    Molecular point group: c1

    Geometry (in Angstrom), charge = 1, multiplicity = 1:

       Center              X                  Y                   Z               Mass
    ------------   -----------------  -----------------  -----------------  -----------------
         N           -0.021839447824     0.546858510120     0.000011724882    14.003074004430
         C            1.321795852176    -0.327769789880    -0.000003175118    12.000000000000
         C           -1.281640447824    -0.273215489880    -0.000004275118    12.000000000000
         H           -0.021838447824     1.168025510120     0.819625724882     1.007825032230
         H           -0.021837447824     1.167999510120    -0.819680275118     1.007825032230
         H            1.240544552176    -0.893223489880     0.895107724882     1.007825032230
         H            1.239225552176    -0.895251489880    -0.893702275118     1.007825032230
         H            2.094858552176     0.399273510120    -0.001421275118     1.007825032230
         H           -2.138533447824     0.399251510120     0.000385724882     1.007825032230
         H           -1.283753447824    -0.893962489880    -0.894597275118     1.007825032230
         H           -1.283344447824    -0.894527489880     0.894207724882     1.007825032230

  Basis Set: AUG-CC-PVTZ
    Blend: AUG-CC-PVTZ
  Basis Set: (AUG-CC-PVTZ AUX)
    Blend: AUG-CC-PVTZ-JKFIT
	 Reference Energy          =    -134.6626661049609197 [Eh]
	 Singles Energy            =      -0.0000000000000000 [Eh]
	 Same-Spin Energy          =      -0.1298600086196053 [Eh]
	 Opposite-Spin Energy      =      -0.5020369973211870 [Eh]
	 Correlation Energy        =      -0.6318970059407922 [Eh]
	 Total Energy              =    -135.2945631109017199 [Eh]

	 ================> DF-SCS-MP2 Energies <==================
	-----------------------------------------------------------
	 SCS Same-Spin Scale       =       0.3333333333333333 [-]
	 SCS Opposite-Spin Scale   =       1.2000000000000000 [-]
	 SCS Same-Spin Energy      =      -0.0432866695398684 [Eh]
	 SCS Opposite-Spin Energy  =      -0.6024443967854244 [Eh]
	 SCS Correlation Energy    =      -0.6457310663252929 [Eh]
	 SCS Total Energy          =    -135.3083971712862024 [Eh]
	-----------------------------------------------------------

  Dipole Moment: [D]
     X:     0.1285      Y:     1.3782      Z:    -0.0001     Total:     1.3842

*** Psi4 exiting successfully. Buy a developer a beer!
