                               Psi4 1.3.2 release

  ==> Input File <==

--------------------------------------------------------------------------
#psi4
#
memory 32 gb

molecule  {
1 1
  N       -0.0000070     0.5428950     0.0000130
  C        1.3386396    -0.1409988     0.0000016
  C       -1.2598080    -0.2771790    -0.0000030
  H       -0.0000060     1.1640620     0.8196270
  H       -0.0000050     1.1640360    -0.8196790
  H        1.2623770    -0.8971870     0.8951090
  H        1.2610580    -0.8992150    -0.8937010
  H        2.1166910     0.3953100    -0.0014200
  H       -2.1167010     0.3952880     0.0003870
  H       -1.2619210    -0.8979260    -0.8945960
  H       -1.2615120    -0.8984910     0.8942090
units angstrom
no_reorient  #important for SAPT in psi4, default
symmetry c1  #important for SAPT in psi4, default
}

set PROPERTIES_ORIGIN ["COM"]
properties('MP2/aug-cc-pvtz', properties = ['dipole'])
--------------------------------------------------------------------------

    Molecular point group: c1
  Charge       = 1
  Multiplicity = 1
  Basis Set: AUG-CC-PVTZ
    Blend: AUG-CC-PVTZ
  Basis Set: (AUG-CC-PVTZ AUX)
    Blend: AUG-CC-PVTZ-JKFIT

    Orbital Energies [Eh]
    ---------------------

    Doubly Occupied:

       1A    -15.894706     2A    -11.479891     3A    -11.479511
       4A     -1.514779     5A     -1.198111     6A     -1.125251
       7A     -0.977331     8A     -0.923868     9A     -0.842810
      10A     -0.786810    11A     -0.771042    12A     -0.755853
      13A     -0.718578

  @DF-RHF Final Energy:  -134.63524818589210

   => Energetics <=

    Nuclear Repulsion Energy =             90.6633354596582564
    One-Electron Energy =                -353.6600844205501630
    Two-Electron Energy =                 128.3615007749998256
    Total Energy =                       -134.6352481858920953
  Basis Set: (AUG-CC-PVTZ AUX)
    Blend: AUG-CC-PVTZ-RI
    Molecular point group: c1

    Geometry (in Angstrom), charge = 1, multiplicity = 1:

       Center              X                  Y                   Z               Mass
    ------------   -----------------  -----------------  -----------------  -----------------
         N           -0.020539903186     0.497172620645     0.000010813140    14.003074004430
         C            1.318106696814    -0.186721179355    -0.000000586860    12.000000000000
         C           -1.280340903186    -0.322901379355    -0.000005186860    12.000000000000
         H           -0.020538903186     1.118339620645     0.819624813140     1.007825032230
         H           -0.020537903186     1.118313620645    -0.819681186860     1.007825032230
         H            1.241844096814    -0.942909379355     0.895106813140     1.007825032230
         H            1.240525096814    -0.944937379355    -0.893703186860     1.007825032230
         H            2.096158096814     0.349587620645    -0.001422186860     1.007825032230
         H           -2.137233903186     0.349565620645     0.000384813140     1.007825032230
         H           -1.282453903186    -0.943648379355    -0.894598186860     1.007825032230
         H           -1.282044903186    -0.944213379355     0.894206813140     1.007825032230

  Basis Set: AUG-CC-PVTZ
    Blend: AUG-CC-PVTZ
  Basis Set: (AUG-CC-PVTZ AUX)
    Blend: AUG-CC-PVTZ-JKFIT
	 Reference Energy          =    -134.6352481858920953 [Eh]
	 Singles Energy            =      -0.0000000000000000 [Eh]
	 Same-Spin Energy          =      -0.1308593494212730 [Eh]
	 Opposite-Spin Energy      =      -0.5031671154105639 [Eh]
	 Correlation Energy        =      -0.6340264648318370 [Eh]
	 Total Energy              =    -135.2692746507239292 [Eh]

	 ================> DF-SCS-MP2 Energies <==================
	-----------------------------------------------------------
	 SCS Same-Spin Scale       =       0.3333333333333333 [-]
	 SCS Opposite-Spin Scale   =       1.2000000000000000 [-]
	 SCS Same-Spin Energy      =      -0.0436197831404243 [Eh]
	 SCS Opposite-Spin Energy  =      -0.6038005384926767 [Eh]
	 SCS Correlation Energy    =      -0.6474203216331010 [Eh]
	 SCS Total Energy          =    -135.2826685075251874 [Eh]
	-----------------------------------------------------------

  Dipole Moment: [D]
     X:    -0.1574      Y:     1.3222      Z:    -0.0001     Total:     1.3315

*** Psi4 exiting successfully. Buy a developer a beer!
