                               Psi4 1.3.2 release

  ==> Input File <==

--------------------------------------------------------------------------
#psi4
#
memory 32 gb

molecule  {
1 1
  N       -0.0000070     0.5428950     0.0000130
  C        1.2598200    -0.2771790    -0.0000010
  C       -1.2598080    -0.2771790    -0.0000030
  H       -0.0000060     1.1782716     0.8086613
  H       -0.0000050     1.1640360    -0.8196790
  H        1.2623770    -0.8971870     0.8951090
  H        1.2610580    -0.8992150    -0.8937010
  H        2.1166910     0.3953100    -0.0014200
  H       -2.1167010     0.3952880     0.0003870
  H       -1.2619210    -0.8979260    -0.8945960
  H       -1.2615120    -0.8984910     0.8942090
units angstrom
no_reorient  #important for SAPT in psi4, default
symmetry c1  #important for SAPT in psi4, default
}

set PROPERTIES_ORIGIN ["COM"]
properties('MP2/aug-cc-pvtz', properties = ['dipole'])
--------------------------------------------------------------------------

    Molecular point group: c1
  Charge       = 1
  Multiplicity = 1
  Basis Set: AUG-CC-PVTZ
    Blend: AUG-CC-PVTZ
  Basis Set: (AUG-CC-PVTZ AUX)
    Blend: AUG-CC-PVTZ-JKFIT

    Orbital Energies [Eh]
    ---------------------

    Doubly Occupied:

       1A    -15.893391     2A    -11.476304     3A    -11.476291
       4A     -1.513970     5A     -1.189591     6A     -1.130195
       7A     -0.977081     8A     -0.902681     9A     -0.843865
      10A     -0.776995    11A     -0.765845    12A     -0.758231
      13A     -0.751325

  @DF-RHF Final Energy:  -134.66941837825522

   => Energetics <=

    Nuclear Repulsion Energy =             90.9121841301441549
    One-Electron Energy =                -354.2516756544113719
    Two-Electron Energy =                 128.6700731460119869
    Total Energy =                       -134.6694183782552159
  Basis Set: (AUG-CC-PVTZ AUX)
    Blend: AUG-CC-PVTZ-RI
    Molecular point group: c1

    Geometry (in Angstrom), charge = 1, multiplicity = 1:

       Center              X                  Y                   Z               Mass
    ------------   -----------------  -----------------  -----------------  -----------------
         N           -0.000007582425     0.532336365350     0.000251398069    14.003074004430
         C            1.259819417575    -0.287737634650     0.000237398069    12.000000000000
         C           -1.259808582425    -0.287737634650     0.000235398069    12.000000000000
         H           -0.000006582425     1.167712965350     0.808899698069     1.007825032230
         H           -0.000005582425     1.153477365350    -0.819440601931     1.007825032230
         H            1.262376417575    -0.907745634650     0.895347398069     1.007825032230
         H            1.261057417575    -0.909773634650    -0.893462601931     1.007825032230
         H            2.116690417575     0.384751365350    -0.001181601931     1.007825032230
         H           -2.116701582425     0.384729365350     0.000625398069     1.007825032230
         H           -1.261921582425    -0.908484634650    -0.894357601931     1.007825032230
         H           -1.261512582425    -0.909049634650     0.894447398069     1.007825032230

  Basis Set: AUG-CC-PVTZ
    Blend: AUG-CC-PVTZ
  Basis Set: (AUG-CC-PVTZ AUX)
    Blend: AUG-CC-PVTZ-JKFIT
	 Reference Energy          =    -134.6694183782552159 [Eh]
	 Singles Energy            =      -0.0000000000000000 [Eh]
	 Same-Spin Energy          =      -0.1303748593904986 [Eh]
	 Opposite-Spin Energy      =      -0.5017108092494572 [Eh]
	 Correlation Energy        =      -0.6320856686399559 [Eh]
	 Total Energy              =    -135.3015040468951611 [Eh]

	 ================> DF-SCS-MP2 Energies <==================
	-----------------------------------------------------------
	 SCS Same-Spin Scale       =       0.3333333333333333 [-]
	 SCS Opposite-Spin Scale   =       1.2000000000000000 [-]
	 SCS Same-Spin Energy      =      -0.0434582864634995 [Eh]
	 SCS Opposite-Spin Energy  =      -0.6020529710993486 [Eh]
	 SCS Correlation Energy    =      -0.6455112575628482 [Eh]
	 SCS Total Energy          =    -135.3149296358180607 [Eh]
	-----------------------------------------------------------

  Dipole Moment: [D]
     X:     0.0000      Y:     1.4466      Z:    -0.0102     Total:     1.4467

*** Psi4 exiting successfully. Buy a developer a beer!
