                               Psi4 1.3.2 release

  ==> Input File <==

--------------------------------------------------------------------------
#psi4
#
memory 32 gb

molecule  {
1 1
  N       -0.0000070     0.5428950     0.0000130
  C        1.2437096    -0.3002506     0.0442848
  C       -1.2598080    -0.2771790    -0.0000030
  H       -0.0000060     1.1640620     0.8196270
  H       -0.0000050     1.1640360    -0.8196790
  H        1.2623770    -0.8971870     0.8951090
  H        1.2610580    -0.8992150    -0.8937010
  H        2.1166910     0.3953100    -0.0014200
  H       -2.1167010     0.3952880     0.0003870
  H       -1.2619210    -0.8979260    -0.8945960
  H       -1.2615120    -0.8984910     0.8942090
units angstrom
no_reorient  #important for SAPT in psi4, default
symmetry c1  #important for SAPT in psi4, default
}

set PROPERTIES_ORIGIN ["COM"]
properties('MP2/aug-cc-pvtz', properties = ['dipole'])
--------------------------------------------------------------------------

    Molecular point group: c1
  Charge       = 1
  Multiplicity = 1
  Basis Set: AUG-CC-PVTZ
    Blend: AUG-CC-PVTZ
  Basis Set: (AUG-CC-PVTZ AUX)
    Blend: AUG-CC-PVTZ-JKFIT

    Orbital Energies [Eh]
    ---------------------

    Doubly Occupied:

       1A    -15.893689     2A    -11.476657     3A    -11.475857
       4A     -1.514261     5A     -1.188803     6A     -1.131218
       7A     -0.979527     8A     -0.900110     9A     -0.846725
      10A     -0.784495    11A     -0.766928    12A     -0.757325
      13A     -0.741409

  @DF-RHF Final Energy:  -134.66596650577515

   => Energetics <=

    Nuclear Repulsion Energy =             90.9804357214997736
    One-Electron Energy =                -354.3787951849415663
    Two-Electron Energy =                 128.7323929576666615
    Total Energy =                       -134.6659665057751454
  Basis Set: (AUG-CC-PVTZ AUX)
    Blend: AUG-CC-PVTZ-RI
    Molecular point group: c1

    Geometry (in Angstrom), charge = 1, multiplicity = 1:

       Center              X                  Y                   Z               Mass
    ------------   -----------------  -----------------  -----------------  -----------------
         N            0.004189138954     0.538657340680    -0.011524856499    14.003074004430
         C            1.247905738954    -0.304488259320     0.032746943501    12.000000000000
         C           -1.255611861046    -0.281416659320    -0.011540856499    12.000000000000
         H            0.004190138954     1.159824340680     0.808089143501     1.007825032230
         H            0.004191138954     1.159798340680    -0.831216856499     1.007825032230
         H            1.266573138954    -0.901424659320     0.883571143501     1.007825032230
         H            1.265254138954    -0.903452659320    -0.905238856499     1.007825032230
         H            2.120887138954     0.391072340680    -0.012957856499     1.007825032230
         H           -2.112504861046     0.391050340680    -0.011150856499     1.007825032230
         H           -1.257724861046    -0.902163659320    -0.906133856499     1.007825032230
         H           -1.257315861046    -0.902728659320     0.882671143501     1.007825032230

  Basis Set: AUG-CC-PVTZ
    Blend: AUG-CC-PVTZ
  Basis Set: (AUG-CC-PVTZ AUX)
    Blend: AUG-CC-PVTZ-JKFIT
	 Reference Energy          =    -134.6659665057751454 [Eh]
	 Singles Energy            =      -0.0000000000000000 [Eh]
	 Same-Spin Energy          =      -0.1304406478142296 [Eh]
	 Opposite-Spin Energy      =      -0.5019070434111165 [Eh]
	 Correlation Energy        =      -0.6323476912253461 [Eh]
	 Total Energy              =    -135.2983141970004795 [Eh]

	 ================> DF-SCS-MP2 Energies <==================
	-----------------------------------------------------------
	 SCS Same-Spin Scale       =       0.3333333333333333 [-]
	 SCS Opposite-Spin Scale   =       1.2000000000000000 [-]
	 SCS Same-Spin Energy      =      -0.0434802159380765 [Eh]
	 SCS Opposite-Spin Energy  =      -0.6022884520933397 [Eh]
	 SCS Correlation Energy    =      -0.6457686680314163 [Eh]
	 SCS Total Energy          =    -135.3117351738065679 [Eh]
	-----------------------------------------------------------

  Dipole Moment: [D]
     X:     0.0165      Y:     1.4558      Z:    -0.0376     Total:     1.4563

*** Psi4 exiting successfully. Buy a developer a beer!
