                               Psi4 1.3.2 release

  ==> Input File <==

--------------------------------------------------------------------------
#psi4
#
memory 32 gb

molecule  {
1 1
  N       -0.0000070     0.5428950     0.0000130
  C        1.2304324    -0.3206468    -0.0000018
  C       -1.2598080    -0.2771790    -0.0000030
  H       -0.0000060     1.1640620     0.8196270
  H       -0.0000050     1.1640360    -0.8196790
  H        1.2623770    -0.8971870     0.8951090
  H        1.2610580    -0.8992150    -0.8937010
  H        2.1166910     0.3953100    -0.0014200
  H       -2.1167010     0.3952880     0.0003870
  H       -1.2619210    -0.8979260    -0.8945960
  H       -1.2615120    -0.8984910     0.8942090
units angstrom
no_reorient  #important for SAPT in psi4, default
symmetry c1  #important for SAPT in psi4, default
}

set PROPERTIES_ORIGIN ["COM"]
properties('MP2/aug-cc-pvtz', properties = ['dipole'])
--------------------------------------------------------------------------

    Molecular point group: c1
  Charge       = 1
  Multiplicity = 1
  Basis Set: AUG-CC-PVTZ
    Blend: AUG-CC-PVTZ
  Basis Set: (AUG-CC-PVTZ AUX)
    Blend: AUG-CC-PVTZ-JKFIT

    Orbital Energies [Eh]
    ---------------------

    Doubly Occupied:

       1A    -15.893735     2A    -11.476677     3A    -11.475523
       4A     -1.514342     5A     -1.187884     6A     -1.132204
       7A     -0.980135     8A     -0.898970     9A     -0.845190
      10A     -0.787525    11A     -0.765304    12A     -0.763415
      13A     -0.736001

  @DF-RHF Final Energy:  -134.66627626611816

   => Energetics <=

    Nuclear Repulsion Energy =             91.0286982019445503
    One-Electron Energy =                -354.4761402851988237
    Two-Electron Energy =                 128.7811658171360989
    Total Energy =                       -134.6662762661181603
  Basis Set: (AUG-CC-PVTZ AUX)
    Blend: AUG-CC-PVTZ-RI
    Molecular point group: c1

    Geometry (in Angstrom), charge = 1, multiplicity = 1:

       Center              X                  Y                   Z               Mass
    ------------   -----------------  -----------------  -----------------  -----------------
         N            0.007647818384     0.543970502897     0.000011698832    14.003074004430
         C            1.238087218384    -0.319571297103    -0.000003101168    12.000000000000
         C           -1.252153181616    -0.276103497103    -0.000004301168    12.000000000000
         H            0.007648818384     1.165137502897     0.819625698832     1.007825032230
         H            0.007649818384     1.165111502897    -0.819680301168     1.007825032230
         H            1.270031818384    -0.896111497103     0.895107698832     1.007825032230
         H            1.268712818384    -0.898139497103    -0.893702301168     1.007825032230
         H            2.124345818384     0.396385502897    -0.001421301168     1.007825032230
         H           -2.109046181616     0.396363502897     0.000385698832     1.007825032230
         H           -1.254266181616    -0.896850497103    -0.894597301168     1.007825032230
         H           -1.253857181616    -0.897415497103     0.894207698832     1.007825032230

  Basis Set: AUG-CC-PVTZ
    Blend: AUG-CC-PVTZ
  Basis Set: (AUG-CC-PVTZ AUX)
    Blend: AUG-CC-PVTZ-JKFIT
	 Reference Energy          =    -134.6662762661181603 [Eh]
	 Singles Energy            =      -0.0000000000000000 [Eh]
	 Same-Spin Energy          =      -0.1304472910675849 [Eh]
	 Opposite-Spin Energy      =      -0.5019260340161842 [Eh]
	 Correlation Energy        =      -0.6323733250837691 [Eh]
	 Total Energy              =    -135.2986495912019222 [Eh]

	 ================> DF-SCS-MP2 Energies <==================
	-----------------------------------------------------------
	 SCS Same-Spin Scale       =       0.3333333333333333 [-]
	 SCS Opposite-Spin Scale   =       1.2000000000000000 [-]
	 SCS Same-Spin Energy      =      -0.0434824303558616 [Eh]
	 SCS Opposite-Spin Energy  =      -0.6023112408194210 [Eh]
	 SCS Correlation Energy    =      -0.6457936711752826 [Eh]
	 SCS Total Energy          =    -135.3120699372934439 [Eh]
	-----------------------------------------------------------

  Dipole Moment: [D]
     X:     0.0308      Y:     1.4696      Z:    -0.0001     Total:     1.4699

*** Psi4 exiting successfully. Buy a developer a beer!
