                               Psi4 1.3.2 release

  ==> Input File <==

--------------------------------------------------------------------------
#psi4
#
memory 32 gb

molecule  {
1 1
  N       -0.0000070     0.5428950     0.0000130
  C        1.2598200    -0.2771790    -0.0000010
  C       -1.2598080    -0.2771790    -0.0000030
  H       -0.0000060     1.1640620     0.8196270
  H       -0.0000054     1.0432444    -0.6602758
  H        1.2623770    -0.8971870     0.8951090
  H        1.2610580    -0.8992150    -0.8937010
  H        2.1166910     0.3953100    -0.0014200
  H       -2.1167010     0.3952880     0.0003870
  H       -1.2619210    -0.8979260    -0.8945960
  H       -1.2615120    -0.8984910     0.8942090
units angstrom
no_reorient  #important for SAPT in psi4, default
symmetry c1  #important for SAPT in psi4, default
}

set PROPERTIES_ORIGIN ["COM"]
properties('MP2/aug-cc-pvtz', properties = ['dipole'])
--------------------------------------------------------------------------

    Molecular point group: c1
  Charge       = 1
  Multiplicity = 1
  Basis Set: AUG-CC-PVTZ
    Blend: AUG-CC-PVTZ
  Basis Set: (AUG-CC-PVTZ AUX)
    Blend: AUG-CC-PVTZ-JKFIT

    Orbital Energies [Eh]
    ---------------------

    Doubly Occupied:

       1A    -15.877034     2A    -11.478675     3A    -11.478662
       4A     -1.554785     5A     -1.192938     6A     -1.157567
       7A     -1.016935     8A     -0.909508     9A     -0.848898
      10A     -0.779464    11A     -0.775881    12A     -0.765225
      13A     -0.753928

  @DF-RHF Final Energy:  -134.62947281550541

   => Energetics <=

    Nuclear Repulsion Energy =             92.1026597882541580
    One-Electron Energy =                -356.2852637956129911
    Two-Electron Energy =                 129.5531311918533959
    Total Energy =                       -134.6294728155054088
  Basis Set: (AUG-CC-PVTZ AUX)
    Blend: AUG-CC-PVTZ-RI
    Molecular point group: c1

    Geometry (in Angstrom), charge = 1, multiplicity = 1:

       Center              X                  Y                   Z               Mass
    ------------   -----------------  -----------------  -----------------  -----------------
         N           -0.000007573674     0.535289922221    -0.003475933504    14.003074004430
         C            1.259819426326    -0.284784077779    -0.003489933504    12.000000000000
         C           -1.259808573674    -0.284784077779    -0.003491933504    12.000000000000
         H           -0.000006573674     1.156456922221     0.816138066496     1.007825032230
         H           -0.000005973674     1.035639322221    -0.663764733504     1.007825032230
         H            1.262376426326    -0.904792077779     0.891620066496     1.007825032230
         H            1.261057426326    -0.906820077779    -0.897189933504     1.007825032230
         H            2.116690426326     0.387704922221    -0.004908933504     1.007825032230
         H           -2.116701573674     0.387682922221    -0.003101933504     1.007825032230
         H           -1.261921573674    -0.905531077779    -0.898084933504     1.007825032230
         H           -1.261512573674    -0.906096077779     0.890720066496     1.007825032230

  Basis Set: AUG-CC-PVTZ
    Blend: AUG-CC-PVTZ
  Basis Set: (AUG-CC-PVTZ AUX)
    Blend: AUG-CC-PVTZ-JKFIT
	 Reference Energy          =    -134.6294728155054088 [Eh]
	 Singles Energy            =      -0.0000000000000000 [Eh]
	 Same-Spin Energy          =      -0.1294245189085273 [Eh]
	 Opposite-Spin Energy      =      -0.4990343693617328 [Eh]
	 Correlation Energy        =      -0.6284588882702602 [Eh]
	 Total Energy              =    -135.2579317037756823 [Eh]

	 ================> DF-SCS-MP2 Energies <==================
	-----------------------------------------------------------
	 SCS Same-Spin Scale       =       0.3333333333333333 [-]
	 SCS Opposite-Spin Scale   =       1.2000000000000000 [-]
	 SCS Same-Spin Energy      =      -0.0431415063028424 [Eh]
	 SCS Opposite-Spin Energy  =      -0.5988412432340794 [Eh]
	 SCS Correlation Energy    =      -0.6419827495369218 [Eh]
	 SCS Total Energy          =    -135.2714555650423165 [Eh]
	-----------------------------------------------------------

  Dipole Moment: [D]
     X:     0.0000      Y:     1.2754      Z:     0.1941     Total:     1.2901

*** Psi4 exiting successfully. Buy a developer a beer!
