                               Psi4 1.3.2 release

  ==> Input File <==

--------------------------------------------------------------------------
#psi4
#
memory 32 gb

molecule  {
1 1
  N       -0.0000070     0.5428950     0.0000130
  C        1.2876727    -0.2327121    -0.0000002
  C       -1.2598080    -0.2771790    -0.0000030
  H       -0.0000060     1.1640620     0.8196270
  H       -0.0000050     1.1640360    -0.8196790
  H        1.2623770    -0.8971870     0.8951090
  H        1.2610580    -0.8992150    -0.8937010
  H        2.1166910     0.3953100    -0.0014200
  H       -2.1167010     0.3952880     0.0003870
  H       -1.2619210    -0.8979260    -0.8945960
  H       -1.2615120    -0.8984910     0.8942090
units angstrom
no_reorient  #important for SAPT in psi4, default
symmetry c1  #important for SAPT in psi4, default
}

set PROPERTIES_ORIGIN ["COM"]
properties('MP2/aug-cc-pvtz', properties = ['dipole'])
--------------------------------------------------------------------------

    Molecular point group: c1
  Charge       = 1
  Multiplicity = 1
  Basis Set: AUG-CC-PVTZ
    Blend: AUG-CC-PVTZ
  Basis Set: (AUG-CC-PVTZ AUX)
    Blend: AUG-CC-PVTZ-JKFIT

    Orbital Energies [Eh]
    ---------------------

    Doubly Occupied:

       1A    -15.893468     2A    -11.477225     3A    -11.476603
       4A     -1.513986     5A     -1.191919     6A     -1.127264
       7A     -0.977991     8A     -0.907246     9A     -0.842450
      10A     -0.772328    11A     -0.770586    12A     -0.758817
      13A     -0.747871

  @DF-RHF Final Energy:  -134.66598556813372

   => Energetics <=

    Nuclear Repulsion Energy =             90.8225476388736439
    One-Electron Energy =                -354.0615563123220682
    Two-Electron Energy =                 128.5730231053147179
    Total Energy =                       -134.6659855681337206
  Basis Set: (AUG-CC-PVTZ AUX)
    Blend: AUG-CC-PVTZ-RI
    Molecular point group: c1

    Geometry (in Angstrom), charge = 1, multiplicity = 1:

       Center              X                  Y                   Z               Mass
    ------------   -----------------  -----------------  -----------------  -----------------
         N           -0.007263145387     0.521063719985     0.000011282036    14.003074004430
         C            1.280416554613    -0.254543380015    -0.000001917964    12.000000000000
         C           -1.267064145387    -0.299010280015    -0.000004717964    12.000000000000
         H           -0.007262145387     1.142230719985     0.819625282036     1.007825032230
         H           -0.007261145387     1.142204719985    -0.819680717964     1.007825032230
         H            1.255120854613    -0.919018280015     0.895107282036     1.007825032230
         H            1.253801854613    -0.921046280015    -0.893702717964     1.007825032230
         H            2.109434854613     0.373478719985    -0.001421717964     1.007825032230
         H           -2.123957145387     0.373456719985     0.000385282036     1.007825032230
         H           -1.269177145387    -0.919757280015    -0.894597717964     1.007825032230
         H           -1.268768145387    -0.920322280015     0.894207282036     1.007825032230

  Basis Set: AUG-CC-PVTZ
    Blend: AUG-CC-PVTZ
  Basis Set: (AUG-CC-PVTZ AUX)
    Blend: AUG-CC-PVTZ-JKFIT
	 Reference Energy          =    -134.6659855681337206 [Eh]
	 Singles Energy            =      -0.0000000000000000 [Eh]
	 Same-Spin Energy          =      -0.1304209982704271 [Eh]
	 Opposite-Spin Energy      =      -0.5018442795237633 [Eh]
	 Correlation Energy        =      -0.6322652777941904 [Eh]
	 Total Energy              =    -135.2982508459279245 [Eh]

	 ================> DF-SCS-MP2 Energies <==================
	-----------------------------------------------------------
	 SCS Same-Spin Scale       =       0.3333333333333333 [-]
	 SCS Opposite-Spin Scale   =       1.2000000000000000 [-]
	 SCS Same-Spin Energy      =      -0.0434736660901424 [Eh]
	 SCS Opposite-Spin Energy  =      -0.6022131354285160 [Eh]
	 SCS Correlation Energy    =      -0.6456868015186583 [Eh]
	 SCS Total Energy          =    -135.3116723696523707 [Eh]
	-----------------------------------------------------------

  Dipole Moment: [D]
     X:    -0.0409      Y:     1.3975      Z:    -0.0001     Total:     1.3981

*** Psi4 exiting successfully. Buy a developer a beer!
