                               Psi4 1.4a3.dev225

  ==> Input File <==

--------------------------------------------------------------------------
#psi4
#
memory 32 gb

molecule  {
1 1
  N        0.0000000     0.5403170    -0.0000070
  C       -1.2521080    -0.2767230     0.0000100
  C        1.2521080    -0.2767230    -0.0000030
  H       -0.0000040     1.1617250    -0.8174450
  H        0.0000039     1.1496420     0.8014945
  H       -1.2523940    -0.8957080    -0.8943280
  H       -1.2523830    -0.8956890     0.8943600
  H       -2.1045790     0.3988920     0.0000070
  H        2.1045790     0.3988920    -0.0000120
  H        1.2523910    -0.8956900     0.8943470
  H        1.2523860    -0.8957070    -0.8943410
units angstrom
no_reorient  #important for SAPT in psi4, default
symmetry c1  #important for SAPT in psi4, default
}

set PROPERTIES_ORIGIN ["COM"]
properties('MP2/aug-cc-pvtz', properties = ['dipole'])
--------------------------------------------------------------------------

    Molecular point group: c1
  Charge       = 1
  Multiplicity = 1
  Basis Set: AUG-CC-PVTZ
    Blend: AUG-CC-PVTZ
  Basis Set: (AUG-CC-PVTZ AUX)
    Blend: AUG-CC-PVTZ-JKFIT

    Orbital Energies [Eh]
    ---------------------

    Doubly Occupied:

       1A    -15.891932     2A    -11.475579     3A    -11.475565
       4A     -1.521577     5A     -1.192282     6A     -1.132826
       7A     -0.985516     8A     -0.905405     9A     -0.846612
      10A     -0.778105    11A     -0.767430    12A     -0.760192
      13A     -0.751813

  @DF-RHF Final Energy:  -134.67010896733754

   => Energetics <=

    Nuclear Repulsion Energy =             91.3929718894611511
    One-Electron Energy =                -355.1564912288760070
    Two-Electron Energy =                 129.0934103720773294
    Total Energy =                       -134.6701089673375407
  Basis Set: (AUG-CC-PVTZ AUX)
    Blend: AUG-CC-PVTZ-RI
    Molecular point group: c1

    Geometry (in Angstrom), charge = 1, multiplicity = 1:

       Center              X                  Y                   Z               Mass
    ------------   -----------------  -----------------  -----------------  -----------------
         N            0.000000002188     0.530604829880     0.000341547519    14.003074004430
         C           -1.252107997812    -0.286435170120     0.000358547519    12.000000000000
         C            1.252108002188    -0.286435170120     0.000345547519    12.000000000000
         H           -0.000003997812     1.152012829880    -0.817096452481     1.007825032230
         H            0.000003902188     1.139929829880     0.801843047519     1.007825032230
         H           -1.252393997812    -0.905420170120    -0.893979452481     1.007825032230
         H           -1.252382997812    -0.905401170120     0.894708547519     1.007825032230
         H           -2.104578997812     0.389179829880     0.000355547519     1.007825032230
         H            2.104579002188     0.389179829880     0.000336547519     1.007825032230
         H            1.252391002188    -0.905402170120     0.894695547519     1.007825032230
         H            1.252386002188    -0.905419170120    -0.893992452481     1.007825032230

  Basis Set: AUG-CC-PVTZ
    Blend: AUG-CC-PVTZ
  Basis Set: (AUG-CC-PVTZ AUX)
    Blend: AUG-CC-PVTZ-JKFIT
	 Reference Energy          =    -134.6701089673375407 [Eh]
	 Singles Energy            =      -0.0000000000000000 [Eh]
	 Same-Spin Energy          =      -0.1303628892302409 [Eh]
	 Opposite-Spin Energy      =      -0.5012405491495917 [Eh]
	 Correlation Energy        =      -0.6316034383798326 [Eh]
	 Total Energy              =    -135.3017124057173817 [Eh]

	 ================> DF-SCS-MP2 Energies <==================
	-----------------------------------------------------------
	 SCS Same-Spin Scale       =       0.3333333333333333 [-]
	 SCS Opposite-Spin Scale   =       1.2000000000000000 [-]
	 SCS Same-Spin Energy      =      -0.0434542964100803 [Eh]
	 SCS Opposite-Spin Energy  =      -0.6014886589795100 [Eh]
	 SCS Correlation Energy    =      -0.6449429553895902 [Eh]
	 SCS Total Energy          =    -135.3150519227271218 [Eh]
	-----------------------------------------------------------

  Dipole Moment: [D]
     X:    -0.0000      Y:     1.4328      Z:    -0.0202     Total:     1.4330

*** Psi4 exiting successfully. Buy a developer a beer!
