                               Psi4 1.3.2 release

  ==> Input File <==

--------------------------------------------------------------------------
#psi4
#
memory 32 gb

molecule  {
1 1
  N       -0.0000070     0.5428950     0.0000130
  C        1.2739404    -0.2550671    -0.0000006
  C       -1.2598080    -0.2771790    -0.0000030
  H       -0.0000060     1.1640620     0.8196270
  H       -0.0000050     1.1640360    -0.8196790
  H        1.2623770    -0.8971870     0.8951090
  H        1.2610580    -0.8992150    -0.8937010
  H        2.1166910     0.3953100    -0.0014200
  H       -2.1167010     0.3952880     0.0003870
  H       -1.2619210    -0.8979260    -0.8945960
  H       -1.2615120    -0.8984910     0.8942090
units angstrom
no_reorient  #important for SAPT in psi4, default
symmetry c1  #important for SAPT in psi4, default
}

set PROPERTIES_ORIGIN ["COM"]
properties('MP2/aug-cc-pvtz', properties = ['dipole'])
--------------------------------------------------------------------------

    Molecular point group: c1
  Charge       = 1
  Multiplicity = 1
  Basis Set: AUG-CC-PVTZ
    Blend: AUG-CC-PVTZ
  Basis Set: (AUG-CC-PVTZ AUX)
    Blend: AUG-CC-PVTZ-JKFIT

    Orbital Energies [Eh]
    ---------------------

    Doubly Occupied:

       1A    -15.893400     2A    -11.476710     3A    -11.476336
       4A     -1.513967     5A     -1.190722     6A     -1.128306
       7A     -0.978389     8A     -0.904301     9A     -0.843135
      10A     -0.774030    11A     -0.766788    12A     -0.756636
      13A     -0.753925

  @DF-RHF Final Energy:  -134.66861431352629

   => Energetics <=

    Nuclear Repulsion Energy =             90.8704632196369886
    One-Electron Energy =                -354.1648665018975635
    Two-Electron Energy =                 128.6257889687342981
    Total Energy =                       -134.6686143135262910
  Basis Set: (AUG-CC-PVTZ AUX)
    Blend: AUG-CC-PVTZ-RI
    Molecular point group: c1

    Geometry (in Angstrom), charge = 1, multiplicity = 1:

       Center              X                  Y                   Z               Mass
    ------------   -----------------  -----------------  -----------------  -----------------
         N           -0.003685913476     0.526887145004     0.000011386235    14.003074004430
         C            1.270261486524    -0.271074954996    -0.000002213765    12.000000000000
         C           -1.263486913476    -0.293186854996    -0.000004613765    12.000000000000
         H           -0.003684913476     1.148054145004     0.819625386235     1.007825032230
         H           -0.003683913476     1.148028145004    -0.819680613765     1.007825032230
         H            1.258698086524    -0.913194854996     0.895107386235     1.007825032230
         H            1.257379086524    -0.915222854996    -0.893702613765     1.007825032230
         H            2.113012086524     0.379302145004    -0.001421613765     1.007825032230
         H           -2.120379913476     0.379280145004     0.000385386235     1.007825032230
         H           -1.265599913476    -0.913933854996    -0.894597613765     1.007825032230
         H           -1.265190913476    -0.914498854996     0.894207386235     1.007825032230

  Basis Set: AUG-CC-PVTZ
    Blend: AUG-CC-PVTZ
  Basis Set: (AUG-CC-PVTZ AUX)
    Blend: AUG-CC-PVTZ-JKFIT
	 Reference Energy          =    -134.6686143135262910 [Eh]
	 Singles Energy            =      -0.0000000000000000 [Eh]
	 Same-Spin Energy          =      -0.1303849312898849 [Eh]
	 Opposite-Spin Energy      =      -0.5017389954266575 [Eh]
	 Correlation Energy        =      -0.6321239267165424 [Eh]
	 Total Energy              =    -135.3007382402428220 [Eh]

	 ================> DF-SCS-MP2 Energies <==================
	-----------------------------------------------------------
	 SCS Same-Spin Scale       =       0.3333333333333333 [-]
	 SCS Opposite-Spin Scale   =       1.2000000000000000 [-]
	 SCS Same-Spin Energy      =      -0.0434616437632950 [Eh]
	 SCS Opposite-Spin Energy  =      -0.6020867945119889 [Eh]
	 SCS Correlation Energy    =      -0.6455484382752839 [Eh]
	 SCS Total Energy          =    -135.3141627518015753 [Eh]
	-----------------------------------------------------------

  Dipole Moment: [D]
     X:    -0.0191      Y:     1.4159      Z:    -0.0001     Total:     1.4160

*** Psi4 exiting successfully. Buy a developer a beer!
