                               Psi4 1.3.2 release

  ==> Input File <==

--------------------------------------------------------------------------
#psi4
#
memory 32 gb

molecule  {
1 1
  N       -0.0000070     0.5428950     0.0000130
  C        1.2260839    -0.3222950     0.0885167
  C       -1.2598080    -0.2771790    -0.0000030
  H       -0.0000060     1.1640620     0.8196270
  H       -0.0000050     1.1640360    -0.8196790
  H        1.2623770    -0.8971870     0.8951090
  H        1.2610580    -0.8992150    -0.8937010
  H        2.1166910     0.3953100    -0.0014200
  H       -2.1167010     0.3952880     0.0003870
  H       -1.2619210    -0.8979260    -0.8945960
  H       -1.2615120    -0.8984910     0.8942090
units angstrom
no_reorient  #important for SAPT in psi4, default
symmetry c1  #important for SAPT in psi4, default
}

set PROPERTIES_ORIGIN ["COM"]
properties('MP2/aug-cc-pvtz', properties = ['dipole'])
--------------------------------------------------------------------------

    Molecular point group: c1
  Charge       = 1
  Multiplicity = 1
  Basis Set: AUG-CC-PVTZ
    Blend: AUG-CC-PVTZ
  Basis Set: (AUG-CC-PVTZ AUX)
    Blend: AUG-CC-PVTZ-JKFIT

    Orbital Energies [Eh]
    ---------------------

    Doubly Occupied:

       1A    -15.894351     2A    -11.477809     3A    -11.475589
       4A     -1.514791     5A     -1.188501     6A     -1.133759
       7A     -0.980240     8A     -0.899666     9A     -0.853929
      10A     -0.791025    11A     -0.768012    12A     -0.754126
      13A     -0.728305

  @DF-RHF Final Energy:  -134.65485214703313

   => Energetics <=

    Nuclear Repulsion Energy =             91.0495700681613727
    One-Electron Energy =                -354.4886443438970787
    Two-Electron Energy =                 128.7842221287025950
    Total Energy =                       -134.6548521470331252
  Basis Set: (AUG-CC-PVTZ AUX)
    Blend: AUG-CC-PVTZ-RI
    Molecular point group: c1

    Geometry (in Angstrom), charge = 1, multiplicity = 1:

       Center              X                  Y                   Z               Mass
    ------------   -----------------  -----------------  -----------------  -----------------
         N            0.008780592425     0.544399855128    -0.023047162609    14.003074004430
         C            1.234871492425    -0.320790144872     0.065456537391    12.000000000000
         C           -1.251020407575    -0.275674144872    -0.023063162609    12.000000000000
         H            0.008781592425     1.165566855128     0.796566837391     1.007825032230
         H            0.008782592425     1.165540855128    -0.842739162609     1.007825032230
         H            1.271164592425    -0.895682144872     0.872048837391     1.007825032230
         H            1.269845592425    -0.897710144872    -0.916761162609     1.007825032230
         H            2.125478592425     0.396814855128    -0.024480162609     1.007825032230
         H           -2.107913407575     0.396792855128    -0.022673162609     1.007825032230
         H           -1.253133407575    -0.896421144872    -0.917656162609     1.007825032230
         H           -1.252724407575    -0.896986144872     0.871148837391     1.007825032230

  Basis Set: AUG-CC-PVTZ
    Blend: AUG-CC-PVTZ
  Basis Set: (AUG-CC-PVTZ AUX)
    Blend: AUG-CC-PVTZ-JKFIT
	 Reference Energy          =    -134.6548521470331252 [Eh]
	 Singles Energy            =      -0.0000000000000000 [Eh]
	 Same-Spin Energy          =      -0.1306181827154649 [Eh]
	 Opposite-Spin Energy      =      -0.5024381225031469 [Eh]
	 Correlation Energy        =      -0.6330563052186118 [Eh]
	 Total Energy              =    -135.2879084522517417 [Eh]

	 ================> DF-SCS-MP2 Energies <==================
	-----------------------------------------------------------
	 SCS Same-Spin Scale       =       0.3333333333333333 [-]
	 SCS Opposite-Spin Scale   =       1.2000000000000000 [-]
	 SCS Same-Spin Energy      =      -0.0435393942384883 [Eh]
	 SCS Opposite-Spin Energy  =      -0.6029257470037762 [Eh]
	 SCS Correlation Energy    =      -0.6464651412422645 [Eh]
	 SCS Total Energy          =    -135.3013172882753850 [Eh]
	-----------------------------------------------------------

  Dipole Moment: [D]
     X:     0.0273      Y:     1.4828      Z:    -0.0801     Total:     1.4852

*** Psi4 exiting successfully. Buy a developer a beer!
