                               Psi4 1.3.2 release

  ==> Input File <==

--------------------------------------------------------------------------
#psi4
#
memory 32 gb

molecule  {
1 1
  N       -0.0000070     0.5428950     0.0000130
  C        1.1671975    -0.4043743    -0.0000034
  C       -1.2598080    -0.2771790    -0.0000030
  H       -0.0000060     1.1640620     0.8196270
  H       -0.0000050     1.1640360    -0.8196790
  H        1.2623770    -0.8971870     0.8951090
  H        1.2610580    -0.8992150    -0.8937010
  H        2.1166910     0.3953100    -0.0014200
  H       -2.1167010     0.3952880     0.0003870
  H       -1.2619210    -0.8979260    -0.8945960
  H       -1.2615120    -0.8984910     0.8942090
units angstrom
no_reorient  #important for SAPT in psi4, default
symmetry c1  #important for SAPT in psi4, default
}

set PROPERTIES_ORIGIN ["COM"]
properties('MP2/aug-cc-pvtz', properties = ['dipole'])
--------------------------------------------------------------------------

    Molecular point group: c1
  Charge       = 1
  Multiplicity = 1
  Basis Set: AUG-CC-PVTZ
    Blend: AUG-CC-PVTZ
  Basis Set: (AUG-CC-PVTZ AUX)
    Blend: AUG-CC-PVTZ-JKFIT

    Orbital Energies [Eh]
    ---------------------

    Doubly Occupied:

       1A    -15.895298     2A    -11.479902     3A    -11.474760
       4A     -1.515824     5A     -1.185586     6A     -1.138276
       7A     -0.983618     8A     -0.899407     9A     -0.845656
      10A     -0.813047    11A     -0.766736    12A     -0.766306
      13A     -0.699943

  @DF-RHF Final Energy:  -134.64400477015437

   => Energetics <=

    Nuclear Repulsion Energy =             91.2596591369161132
    One-Electron Energy =                -354.8786061422715079
    Two-Electron Energy =                 128.9749422352010129
    Total Energy =                       -134.6440047701543676
  Basis Set: (AUG-CC-PVTZ AUX)
    Blend: AUG-CC-PVTZ-RI
    Molecular point group: c1

    Geometry (in Angstrom), charge = 1, multiplicity = 1:

       Center              X                  Y                   Z               Mass
    ------------   -----------------  -----------------  -----------------  -----------------
         N            0.024120361381     0.565781320086     0.000012115629    14.003074004430
         C            1.191324861381    -0.381487979914    -0.000004284371    12.000000000000
         C           -1.235680638619    -0.254292679914    -0.000003884371    12.000000000000
         H            0.024121361381     1.186948320086     0.819626115629     1.007825032230
         H            0.024122361381     1.186922320086    -0.819679884371     1.007825032230
         H            1.286504361381    -0.874300679914     0.895108115629     1.007825032230
         H            1.285185361381    -0.876328679914    -0.893701884371     1.007825032230
         H            2.140818361381     0.418196320086    -0.001420884371     1.007825032230
         H           -2.092573638619     0.418174320086     0.000386115629     1.007825032230
         H           -1.237793638619    -0.875039679914    -0.894596884371     1.007825032230
         H           -1.237384638619    -0.875604679914     0.894208115629     1.007825032230

  Basis Set: AUG-CC-PVTZ
    Blend: AUG-CC-PVTZ
  Basis Set: (AUG-CC-PVTZ AUX)
    Blend: AUG-CC-PVTZ-JKFIT
	 Reference Energy          =    -134.6440047701543676 [Eh]
	 Singles Energy            =      -0.0000000000000000 [Eh]
	 Same-Spin Energy          =      -0.1309155948424965 [Eh]
	 Opposite-Spin Energy      =      -0.5032711658221327 [Eh]
	 Correlation Energy        =      -0.6341867606646292 [Eh]
	 Total Energy              =    -135.2781915308189866 [Eh]

	 ================> DF-SCS-MP2 Energies <==================
	-----------------------------------------------------------
	 SCS Same-Spin Scale       =       0.3333333333333333 [-]
	 SCS Opposite-Spin Scale   =       1.2000000000000000 [-]
	 SCS Same-Spin Energy      =      -0.0436385316141655 [Eh]
	 SCS Opposite-Spin Energy  =      -0.6039253989865593 [Eh]
	 SCS Correlation Energy    =      -0.6475639306007248 [Eh]
	 SCS Total Energy          =    -135.2915687007550787 [Eh]
	-----------------------------------------------------------

  Dipole Moment: [D]
     X:     0.0690      Y:     1.5396      Z:     0.0000     Total:     1.5411

*** Psi4 exiting successfully. Buy a developer a beer!
