                               Psi4 1.3.2 release

  ==> Input File <==

--------------------------------------------------------------------------
#psi4
#
memory 32 gb

molecule  {
1 1
  N       -0.0000070     0.5428950     0.0000130
  C        1.0922034    -0.1680704     0.0000009
  C       -1.2598080    -0.2771790    -0.0000030
  H       -0.0000060     1.1640620     0.8196270
  H       -0.0000050     1.1640360    -0.8196790
  H        1.2623770    -0.8971870     0.8951090
  H        1.2610580    -0.8992150    -0.8937010
  H        2.1166910     0.3953100    -0.0014200
  H       -2.1167010     0.3952880     0.0003870
  H       -1.2619210    -0.8979260    -0.8945960
  H       -1.2615120    -0.8984910     0.8942090
units angstrom
no_reorient  #important for SAPT in psi4, default
symmetry c1  #important for SAPT in psi4, default
}

set PROPERTIES_ORIGIN ["COM"]
properties('MP2/aug-cc-pvtz', properties = ['dipole'])
--------------------------------------------------------------------------

    Molecular point group: c1
  Charge       = 1
  Multiplicity = 1
  Basis Set: AUG-CC-PVTZ
    Blend: AUG-CC-PVTZ
  Basis Set: (AUG-CC-PVTZ AUX)
    Blend: AUG-CC-PVTZ-JKFIT

    Orbital Energies [Eh]
    ---------------------

    Doubly Occupied:

       1A    -15.903223     2A    -11.482493     3A    -11.475520
       4A     -1.574961     5A     -1.204939     6A     -1.125708
       7A     -1.008458     8A     -0.935455     9A     -0.878763
      10A     -0.778875    11A     -0.777765    12A     -0.709570
      13A     -0.702094

  @DF-RHF Final Energy:  -134.62445453302777

   => Energetics <=

    Nuclear Repulsion Energy =             93.5721745868058719
    One-Electron Energy =                -359.2776111249356745
    Two-Electron Energy =                 131.0809820051020154
    Total Energy =                       -134.6244545330277731
  Basis Set: (AUG-CC-PVTZ AUX)
    Blend: AUG-CC-PVTZ-RI
    Molecular point group: c1

    Geometry (in Angstrom), charge = 1, multiplicity = 1:

       Center              X                  Y                   Z               Mass
    ------------   -----------------  -----------------  -----------------  -----------------
         N            0.043656148373     0.504224708890     0.000010995489    14.003074004430
         C            1.135866548373    -0.206740691110    -0.000001104511    12.000000000000
         C           -1.216144851627    -0.315849291110    -0.000005004511    12.000000000000
         H            0.043657148373     1.125391708890     0.819624995489     1.007825032230
         H            0.043658148373     1.125365708890    -0.819681004511     1.007825032230
         H            1.306040148373    -0.935857291110     0.895106995489     1.007825032230
         H            1.304721148373    -0.937885291110    -0.893703004511     1.007825032230
         H            2.160354148373     0.356639708890    -0.001422004511     1.007825032230
         H           -2.073037851627     0.356617708890     0.000384995489     1.007825032230
         H           -1.218257851627    -0.936596291110    -0.894598004511     1.007825032230
         H           -1.217848851627    -0.937161291110     0.894206995489     1.007825032230

  Basis Set: AUG-CC-PVTZ
    Blend: AUG-CC-PVTZ
  Basis Set: (AUG-CC-PVTZ AUX)
    Blend: AUG-CC-PVTZ-JKFIT
	 Reference Energy          =    -134.6244545330277731 [Eh]
	 Singles Energy            =      -0.0000000000000000 [Eh]
	 Same-Spin Energy          =      -0.1328973302089873 [Eh]
	 Opposite-Spin Energy      =      -0.5037830478766969 [Eh]
	 Correlation Energy        =      -0.6366803780856842 [Eh]
	 Total Energy              =    -135.2611349111134587 [Eh]

	 ================> DF-SCS-MP2 Energies <==================
	-----------------------------------------------------------
	 SCS Same-Spin Scale       =       0.3333333333333333 [-]
	 SCS Opposite-Spin Scale   =       1.2000000000000000 [-]
	 SCS Same-Spin Energy      =      -0.0442991100696624 [Eh]
	 SCS Opposite-Spin Energy  =      -0.6045396574520363 [Eh]
	 SCS Correlation Energy    =      -0.6488387675216987 [Eh]
	 SCS Total Energy          =    -135.2732933005494829 [Eh]
	-----------------------------------------------------------

  Dipole Moment: [D]
     X:    -0.1133      Y:     1.4645      Z:    -0.0001     Total:     1.4689

*** Psi4 exiting successfully. Buy a developer a beer!
