                               Psi4 1.3.2 release

  ==> Input File <==

--------------------------------------------------------------------------
#psi4
#
memory 32 gb

molecule  {
1 1
  N       -0.0000070     0.5428950     0.0000130
  C        1.2598200    -0.2771790    -0.0000010
  C       -1.2598080    -0.2771790    -0.0000030
  H       -0.0000060     1.1640620     0.8196270
  H       -0.0000050     1.1640360    -0.8196790
  H        1.2623770    -0.8971870     0.8951090
  H        1.2610580    -0.8992150    -0.8937010
  H        2.1166910     0.3953100    -0.0014200
  H       -2.1167010     0.3952880     0.0003870
  H       -1.2619210    -0.8979260    -0.8945960
  H       -1.2615120    -0.8984910     0.8942090
units angstrom
no_reorient  #important for SAPT in psi4, default
symmetry c1  #important for SAPT in psi4, default
}

set PROPERTIES_ORIGIN ["COM"]
properties('MP2/aug-cc-pvtz', properties = ['dipole'])
--------------------------------------------------------------------------

    Molecular point group: c1
  Charge       = 1
  Multiplicity = 1
  Basis Set: AUG-CC-PVTZ
    Blend: AUG-CC-PVTZ
  Basis Set: (AUG-CC-PVTZ AUX)
    Blend: AUG-CC-PVTZ-JKFIT

    Orbital Energies [Eh]
    ---------------------

    Doubly Occupied:

       1A    -15.893423     2A    -11.476262     3A    -11.476249
       4A     -1.514020     5A     -1.189655     6A     -1.129495
       7A     -0.978880     8A     -0.901933     9A     -0.843887
      10A     -0.777088    11A     -0.765315    12A     -0.758602
      13A     -0.751338

  @DF-RHF Final Energy:  -134.66945704025605

   => Energetics <=

    Nuclear Repulsion Energy =             90.9210269373915025
    One-Electron Energy =                -354.2686729088347306
    Two-Electron Energy =                 128.6781889311871794
    Total Energy =                       -134.6694570402560487
  Basis Set: (AUG-CC-PVTZ AUX)
    Blend: AUG-CC-PVTZ-RI
    Molecular point group: c1

    Geometry (in Angstrom), charge = 1, multiplicity = 1:

       Center              X                  Y                   Z               Mass
    ------------   -----------------  -----------------  -----------------  -----------------
         N           -0.000007582425     0.532647243043     0.000011490434    14.003074004430
         C            1.259819417575    -0.287426756957    -0.000002509566    12.000000000000
         C           -1.259808582425    -0.287426756957    -0.000004509566    12.000000000000
         H           -0.000006582425     1.153814243043     0.819625490434     1.007825032230
         H           -0.000005582425     1.153788243043    -0.819680509566     1.007825032230
         H            1.262376417575    -0.907434756957     0.895107490434     1.007825032230
         H            1.261057417575    -0.909462756957    -0.893702509566     1.007825032230
         H            2.116690417575     0.385062243043    -0.001421509566     1.007825032230
         H           -2.116701582425     0.385040243043     0.000385490434     1.007825032230
         H           -1.261921582425    -0.908173756957    -0.894597509566     1.007825032230
         H           -1.261512582425    -0.908738756957     0.894207490434     1.007825032230

  Basis Set: AUG-CC-PVTZ
    Blend: AUG-CC-PVTZ
  Basis Set: (AUG-CC-PVTZ AUX)
    Blend: AUG-CC-PVTZ-JKFIT
	 Reference Energy          =    -134.6694570402560487 [Eh]
	 Singles Energy            =      -0.0000000000000000 [Eh]
	 Same-Spin Energy          =      -0.1303775486333909 [Eh]
	 Opposite-Spin Energy      =      -0.5017189861453318 [Eh]
	 Correlation Energy        =      -0.6320965347787227 [Eh]
	 Total Energy              =    -135.3015535750347738 [Eh]

	 ================> DF-SCS-MP2 Energies <==================
	-----------------------------------------------------------
	 SCS Same-Spin Scale       =       0.3333333333333333 [-]
	 SCS Opposite-Spin Scale   =       1.2000000000000000 [-]
	 SCS Same-Spin Energy      =      -0.0434591828777970 [Eh]
	 SCS Opposite-Spin Energy  =      -0.6020627833743982 [Eh]
	 SCS Correlation Energy    =      -0.6455219662521952 [Eh]
	 SCS Total Energy          =    -135.3149790065082527 [Eh]
	-----------------------------------------------------------

  Dipole Moment: [D]
     X:     0.0000      Y:     1.4340      Z:    -0.0001     Total:     1.4340

*** Psi4 exiting successfully. Buy a developer a beer!
