                               Psi4 1.3.2 release

  ==> Input File <==

--------------------------------------------------------------------------
#psi4
#
memory 32 gb

molecule  {
1 1
  N       -0.0000070     0.5428950     0.0000130
  C        1.2598200    -0.2771790    -0.0000010
  C       -1.2598080    -0.2771790    -0.0000030
  H       -0.0000060     1.1640620     0.8196270
  H       -0.0000046     1.2848276    -0.9790822
  H        1.2623770    -0.8971870     0.8951090
  H        1.2610580    -0.8992150    -0.8937010
  H        2.1166910     0.3953100    -0.0014200
  H       -2.1167010     0.3952880     0.0003870
  H       -1.2619210    -0.8979260    -0.8945960
  H       -1.2615120    -0.8984910     0.8942090
units angstrom
no_reorient  #important for SAPT in psi4, default
symmetry c1  #important for SAPT in psi4, default
}

set PROPERTIES_ORIGIN ["COM"]
properties('MP2/aug-cc-pvtz', properties = ['dipole'])
--------------------------------------------------------------------------

    Molecular point group: c1
  Charge       = 1
  Multiplicity = 1
  Basis Set: AUG-CC-PVTZ
    Blend: AUG-CC-PVTZ
  Basis Set: (AUG-CC-PVTZ AUX)
    Blend: AUG-CC-PVTZ-JKFIT

    Orbital Energies [Eh]
    ---------------------

    Doubly Occupied:

       1A    -15.903430     2A    -11.473899     3A    -11.473885
       4A     -1.491006     5A     -1.186309     6A     -1.114155
       7A     -0.944892     8A     -0.889954     9A     -0.839364
      10A     -0.774465    11A     -0.760402    12A     -0.748725
      13A     -0.741157

  @DF-RHF Final Energy:  -134.64187393044872

   => Energetics <=

    Nuclear Repulsion Energy =             90.0439369106243674
    One-Electron Energy =                -352.6883380505251466
    Two-Electron Energy =                 128.0025272094520403
    Total Energy =                       -134.6418739304487246
  Basis Set: (AUG-CC-PVTZ AUX)
    Blend: AUG-CC-PVTZ-RI
    Molecular point group: c1

    Geometry (in Angstrom), charge = 1, multiplicity = 1:

       Center              X                  Y                   Z               Mass
    ------------   -----------------  -----------------  -----------------  -----------------
         N           -0.000007591176     0.530004563866     0.003498914373    14.003074004430
         C            1.259819408824    -0.290069436134     0.003484914373    12.000000000000
         C           -1.259808591176    -0.290069436134     0.003482914373    12.000000000000
         H           -0.000006591176     1.151171563866     0.823112914373     1.007825032230
         H           -0.000005191176     1.271937163866    -0.975596285627     1.007825032230
         H            1.262376408824    -0.910077436134     0.898594914373     1.007825032230
         H            1.261057408824    -0.912105436134    -0.890215085627     1.007825032230
         H            2.116690408824     0.382419563866     0.002065914373     1.007825032230
         H           -2.116701591176     0.382397563866     0.003872914373     1.007825032230
         H           -1.261921591176    -0.910816436134    -0.891110085627     1.007825032230
         H           -1.261512591176    -0.911381436134     0.897694914373     1.007825032230

  Basis Set: AUG-CC-PVTZ
    Blend: AUG-CC-PVTZ
  Basis Set: (AUG-CC-PVTZ AUX)
    Blend: AUG-CC-PVTZ-JKFIT
	 Reference Energy          =    -134.6418739304487246 [Eh]
	 Singles Energy            =      -0.0000000000000000 [Eh]
	 Same-Spin Energy          =      -0.1315843345403729 [Eh]
	 Opposite-Spin Energy      =      -0.5057300203684396 [Eh]
	 Correlation Energy        =      -0.6373143549088125 [Eh]
	 Total Energy              =    -135.2791882853575487 [Eh]

	 ================> DF-SCS-MP2 Energies <==================
	-----------------------------------------------------------
	 SCS Same-Spin Scale       =       0.3333333333333333 [-]
	 SCS Opposite-Spin Scale   =       1.2000000000000000 [-]
	 SCS Same-Spin Energy      =      -0.0438614448467910 [Eh]
	 SCS Opposite-Spin Energy  =      -0.6068760244421275 [Eh]
	 SCS Correlation Energy    =      -0.6507374692889185 [Eh]
	 SCS Total Energy          =    -135.2926113997376376 [Eh]
	-----------------------------------------------------------

  Dipole Moment: [D]
     X:     0.0000      Y:     1.5964      Z:    -0.2105     Total:     1.6102

*** Psi4 exiting successfully. Buy a developer a beer!
