                               Psi4 1.3.2 release

  ==> Input File <==

--------------------------------------------------------------------------
#psi4
#
memory 32 gb

molecule  {
1 1
  N       -0.0000070     0.5428950     0.0000130
  C        1.2598200    -0.2771790    -0.0000010
  C       -1.2598080    -0.2771790    -0.0000030
  H       -0.0000062     1.1053755     0.8609609
  H       -0.0000050     1.1640360    -0.8196790
  H        1.2623770    -0.8971870     0.8951090
  H        1.2610580    -0.8992150    -0.8937010
  H        2.1166910     0.3953100    -0.0014200
  H       -2.1167010     0.3952880     0.0003870
  H       -1.2619210    -0.8979260    -0.8945960
  H       -1.2615120    -0.8984910     0.8942090
units angstrom
no_reorient  #important for SAPT in psi4, default
symmetry c1  #important for SAPT in psi4, default
}

set PROPERTIES_ORIGIN ["COM"]
properties('MP2/aug-cc-pvtz', properties = ['dipole'])
--------------------------------------------------------------------------

    Molecular point group: c1
  Charge       = 1
  Multiplicity = 1
  Basis Set: AUG-CC-PVTZ
    Blend: AUG-CC-PVTZ
  Basis Set: (AUG-CC-PVTZ AUX)
    Blend: AUG-CC-PVTZ-JKFIT

    Orbital Energies [Eh]
    ---------------------

    Doubly Occupied:

       1A    -15.893478     2A    -11.476126     3A    -11.476113
       4A     -1.514324     5A     -1.189934     6A     -1.126773
       7A     -0.985983     8A     -0.898969     9A     -0.843973
      10A     -0.777500    11A     -0.763614    12A     -0.759410
      13A     -0.751407

  @DF-RHF Final Energy:  -134.66884510702928

   => Energetics <=

    Nuclear Repulsion Energy =             90.9593206202461033
    One-Electron Energy =                -354.3411256224265458
    Two-Electron Energy =                 128.7129598951511582
    Total Energy =                       -134.6688451070292842
  Basis Set: (AUG-CC-PVTZ AUX)
    Blend: AUG-CC-PVTZ-RI
    Molecular point group: c1

    Geometry (in Angstrom), charge = 1, multiplicity = 1:

       Center              X                  Y                   Z               Mass
    ------------   -----------------  -----------------  -----------------  -----------------
         N           -0.000007578050     0.533931186559    -0.000892812819    14.003074004430
         C            1.259819421950    -0.286142813441    -0.000906812819    12.000000000000
         C           -1.259808578050    -0.286142813441    -0.000908812819    12.000000000000
         H           -0.000006778050     1.096411686559     0.860055087181     1.007825032230
         H           -0.000005578050     1.155072186559    -0.820584812819     1.007825032230
         H            1.262376421950    -0.906150813441     0.894203187181     1.007825032230
         H            1.261057421950    -0.908178813441    -0.894606812819     1.007825032230
         H            2.116690421950     0.386346186559    -0.002325812819     1.007825032230
         H           -2.116701578050     0.386324186559    -0.000518812819     1.007825032230
         H           -1.261921578050    -0.906889813441    -0.895501812819     1.007825032230
         H           -1.261512578050    -0.907454813441     0.893303187181     1.007825032230

  Basis Set: AUG-CC-PVTZ
    Blend: AUG-CC-PVTZ
  Basis Set: (AUG-CC-PVTZ AUX)
    Blend: AUG-CC-PVTZ-JKFIT
	 Reference Energy          =    -134.6688451070292842 [Eh]
	 Singles Energy            =      -0.0000000000000000 [Eh]
	 Same-Spin Energy          =      -0.1304187702970034 [Eh]
	 Opposite-Spin Energy      =      -0.5018048125954876 [Eh]
	 Correlation Energy        =      -0.6322235828924909 [Eh]
	 Total Energy              =    -135.3010686899217774 [Eh]

	 ================> DF-SCS-MP2 Energies <==================
	-----------------------------------------------------------
	 SCS Same-Spin Scale       =       0.3333333333333333 [-]
	 SCS Opposite-Spin Scale   =       1.2000000000000000 [-]
	 SCS Same-Spin Energy      =      -0.0434729234323344 [Eh]
	 SCS Opposite-Spin Energy  =      -0.6021657751145851 [Eh]
	 SCS Correlation Energy    =      -0.6456386985469196 [Eh]
	 SCS Total Energy          =    -135.3144838055762023 [Eh]
	-----------------------------------------------------------

  Dipole Moment: [D]
     X:     0.0000      Y:     1.3823      Z:     0.0369     Total:     1.3828

*** Psi4 exiting successfully. Buy a developer a beer!
