                               Psi4 1.4a3.dev225

  ==> Input File <==

--------------------------------------------------------------------------
#psi4
#
memory 32 gb

molecule  {
1 1
  N        0.0000000     0.5403170    -0.0000070
  C       -1.2102343    -0.2493991     0.0000094
  C        1.2521080    -0.2767230    -0.0000030
  H       -0.0000040     1.1617250    -0.8174450
  H        0.0000040     1.1617460     0.8174160
  H       -1.2523940    -0.8957080    -0.8943280
  H       -1.2523830    -0.8956890     0.8943600
  H       -2.1045790     0.3988920     0.0000070
  H        2.1045790     0.3988920    -0.0000120
  H        1.2523910    -0.8956900     0.8943470
  H        1.2523860    -0.8957070    -0.8943410
units angstrom
no_reorient  #important for SAPT in psi4, default
symmetry c1  #important for SAPT in psi4, default
}

set PROPERTIES_ORIGIN ["COM"]
properties('MP2/aug-cc-pvtz', properties = ['dipole'])
--------------------------------------------------------------------------

    Molecular point group: c1
  Charge       = 1
  Multiplicity = 1
  Basis Set: AUG-CC-PVTZ
    Blend: AUG-CC-PVTZ
  Basis Set: (AUG-CC-PVTZ AUX)
    Blend: AUG-CC-PVTZ-JKFIT

    Orbital Energies [Eh]
    ---------------------

    Doubly Occupied:

       1A    -15.896819     2A    -11.477078     3A    -11.473779
       4A     -1.531439     5A     -1.194718     6A     -1.129757
       7A     -0.988363     8A     -0.912392     9A     -0.854919
      10A     -0.775118    11A     -0.768295    12A     -0.750575
      13A     -0.743587

  @DF-RHF Final Energy:  -134.66714483366627

   => Energetics <=

    Nuclear Repulsion Energy =             91.9084278310309912
    One-Electron Energy =                -356.1574693905104709
    Two-Electron Energy =                 129.5818967258131806
    Total Energy =                       -134.6671448336662706
  Basis Set: (AUG-CC-PVTZ AUX)
    Blend: AUG-CC-PVTZ-RI
    Molecular point group: c1

    Geometry (in Angstrom), charge = 1, multiplicity = 1:

       Center              X                  Y                   Z               Mass
    ------------   -----------------  -----------------  -----------------  -----------------
         N           -0.010908000546     0.523222206709    -0.000006626832    14.003074004430
         C           -1.221142300546    -0.266493893291     0.000009773168    12.000000000000
         C            1.241199999454    -0.293817793291    -0.000002626832    12.000000000000
         H           -0.010912000546     1.144630206709    -0.817444626832     1.007825032230
         H           -0.010904000546     1.144651206709     0.817416373168     1.007825032230
         H           -1.263302000546    -0.912802793291    -0.894327626832     1.007825032230
         H           -1.263291000546    -0.912783793291     0.894360373168     1.007825032230
         H           -2.115487000546     0.381797206709     0.000007373168     1.007825032230
         H            2.093670999454     0.381797206709    -0.000011626832     1.007825032230
         H            1.241482999454    -0.912784793291     0.894347373168     1.007825032230
         H            1.241477999454    -0.912801793291    -0.894340626832     1.007825032230

  Basis Set: AUG-CC-PVTZ
    Blend: AUG-CC-PVTZ
  Basis Set: (AUG-CC-PVTZ AUX)
    Blend: AUG-CC-PVTZ-JKFIT
	 Reference Energy          =    -134.6671448336662706 [Eh]
	 Singles Energy            =      -0.0000000000000000 [Eh]
	 Same-Spin Energy          =      -0.1308895354938854 [Eh]
	 Opposite-Spin Energy      =      -0.5016983414519702 [Eh]
	 Correlation Energy        =      -0.6325878769458556 [Eh]
	 Total Energy              =    -135.2997327106121190 [Eh]

	 ================> DF-SCS-MP2 Energies <==================
	-----------------------------------------------------------
	 SCS Same-Spin Scale       =       0.3333333333333333 [-]
	 SCS Opposite-Spin Scale   =       1.2000000000000000 [-]
	 SCS Same-Spin Energy      =      -0.0436298451646285 [Eh]
	 SCS Opposite-Spin Energy  =      -0.6020380097423642 [Eh]
	 SCS Correlation Energy    =      -0.6456678549069926 [Eh]
	 SCS Total Energy          =    -135.3128126885732740 [Eh]
	-----------------------------------------------------------

  Dipole Moment: [D]
     X:     0.0440      Y:     1.4655      Z:    -0.0000     Total:     1.4662

*** Psi4 exiting successfully. Buy a developer a beer!
