                               Psi4 1.3.2 release

  ==> Input File <==

--------------------------------------------------------------------------
#psi4
#
memory 32 gb

molecule  {
1 1
  N       -0.0000070     0.5428950     0.0000130
  C        1.2598200    -0.2771790    -0.0000010
  C       -1.2598080    -0.2771790    -0.0000030
  H       -0.0000058     1.2463322     0.7502074
  H       -0.0000050     1.1640360    -0.8196790
  H        1.2623770    -0.8971870     0.8951090
  H        1.2610580    -0.8992150    -0.8937010
  H        2.1166910     0.3953100    -0.0014200
  H       -2.1167010     0.3952880     0.0003870
  H       -1.2619210    -0.8979260    -0.8945960
  H       -1.2615120    -0.8984910     0.8942090
units angstrom
no_reorient  #important for SAPT in psi4, default
symmetry c1  #important for SAPT in psi4, default
}

set PROPERTIES_ORIGIN ["COM"]
properties('MP2/aug-cc-pvtz', properties = ['dipole'])
--------------------------------------------------------------------------

    Molecular point group: c1
  Charge       = 1
  Multiplicity = 1
  Basis Set: AUG-CC-PVTZ
    Blend: AUG-CC-PVTZ
  Basis Set: (AUG-CC-PVTZ AUX)
    Blend: AUG-CC-PVTZ-JKFIT

    Orbital Energies [Eh]
    ---------------------

    Doubly Occupied:

       1A    -15.893129     2A    -11.476553     3A    -11.476539
       4A     -1.513895     5A     -1.189297     6A     -1.133799
       7A     -0.967977     8A     -0.906458     9A     -0.843750
      10A     -0.776579    11A     -0.768547    12A     -0.755936
      13A     -0.751277

  @DF-RHF Final Energy:  -134.66807578662093

   => Energetics <=

    Nuclear Repulsion Energy =             90.8723486108372214
    One-Electron Energy =                -354.1733771657152374
    Two-Electron Energy =                 128.6329527682570983
    Total Energy =                       -134.6680757866209319
  Basis Set: (AUG-CC-PVTZ AUX)
    Blend: AUG-CC-PVTZ-RI
    Molecular point group: c1

    Geometry (in Angstrom), charge = 1, multiplicity = 1:

       Center              X                  Y                   Z               Mass
    ------------   -----------------  -----------------  -----------------  -----------------
         N           -0.000007586801     0.530847335232     0.001530252761    14.003074004430
         C            1.259819413199    -0.289226664768     0.001516252761    12.000000000000
         C           -1.259808586801    -0.289226664768     0.001514252761    12.000000000000
         H           -0.000006386801     1.234284535232     0.751724652761     1.007825032230
         H           -0.000005586801     1.151988335232    -0.818161747239     1.007825032230
         H            1.262376413199    -0.909234664768     0.896626252761     1.007825032230
         H            1.261057413199    -0.911262664768    -0.892183747239     1.007825032230
         H            2.116690413199     0.383262335232     0.000097252761     1.007825032230
         H           -2.116701586801     0.383240335232     0.001904252761     1.007825032230
         H           -1.261921586801    -0.909973664768    -0.893078747239     1.007825032230
         H           -1.261512586801    -0.910538664768     0.895726252761     1.007825032230

  Basis Set: AUG-CC-PVTZ
    Blend: AUG-CC-PVTZ
  Basis Set: (AUG-CC-PVTZ AUX)
    Blend: AUG-CC-PVTZ-JKFIT
	 Reference Energy          =    -134.6680757866209319 [Eh]
	 Singles Energy            =      -0.0000000000000000 [Eh]
	 Same-Spin Energy          =      -0.1304065802015671 [Eh]
	 Opposite-Spin Energy      =      -0.5017511251611779 [Eh]
	 Correlation Energy        =      -0.6321577053627450 [Eh]
	 Total Energy              =    -135.3002334919836755 [Eh]

	 ================> DF-SCS-MP2 Energies <==================
	-----------------------------------------------------------
	 SCS Same-Spin Scale       =       0.3333333333333333 [-]
	 SCS Opposite-Spin Scale   =       1.2000000000000000 [-]
	 SCS Same-Spin Energy      =      -0.0434688600671890 [Eh]
	 SCS Opposite-Spin Energy  =      -0.6021013501934135 [Eh]
	 SCS Correlation Energy    =      -0.6455702102606025 [Eh]
	 SCS Total Energy          =    -135.3136459968815473 [Eh]
	-----------------------------------------------------------

  Dipole Moment: [D]
     X:     0.0000      Y:     1.5079      Z:    -0.0661     Total:     1.5094

*** Psi4 exiting successfully. Buy a developer a beer!
