                               Psi4 1.3.2 release

  ==> Input File <==

--------------------------------------------------------------------------
#psi4
#
memory 32 gb

molecule  {
1 1
  N       -0.0000070     0.5428950     0.0000130
  C        1.2069644    -0.3432852     0.1326407
  C       -1.2598080    -0.2771790    -0.0000030
  H       -0.0000060     1.1640620     0.8196270
  H       -0.0000050     1.1640360    -0.8196790
  H        1.2623770    -0.8971870     0.8951090
  H        1.2610580    -0.8992150    -0.8937010
  H        2.1166910     0.3953100    -0.0014200
  H       -2.1167010     0.3952880     0.0003870
  H       -1.2619210    -0.8979260    -0.8945960
  H       -1.2615120    -0.8984910     0.8942090
units angstrom
no_reorient  #important for SAPT in psi4, default
symmetry c1  #important for SAPT in psi4, default
}

set PROPERTIES_ORIGIN ["COM"]
properties('MP2/aug-cc-pvtz', properties = ['dipole'])
--------------------------------------------------------------------------

    Molecular point group: c1
  Charge       = 1
  Multiplicity = 1
  Basis Set: AUG-CC-PVTZ
    Blend: AUG-CC-PVTZ
  Basis Set: (AUG-CC-PVTZ AUX)
    Blend: AUG-CC-PVTZ-JKFIT

    Orbital Energies [Eh]
    ---------------------

    Doubly Occupied:

       1A    -15.895422     2A    -11.479708     3A    -11.475459
       4A     -1.515606     5A     -1.188930     6A     -1.137139
       7A     -0.980933     8A     -0.902180     9A     -0.863243
      10A     -0.793429    11A     -0.768708    12A     -0.750585
      13A     -0.714175

  @DF-RHF Final Energy:  -134.63514616328661

   => Energetics <=

    Nuclear Repulsion Energy =             91.1309703220001239
    One-Electron Energy =                -354.6011990732994832
    Two-Electron Energy =                 128.8350825880127672
    Total Energy =                       -134.6351461632866062
  Basis Set: (AUG-CC-PVTZ AUX)
    Blend: AUG-CC-PVTZ-RI
    Molecular point group: c1

    Geometry (in Angstrom), charge = 1, multiplicity = 1:

       Center              X                  Y                   Z               Mass
    ------------   -----------------  -----------------  -----------------  -----------------
         N            0.013761177289     0.549867752950    -0.034541361022    14.003074004430
         C            1.220732577289    -0.336312447050     0.098086338978    12.000000000000
         C           -1.246039822711    -0.270206247050    -0.034557361022    12.000000000000
         H            0.013762177289     1.171034752950     0.785072638978     1.007825032230
         H            0.013763177289     1.171008752950    -0.854233361022     1.007825032230
         H            1.276145177289    -0.890214247050     0.860554638978     1.007825032230
         H            1.274826177289    -0.892242247050    -0.928255361022     1.007825032230
         H            2.130459177289     0.402282752950    -0.035974361022     1.007825032230
         H           -2.102932822711     0.402260752950    -0.034167361022     1.007825032230
         H           -1.248152822711    -0.890953247050    -0.929150361022     1.007825032230
         H           -1.247743822711    -0.891518247050     0.859654638978     1.007825032230

  Basis Set: AUG-CC-PVTZ
    Blend: AUG-CC-PVTZ
  Basis Set: (AUG-CC-PVTZ AUX)
    Blend: AUG-CC-PVTZ-JKFIT
	 Reference Energy          =    -134.6351461632866062 [Eh]
	 Singles Energy            =      -0.0000000000000000 [Eh]
	 Same-Spin Energy          =      -0.1309140761637710 [Eh]
	 Opposite-Spin Energy      =      -0.5033342725284735 [Eh]
	 Correlation Energy        =      -0.6342483486922446 [Eh]
	 Total Energy              =    -135.2693945119788452 [Eh]

	 ================> DF-SCS-MP2 Energies <==================
	-----------------------------------------------------------
	 SCS Same-Spin Scale       =       0.3333333333333333 [-]
	 SCS Opposite-Spin Scale   =       1.2000000000000000 [-]
	 SCS Same-Spin Energy      =      -0.0436380253879237 [Eh]
	 SCS Opposite-Spin Energy  =      -0.6040011270341682 [Eh]
	 SCS Correlation Energy    =      -0.6476391524220919 [Eh]
	 SCS Total Energy          =    -135.2827853157087077 [Eh]
	-----------------------------------------------------------

  Dipole Moment: [D]
     X:     0.0318      Y:     1.5156      Z:    -0.1278     Total:     1.5213

*** Psi4 exiting successfully. Buy a developer a beer!
