                               Psi4 1.4a3.dev225

  ==> Input File <==

--------------------------------------------------------------------------
#psi4
#
memory 32 gb

molecule  {
1 1
  N        0.0000000     0.5403170    -0.0000070
  C       -1.2939817    -0.3040469     0.0000106
  C        1.2521080    -0.2767230    -0.0000030
  H       -0.0000040     1.1617250    -0.8174450
  H        0.0000040     1.1617460     0.8174160
  H       -1.2523940    -0.8957080    -0.8943280
  H       -1.2523830    -0.8956890     0.8943600
  H       -2.1045790     0.3988920     0.0000070
  H        2.1045790     0.3988920    -0.0000120
  H        1.2523910    -0.8956900     0.8943470
  H        1.2523860    -0.8957070    -0.8943410
units angstrom
no_reorient  #important for SAPT in psi4, default
symmetry c1  #important for SAPT in psi4, default
}

set PROPERTIES_ORIGIN ["COM"]
properties('MP2/aug-cc-pvtz', properties = ['dipole'])
--------------------------------------------------------------------------

    Molecular point group: c1
  Charge       = 1
  Multiplicity = 1
  Basis Set: AUG-CC-PVTZ
    Blend: AUG-CC-PVTZ
  Basis Set: (AUG-CC-PVTZ AUX)
    Blend: AUG-CC-PVTZ-JKFIT

    Orbital Energies [Eh]
    ---------------------

    Doubly Occupied:

       1A    -15.888997     2A    -11.477856     3A    -11.473401
       4A     -1.506734     5A     -1.190058     6A     -1.131189
       7A     -0.975117     8A     -0.897464     9A     -0.837774
      10A     -0.785755    11A     -0.773083    12A     -0.761550
      13A     -0.749016

  @DF-RHF Final Energy:  -134.66810232815695

   => Energetics <=

    Nuclear Repulsion Energy =             90.6995453537805219
    One-Electron Energy =                -353.8393051198473245
    Two-Electron Energy =                 128.4716574379098404
    Total Energy =                       -134.6681023281569480
  Basis Set: (AUG-CC-PVTZ AUX)
    Blend: AUG-CC-PVTZ-RI
    Molecular point group: c1

    Geometry (in Angstrom), charge = 1, multiplicity = 1:

       Center              X                  Y                   Z               Mass
    ------------   -----------------  -----------------  -----------------  -----------------
         N            0.010908000546     0.537457830316    -0.000006939430    14.003074004430
         C           -1.283073699454    -0.306906069684     0.000010660570    12.000000000000
         C            1.263016000546    -0.279582169684    -0.000002939430    12.000000000000
         H            0.010904000546     1.158865830316    -0.817444939430     1.007825032230
         H            0.010912000546     1.158886830316     0.817416060570     1.007825032230
         H           -1.241485999454    -0.898567169684    -0.894327939430     1.007825032230
         H           -1.241474999454    -0.898548169684     0.894360060570     1.007825032230
         H           -2.093670999454     0.396032830316     0.000007060570     1.007825032230
         H            2.115487000546     0.396032830316    -0.000011939430     1.007825032230
         H            1.263299000546    -0.898549169684     0.894347060570     1.007825032230
         H            1.263294000546    -0.898566169684    -0.894340939430     1.007825032230

  Basis Set: AUG-CC-PVTZ
    Blend: AUG-CC-PVTZ
  Basis Set: (AUG-CC-PVTZ AUX)
    Blend: AUG-CC-PVTZ-JKFIT
	 Reference Energy          =    -134.6681023281569480 [Eh]
	 Singles Energy            =      -0.0000000000000000 [Eh]
	 Same-Spin Energy          =      -0.1301734977631818 [Eh]
	 Opposite-Spin Energy      =      -0.5016698579550458 [Eh]
	 Correlation Energy        =      -0.6318433557182276 [Eh]
	 Total Energy              =    -135.2999456838751655 [Eh]

	 ================> DF-SCS-MP2 Energies <==================
	-----------------------------------------------------------
	 SCS Same-Spin Scale       =       0.3333333333333333 [-]
	 SCS Opposite-Spin Scale   =       1.2000000000000000 [-]
	 SCS Same-Spin Energy      =      -0.0433911659210606 [Eh]
	 SCS Opposite-Spin Energy  =      -0.6020038295460549 [Eh]
	 SCS Correlation Energy    =      -0.6453949954671155 [Eh]
	 SCS Total Energy          =    -135.3134973236240626 [Eh]
	-----------------------------------------------------------

  Dipole Moment: [D]
     X:    -0.0564      Y:     1.4252      Z:    -0.0000     Total:     1.4263

*** Psi4 exiting successfully. Buy a developer a beer!
