                               Psi4 1.3.2 release

  ==> Input File <==

--------------------------------------------------------------------------
#psi4
#
memory 32 gb

molecule  {
1 1
  N       -0.0000070     0.5428950     0.0000130
  C        1.2874184    -0.2280677    -0.0885186
  C       -1.2598080    -0.2771790    -0.0000030
  H       -0.0000060     1.1640620     0.8196270
  H       -0.0000050     1.1640360    -0.8196790
  H        1.2623770    -0.8971870     0.8951090
  H        1.2610580    -0.8992150    -0.8937010
  H        2.1166910     0.3953100    -0.0014200
  H       -2.1167010     0.3952880     0.0003870
  H       -1.2619210    -0.8979260    -0.8945960
  H       -1.2615120    -0.8984910     0.8942090
units angstrom
no_reorient  #important for SAPT in psi4, default
symmetry c1  #important for SAPT in psi4, default
}

set PROPERTIES_ORIGIN ["COM"]
properties('MP2/aug-cc-pvtz', properties = ['dipole'])
--------------------------------------------------------------------------

    Molecular point group: c1
  Charge       = 1
  Multiplicity = 1
  Basis Set: AUG-CC-PVTZ
    Blend: AUG-CC-PVTZ
  Basis Set: (AUG-CC-PVTZ AUX)
    Blend: AUG-CC-PVTZ-JKFIT

    Orbital Energies [Eh]
    ---------------------

    Doubly Occupied:

       1A    -15.893993     2A    -11.477800     3A    -11.477383
       4A     -1.514402     5A     -1.192472     6A     -1.128048
       7A     -0.978199     8A     -0.907189     9A     -0.847434
      10A     -0.787582    11A     -0.768544    12A     -0.759183
      13A     -0.728121

  @DF-RHF Final Energy:  -134.65759522538212

   => Energetics <=

    Nuclear Repulsion Energy =             90.8191807548461867
    One-Electron Energy =                -354.0328559211907873
    Two-Electron Energy =                 128.5560799409624906
    Total Energy =                       -134.6575952253821242
  Basis Set: (AUG-CC-PVTZ AUX)
    Blend: AUG-CC-PVTZ-RI
    Molecular point group: c1

    Geometry (in Angstrom), charge = 1, multiplicity = 1:

       Center              X                  Y                   Z               Mass
    ------------   -----------------  -----------------  -----------------  -----------------
         N           -0.007196900834     0.519853864689     0.023070117427    14.003074004430
         C            1.280228499166    -0.251108835311    -0.065461482573    12.000000000000
         C           -1.266997900834    -0.300220135311     0.023054117427    12.000000000000
         H           -0.007195900834     1.141020864689     0.842684117427     1.007825032230
         H           -0.007194900834     1.140994864689    -0.796621882573     1.007825032230
         H            1.255187099166    -0.920228135311     0.918166117427     1.007825032230
         H            1.253868099166    -0.922256135311    -0.870643882573     1.007825032230
         H            2.109501099166     0.372268864689     0.021637117427     1.007825032230
         H           -2.123890900834     0.372246864689     0.023444117427     1.007825032230
         H           -1.269110900834    -0.920967135311    -0.871538882573     1.007825032230
         H           -1.268701900834    -0.921532135311     0.917266117427     1.007825032230

  Basis Set: AUG-CC-PVTZ
    Blend: AUG-CC-PVTZ
  Basis Set: (AUG-CC-PVTZ AUX)
    Blend: AUG-CC-PVTZ-JKFIT
	 Reference Energy          =    -134.6575952253821242 [Eh]
	 Singles Energy            =      -0.0000000000000000 [Eh]
	 Same-Spin Energy          =      -0.1305760877752908 [Eh]
	 Opposite-Spin Energy      =      -0.5022943867959543 [Eh]
	 Correlation Energy        =      -0.6328704745712450 [Eh]
	 Total Energy              =    -135.2904656999533586 [Eh]

	 ================> DF-SCS-MP2 Energies <==================
	-----------------------------------------------------------
	 SCS Same-Spin Scale       =       0.3333333333333333 [-]
	 SCS Opposite-Spin Scale   =       1.2000000000000000 [-]
	 SCS Same-Spin Energy      =      -0.0435253625917636 [Eh]
	 SCS Opposite-Spin Energy  =      -0.6027532641551451 [Eh]
	 SCS Correlation Energy    =      -0.6462786267469087 [Eh]
	 SCS Total Energy          =    -135.3038738521290441 [Eh]
	-----------------------------------------------------------

  Dipole Moment: [D]
     X:    -0.0472      Y:     1.4031      Z:     0.0632     Total:     1.4053

*** Psi4 exiting successfully. Buy a developer a beer!
