                               Psi4 1.3.2 release

  ==> Input File <==

--------------------------------------------------------------------------
#psi4
#
memory 32 gb

molecule  {
1 1
  N       -0.0000070     0.5428950     0.0000130
  C        1.3139566    -0.1873003     0.0000007
  C       -1.2598080    -0.2771790    -0.0000030
  H       -0.0000060     1.1640620     0.8196270
  H       -0.0000050     1.1640360    -0.8196790
  H        1.2623770    -0.8971870     0.8951090
  H        1.2610580    -0.8992150    -0.8937010
  H        2.1166910     0.3953100    -0.0014200
  H       -2.1167010     0.3952880     0.0003870
  H       -1.2619210    -0.8979260    -0.8945960
  H       -1.2615120    -0.8984910     0.8942090
units angstrom
no_reorient  #important for SAPT in psi4, default
symmetry c1  #important for SAPT in psi4, default
}

set PROPERTIES_ORIGIN ["COM"]
properties('MP2/aug-cc-pvtz', properties = ['dipole'])
--------------------------------------------------------------------------

    Molecular point group: c1
  Charge       = 1
  Multiplicity = 1
  Basis Set: AUG-CC-PVTZ
    Blend: AUG-CC-PVTZ
  Basis Set: (AUG-CC-PVTZ AUX)
    Blend: AUG-CC-PVTZ-JKFIT

    Orbital Energies [Eh]
    ---------------------

    Doubly Occupied:

       1A    -15.893890     2A    -11.478438     3A    -11.477690
       4A     -1.514240     5A     -1.194724     6A     -1.125758
       7A     -0.977474     8A     -0.914719     9A     -0.841778
      10A     -0.780072    11A     -0.771068    12A     -0.758328
      13A     -0.733690

  @DF-RHF Final Energy:  -134.65489175939908

   => Energetics <=

    Nuclear Repulsion Energy =             90.7359149968534524
    One-Electron Energy =                -353.8578715319609387
    Two-Electron Energy =                 128.4670647757083941
    Total Energy =                       -134.6548917593990780
  Basis Set: (AUG-CC-PVTZ AUX)
    Blend: AUG-CC-PVTZ-RI
    Molecular point group: c1

    Geometry (in Angstrom), charge = 1, multiplicity = 1:

       Center              X                  Y                   Z               Mass
    ------------   -----------------  -----------------  -----------------  -----------------
         N           -0.014110039632     0.509234052696     0.000011047588    14.003074004430
         C            1.299853560368    -0.220961247304    -0.000001252412    12.000000000000
         C           -1.273911039632    -0.310839947304    -0.000004952412    12.000000000000
         H           -0.014109039632     1.130401052696     0.819625047588     1.007825032230
         H           -0.014108039632     1.130375052696    -0.819680952412     1.007825032230
         H            1.248273960368    -0.930847947304     0.895107047588     1.007825032230
         H            1.246954960368    -0.932875947304    -0.893702952412     1.007825032230
         H            2.102587960368     0.361649052696    -0.001421952412     1.007825032230
         H           -2.130804039632     0.361627052696     0.000385047588     1.007825032230
         H           -1.276024039632    -0.931586947304    -0.894597952412     1.007825032230
         H           -1.275615039632    -0.932151947304     0.894207047588     1.007825032230

  Basis Set: AUG-CC-PVTZ
    Blend: AUG-CC-PVTZ
  Basis Set: (AUG-CC-PVTZ AUX)
    Blend: AUG-CC-PVTZ-JKFIT
	 Reference Energy          =    -134.6548917593990780 [Eh]
	 Singles Energy            =      -0.0000000000000000 [Eh]
	 Same-Spin Energy          =      -0.1305806700625911 [Eh]
	 Opposite-Spin Energy      =      -0.5023203557361879 [Eh]
	 Correlation Energy        =      -0.6329010257987790 [Eh]
	 Total Energy              =    -135.2877927851978654 [Eh]

	 ================> DF-SCS-MP2 Energies <==================
	-----------------------------------------------------------
	 SCS Same-Spin Scale       =       0.3333333333333333 [-]
	 SCS Opposite-Spin Scale   =       1.2000000000000000 [-]
	 SCS Same-Spin Energy      =      -0.0435268900208637 [Eh]
	 SCS Opposite-Spin Energy  =      -0.6027844268834255 [Eh]
	 SCS Correlation Energy    =      -0.6463113169042891 [Eh]
	 SCS Total Energy          =    -135.3012030763033806 [Eh]
	-----------------------------------------------------------

  Dipole Moment: [D]
     X:    -0.0932      Y:     1.3602      Z:    -0.0001     Total:     1.3633

*** Psi4 exiting successfully. Buy a developer a beer!
