                               Psi4 1.3.2 release

  ==> Input File <==

--------------------------------------------------------------------------
#psi4
#
memory 32 gb

molecule  {
1 1
  N       -0.0000070     0.5428950     0.0000130
  C        1.2598200    -0.2771790    -0.0000010
  C       -1.2598080    -0.2771790    -0.0000030
  H       -0.0000059     1.1922877     0.7974493
  H       -0.0000050     1.1640360    -0.8196790
  H        1.2623770    -0.8971870     0.8951090
  H        1.2610580    -0.8992150    -0.8937010
  H        2.1166910     0.3953100    -0.0014200
  H       -2.1167010     0.3952880     0.0003870
  H       -1.2619210    -0.8979260    -0.8945960
  H       -1.2615120    -0.8984910     0.8942090
units angstrom
no_reorient  #important for SAPT in psi4, default
symmetry c1  #important for SAPT in psi4, default
}

set PROPERTIES_ORIGIN ["COM"]
properties('MP2/aug-cc-pvtz', properties = ['dipole'])
--------------------------------------------------------------------------

    Molecular point group: c1
  Charge       = 1
  Multiplicity = 1
  Basis Set: AUG-CC-PVTZ
    Blend: AUG-CC-PVTZ
  Basis Set: (AUG-CC-PVTZ AUX)
    Blend: AUG-CC-PVTZ-JKFIT

    Orbital Energies [Eh]
    ---------------------

    Doubly Occupied:

       1A    -15.893353     2A    -11.476349     3A    -11.476335
       4A     -1.513932     5A     -1.189529     6A     -1.130901
       7A     -0.975273     8A     -0.903432     9A     -0.843842
      10A     -0.776906    11A     -0.766385    12A     -0.757825
      13A     -0.751313

  @DF-RHF Final Energy:  -134.66930305763921

   => Energetics <=

    Nuclear Repulsion Energy =             90.9036330107006449
    One-Electron Energy =                -354.2351239126809332
    Two-Electron Energy =                 128.6621878443410480
    Total Energy =                       -134.6693030576392118
  Basis Set: (AUG-CC-PVTZ AUX)
    Blend: AUG-CC-PVTZ-RI
    Molecular point group: c1

    Geometry (in Angstrom), charge = 1, multiplicity = 1:

       Center              X                  Y                   Z               Mass
    ------------   -----------------  -----------------  -----------------  -----------------
         N           -0.000007584613     0.532029721050     0.000496694256    14.003074004430
         C            1.259819415387    -0.288044278950     0.000482694256    12.000000000000
         C           -1.259808584613    -0.288044278950     0.000480694256    12.000000000000
         H           -0.000006484613     1.181422421050     0.797932994256     1.007825032230
         H           -0.000005584613     1.153170721050    -0.819195305744     1.007825032230
         H            1.262376415387    -0.908052278950     0.895592694256     1.007825032230
         H            1.261057415387    -0.910080278950    -0.893217305744     1.007825032230
         H            2.116690415387     0.384444721050    -0.000936305744     1.007825032230
         H           -2.116701584613     0.384422721050     0.000870694256     1.007825032230
         H           -1.261921584613    -0.908791278950    -0.894112305744     1.007825032230
         H           -1.261512584613    -0.909356278950     0.894692694256     1.007825032230

  Basis Set: AUG-CC-PVTZ
    Blend: AUG-CC-PVTZ
  Basis Set: (AUG-CC-PVTZ AUX)
    Blend: AUG-CC-PVTZ-JKFIT
	 Reference Energy          =    -134.6693030576392118 [Eh]
	 Singles Energy            =      -0.0000000000000000 [Eh]
	 Same-Spin Energy          =      -0.1303751960468330 [Eh]
	 Opposite-Spin Energy      =      -0.5017080354497053 [Eh]
	 Correlation Energy        =      -0.6320832314965383 [Eh]
	 Total Energy              =    -135.3013862891357633 [Eh]

	 ================> DF-SCS-MP2 Energies <==================
	-----------------------------------------------------------
	 SCS Same-Spin Scale       =       0.3333333333333333 [-]
	 SCS Opposite-Spin Scale   =       1.2000000000000000 [-]
	 SCS Same-Spin Energy      =      -0.0434583986822777 [Eh]
	 SCS Opposite-Spin Energy  =      -0.6020496425396463 [Eh]
	 SCS Correlation Energy    =      -0.6455080412219240 [Eh]
	 SCS Total Energy          =    -135.3148110988611279 [Eh]
	-----------------------------------------------------------

  Dipole Moment: [D]
     X:     0.0000      Y:     1.4591      Z:    -0.0207     Total:     1.4593

*** Psi4 exiting successfully. Buy a developer a beer!
