                               Psi4 1.4a3.dev225

  ==> Input File <==

--------------------------------------------------------------------------
#psi4
#
memory 32 gb

molecule  {
1 1
  N        0.0000000     0.5403170    -0.0000070
  C       -1.2521080    -0.2767230     0.0000100
  C        1.2521080    -0.2767230    -0.0000030
  H       -0.0000040     1.1617250    -0.8174450
  H        0.0000038     1.1314860     0.7776123
  H       -1.2523940    -0.8957080    -0.8943280
  H       -1.2523830    -0.8956890     0.8943600
  H       -2.1045790     0.3988920     0.0000070
  H        2.1045790     0.3988920    -0.0000120
  H        1.2523910    -0.8956900     0.8943470
  H        1.2523860    -0.8957070    -0.8943410
units angstrom
no_reorient  #important for SAPT in psi4, default
symmetry c1  #important for SAPT in psi4, default
}

set PROPERTIES_ORIGIN ["COM"]
properties('MP2/aug-cc-pvtz', properties = ['dipole'])
--------------------------------------------------------------------------

    Molecular point group: c1
  Charge       = 1
  Multiplicity = 1
  Basis Set: AUG-CC-PVTZ
    Blend: AUG-CC-PVTZ
  Basis Set: (AUG-CC-PVTZ AUX)
    Blend: AUG-CC-PVTZ-JKFIT

    Orbital Energies [Eh]
    ---------------------

    Doubly Occupied:

       1A    -15.889741     2A    -11.475938     3A    -11.475925
       4A     -1.526557     5A     -1.192786     6A     -1.136356
       7A     -0.991407     8A     -0.906667     9A     -0.847334
      10A     -0.778478    11A     -0.768815    12A     -0.761641
      13A     -0.752201

  @DF-RHF Final Energy:  -134.66933270023833

   => Energetics <=

    Nuclear Repulsion Energy =             91.5522150659305680
    One-Electron Energy =                -355.4354069144383743
    Two-Electron Energy =                 129.2138591482694778
    Total Energy =                       -134.6693327002383285
  Basis Set: (AUG-CC-PVTZ AUX)
    Blend: AUG-CC-PVTZ-RI
    Molecular point group: c1

    Geometry (in Angstrom), charge = 1, multiplicity = 1:

       Center              X                  Y                   Z               Mass
    ------------   -----------------  -----------------  -----------------  -----------------
         N            0.000000004376     0.531002046931     0.000864042400    14.003074004430
         C           -1.252107995624    -0.286037953069     0.000881042400    12.000000000000
         C            1.252108004376    -0.286037953069     0.000868042400    12.000000000000
         H           -0.000003995624     1.152410046931    -0.816573957600     1.007825032230
         H            0.000003804376     1.122171046931     0.778483342400     1.007825032230
         H           -1.252393995624    -0.905022953069    -0.893456957600     1.007825032230
         H           -1.252382995624    -0.905003953069     0.895231042400     1.007825032230
         H           -2.104578995624     0.389577046931     0.000878042400     1.007825032230
         H            2.104579004376     0.389577046931     0.000859042400     1.007825032230
         H            1.252391004376    -0.905004953069     0.895218042400     1.007825032230
         H            1.252386004376    -0.905021953069    -0.893469957600     1.007825032230

  Basis Set: AUG-CC-PVTZ
    Blend: AUG-CC-PVTZ
  Basis Set: (AUG-CC-PVTZ AUX)
    Blend: AUG-CC-PVTZ-JKFIT
	 Reference Energy          =    -134.6693327002383285 [Eh]
	 Singles Energy            =      -0.0000000000000000 [Eh]
	 Same-Spin Energy          =      -0.1301994286688524 [Eh]
	 Opposite-Spin Energy      =      -0.5007541018137868 [Eh]
	 Correlation Energy        =      -0.6309535304826391 [Eh]
	 Total Energy              =    -135.3002862307209568 [Eh]

	 ================> DF-SCS-MP2 Energies <==================
	-----------------------------------------------------------
	 SCS Same-Spin Scale       =       0.3333333333333333 [-]
	 SCS Opposite-Spin Scale   =       1.2000000000000000 [-]
	 SCS Same-Spin Energy      =      -0.0433998095562841 [Eh]
	 SCS Opposite-Spin Energy  =      -0.6009049221765441 [Eh]
	 SCS Correlation Energy    =      -0.6443047317328282 [Eh]
	 SCS Total Energy          =    -135.3136374319711592 [Eh]
	-----------------------------------------------------------

  Dipole Moment: [D]
     X:    -0.0000      Y:     1.4088      Z:    -0.0501     Total:     1.4097

*** Psi4 exiting successfully. Buy a developer a beer!
