                               Psi4 1.3.2 release

  ==> Input File <==

--------------------------------------------------------------------------
#psi4
#
memory 32 gb

molecule  {
1 1
  N       -0.0000070     0.5428950     0.0000130
  C        1.2453159    -0.2990411    -0.0000014
  C       -1.2598080    -0.2771790    -0.0000030
  H       -0.0000060     1.1640620     0.8196270
  H       -0.0000050     1.1640360    -0.8196790
  H        1.2623770    -0.8971870     0.8951090
  H        1.2610580    -0.8992150    -0.8937010
  H        2.1166910     0.3953100    -0.0014200
  H       -2.1167010     0.3952880     0.0003870
  H       -1.2619210    -0.8979260    -0.8945960
  H       -1.2615120    -0.8984910     0.8942090
units angstrom
no_reorient  #important for SAPT in psi4, default
symmetry c1  #important for SAPT in psi4, default
}

set PROPERTIES_ORIGIN ["COM"]
properties('MP2/aug-cc-pvtz', properties = ['dipole'])
--------------------------------------------------------------------------

    Molecular point group: c1
  Charge       = 1
  Multiplicity = 1
  Basis Set: AUG-CC-PVTZ
    Blend: AUG-CC-PVTZ
  Basis Set: (AUG-CC-PVTZ AUX)
    Blend: AUG-CC-PVTZ-JKFIT

    Orbital Energies [Eh]
    ---------------------

    Doubly Occupied:

       1A    -15.893536     2A    -11.476370     3A    -11.475858
       4A     -1.514145     5A     -1.188711     6A     -1.130804
       7A     -0.979463     8A     -0.900157     9A     -0.844599
      10A     -0.781731    11A     -0.765113    12A     -0.761635
      13A     -0.744123

  @DF-RHF Final Energy:  -134.66863618058940

   => Energetics <=

    Nuclear Repulsion Energy =             90.9738927705802922
    One-Electron Energy =                -354.3725707341350244
    Two-Electron Energy =                 128.7300417829653441
    Total Energy =                       -134.6686361805894023
  Basis Set: (AUG-CC-PVTZ AUX)
    Blend: AUG-CC-PVTZ-RI
    Molecular point group: c1

    Geometry (in Angstrom), charge = 1, multiplicity = 1:

       Center              X                  Y                   Z               Mass
    ------------   -----------------  -----------------  -----------------  -----------------
         N            0.003770701575     0.538342268769     0.000011594633    14.003074004430
         C            1.249093601575    -0.303593831231    -0.000002805367    12.000000000000
         C           -1.256030298425    -0.281731731231    -0.000004405367    12.000000000000
         H            0.003771701575     1.159509268769     0.819625594633     1.007825032230
         H            0.003772701575     1.159483268769    -0.819680405367     1.007825032230
         H            1.266154701575    -0.901739731231     0.895107594633     1.007825032230
         H            1.264835701575    -0.903767731231    -0.893702405367     1.007825032230
         H            2.120468701575     0.390757268769    -0.001421405367     1.007825032230
         H           -2.112923298425     0.390735268769     0.000385594633     1.007825032230
         H           -1.258143298425    -0.902478731231    -0.894597405367     1.007825032230
         H           -1.257734298425    -0.903043731231     0.894207594633     1.007825032230

  Basis Set: AUG-CC-PVTZ
    Blend: AUG-CC-PVTZ
  Basis Set: (AUG-CC-PVTZ AUX)
    Blend: AUG-CC-PVTZ-JKFIT
	 Reference Energy          =    -134.6686361805894023 [Eh]
	 Singles Energy            =      -0.0000000000000000 [Eh]
	 Same-Spin Energy          =      -0.1303984623316008 [Eh]
	 Opposite-Spin Energy      =      -0.5017820349556488 [Eh]
	 Correlation Energy        =      -0.6321804972872496 [Eh]
	 Total Energy              =    -135.3008166778766395 [Eh]

	 ================> DF-SCS-MP2 Energies <==================
	-----------------------------------------------------------
	 SCS Same-Spin Scale       =       0.3333333333333333 [-]
	 SCS Opposite-Spin Scale   =       1.2000000000000000 [-]
	 SCS Same-Spin Energy      =      -0.0434661541105336 [Eh]
	 SCS Opposite-Spin Energy  =      -0.6021384419467785 [Eh]
	 SCS Correlation Energy    =      -0.6456045960573120 [Eh]
	 SCS Total Energy          =    -135.3142407766467272 [Eh]
	-----------------------------------------------------------

  Dipole Moment: [D]
     X:     0.0166      Y:     1.4519      Z:    -0.0001     Total:     1.4520

*** Psi4 exiting successfully. Buy a developer a beer!
