                               Psi4 1.4a3.dev225

  ==> Input File <==

--------------------------------------------------------------------------
#psi4
#
memory 32 gb

molecule  {
1 1
  N        0.0000000     0.5403170    -0.0000070
  C       -1.2521080    -0.2767230     0.0000100
  C        1.2521080    -0.2767230    -0.0000030
  H       -0.0000040     1.1617250    -0.8174450
  H        0.0000041     1.1738500     0.8333375
  H       -1.2523940    -0.8957080    -0.8943280
  H       -1.2523830    -0.8956890     0.8943600
  H       -2.1045790     0.3988920     0.0000070
  H        2.1045790     0.3988920    -0.0000120
  H        1.2523910    -0.8956900     0.8943470
  H        1.2523860    -0.8957070    -0.8943410
units angstrom
no_reorient  #important for SAPT in psi4, default
symmetry c1  #important for SAPT in psi4, default
}

set PROPERTIES_ORIGIN ["COM"]
properties('MP2/aug-cc-pvtz', properties = ['dipole'])
--------------------------------------------------------------------------

    Molecular point group: c1
  Charge       = 1
  Multiplicity = 1
  Basis Set: AUG-CC-PVTZ
    Blend: AUG-CC-PVTZ
  Basis Set: (AUG-CC-PVTZ AUX)
    Blend: AUG-CC-PVTZ-JKFIT

    Orbital Energies [Eh]
    ---------------------

    Doubly Occupied:

       1A    -15.894619     2A    -11.475102     3A    -11.475089
       4A     -1.515580     5A     -1.191610     6A     -1.128613
       7A     -0.977751     8A     -0.903580     9A     -0.845668
      10A     -0.777600    11A     -0.765887    12A     -0.757777
      13A     -0.751294

  @DF-RHF Final Energy:  -134.66878242277247

   => Energetics <=

    Nuclear Repulsion Energy =             91.1914854222593192
    One-Electron Energy =                -354.8001963644414332
    Two-Electron Energy =                 128.9399285194096763
    Total Energy =                       -134.6687824227724661
  Basis Set: (AUG-CC-PVTZ AUX)
    Blend: AUG-CC-PVTZ-RI
    Molecular point group: c1

    Geometry (in Angstrom), charge = 1, multiplicity = 1:

       Center              X                  Y                   Z               Mass
    ------------   -----------------  -----------------  -----------------  -----------------
         N           -0.000000002188     0.530075207146    -0.000355113781    14.003074004430
         C           -1.252108002188    -0.286964792854    -0.000338113781    12.000000000000
         C            1.252107997812    -0.286964792854    -0.000351113781    12.000000000000
         H           -0.000004002188     1.151483207146    -0.817793113781     1.007825032230
         H            0.000004097812     1.163608207146     0.832989386219     1.007825032230
         H           -1.252394002188    -0.905949792854    -0.894676113781     1.007825032230
         H           -1.252383002188    -0.905930792854     0.894011886219     1.007825032230
         H           -2.104579002188     0.388650207146    -0.000341113781     1.007825032230
         H            2.104578997812     0.388650207146    -0.000360113781     1.007825032230
         H            1.252390997812    -0.905931792854     0.893998886219     1.007825032230
         H            1.252385997812    -0.905948792854    -0.894689113781     1.007825032230

  Basis Set: AUG-CC-PVTZ
    Blend: AUG-CC-PVTZ
  Basis Set: (AUG-CC-PVTZ AUX)
    Blend: AUG-CC-PVTZ-JKFIT
	 Reference Energy          =    -134.6687824227724661 [Eh]
	 Singles Energy            =      -0.0000000000000000 [Eh]
	 Same-Spin Energy          =      -0.1305897867844711 [Eh]
	 Opposite-Spin Energy      =      -0.5019361337021790 [Eh]
	 Correlation Energy        =      -0.6325259204866501 [Eh]
	 Total Energy              =    -135.3013083432591088 [Eh]

	 ================> DF-SCS-MP2 Energies <==================
	-----------------------------------------------------------
	 SCS Same-Spin Scale       =       0.3333333333333333 [-]
	 SCS Opposite-Spin Scale   =       1.2000000000000000 [-]
	 SCS Same-Spin Energy      =      -0.0435299289281570 [Eh]
	 SCS Opposite-Spin Energy  =      -0.6023233604426148 [Eh]
	 SCS Correlation Energy    =      -0.6458532893707718 [Eh]
	 SCS Total Energy          =    -135.3146357121432288 [Eh]
	-----------------------------------------------------------

  Dipole Moment: [D]
     X:     0.0000      Y:     1.4651      Z:     0.0203     Total:     1.4652

*** Psi4 exiting successfully. Buy a developer a beer!
