                               Psi4 1.3.2 release

  ==> Input File <==

--------------------------------------------------------------------------
#psi4
#
memory 32 gb

molecule  {
1 1
  N       -0.0000070     0.5428950     0.0000130
  C        1.2519555    -0.2888415     0.0221453
  C       -1.2598080    -0.2771790    -0.0000030
  H       -0.0000060     1.1640620     0.8196270
  H       -0.0000050     1.1640360    -0.8196790
  H        1.2623770    -0.8971870     0.8951090
  H        1.2610580    -0.8992150    -0.8937010
  H        2.1166910     0.3953100    -0.0014200
  H       -2.1167010     0.3952880     0.0003870
  H       -1.2619210    -0.8979260    -0.8945960
  H       -1.2615120    -0.8984910     0.8942090
units angstrom
no_reorient  #important for SAPT in psi4, default
symmetry c1  #important for SAPT in psi4, default
}

set PROPERTIES_ORIGIN ["COM"]
properties('MP2/aug-cc-pvtz', properties = ['dipole'])
--------------------------------------------------------------------------

    Molecular point group: c1
  Charge       = 1
  Multiplicity = 1
  Basis Set: AUG-CC-PVTZ
    Blend: AUG-CC-PVTZ
  Basis Set: (AUG-CC-PVTZ AUX)
    Blend: AUG-CC-PVTZ-JKFIT

    Orbital Energies [Eh]
    ---------------------

    Doubly Occupied:

       1A    -15.893508     2A    -11.476362     3A    -11.476040
       4A     -1.514104     5A     -1.189170     6A     -1.130260
       7A     -0.979189     8A     -0.900907     9A     -0.844767
      10A     -0.780290    11A     -0.765954    12A     -0.758753
      13A     -0.747001

  @DF-RHF Final Energy:  -134.66860284305199

   => Energetics <=

    Nuclear Repulsion Energy =             90.9496929219660473
    One-Electron Energy =                -354.3239817578720476
    Two-Electron Energy =                 128.7056859928540007
    Total Energy =                       -134.6686028430519855
  Basis Set: (AUG-CC-PVTZ AUX)
    Blend: AUG-CC-PVTZ-RI
    Molecular point group: c1

    Geometry (in Angstrom), charge = 1, multiplicity = 1:

       Center              X                  Y                   Z               Mass
    ------------   -----------------  -----------------  -----------------  -----------------
         N            0.002041101362     0.535685296914    -0.005757568724    14.003074004430
         C            1.254003601362    -0.296051203086     0.016374731276    12.000000000000
         C           -1.257759898638    -0.284388703086    -0.005773568724    12.000000000000
         H            0.002042101362     1.156852296914     0.813856431276     1.007825032230
         H            0.002043101362     1.156826296914    -0.825449568724     1.007825032230
         H            1.264425101362    -0.904396703086     0.889338431276     1.007825032230
         H            1.263106101362    -0.906424703086    -0.899471568724     1.007825032230
         H            2.118739101362     0.388100296914    -0.007190568724     1.007825032230
         H           -2.114652898638     0.388078296914    -0.005383568724     1.007825032230
         H           -1.259872898638    -0.905135703086    -0.900366568724     1.007825032230
         H           -1.259463898638    -0.905700703086     0.888438431276     1.007825032230

  Basis Set: AUG-CC-PVTZ
    Blend: AUG-CC-PVTZ
  Basis Set: (AUG-CC-PVTZ AUX)
    Blend: AUG-CC-PVTZ-JKFIT
	 Reference Energy          =    -134.6686028430519855 [Eh]
	 Singles Energy            =      -0.0000000000000000 [Eh]
	 Same-Spin Energy          =      -0.1303950646065231 [Eh]
	 Opposite-Spin Energy      =      -0.5017714610401255 [Eh]
	 Correlation Energy        =      -0.6321665256466487 [Eh]
	 Total Energy              =    -135.3007693686986386 [Eh]

	 ================> DF-SCS-MP2 Energies <==================
	-----------------------------------------------------------
	 SCS Same-Spin Scale       =       0.3333333333333333 [-]
	 SCS Opposite-Spin Scale   =       1.2000000000000000 [-]
	 SCS Same-Spin Energy      =      -0.0434650215355077 [Eh]
	 SCS Opposite-Spin Energy  =      -0.6021257532481505 [Eh]
	 SCS Correlation Energy    =      -0.6455907747836582 [Eh]
	 SCS Total Energy          =    -135.3141936178356559 [Eh]
	-----------------------------------------------------------

  Dipole Moment: [D]
     X:     0.0089      Y:     1.4443      Z:    -0.0183     Total:     1.4444

*** Psi4 exiting successfully. Buy a developer a beer!
