                               Psi4 1.3.2 release

  ==> Input File <==

--------------------------------------------------------------------------
#psi4
#
memory 32 gb

molecule  {
1 1
  N       -0.0000070     0.5428950     0.0000130
  C        1.2598200    -0.2771790    -0.0000010
  C       -1.2598080    -0.2771790    -0.0000030
  H       -0.0000061     1.1350795     0.8408061
  H       -0.0000050     1.1640360    -0.8196790
  H        1.2623770    -0.8971870     0.8951090
  H        1.2610580    -0.8992150    -0.8937010
  H        2.1166910     0.3953100    -0.0014200
  H       -2.1167010     0.3952880     0.0003870
  H       -1.2619210    -0.8979260    -0.8945960
  H       -1.2615120    -0.8984910     0.8942090
units angstrom
no_reorient  #important for SAPT in psi4, default
symmetry c1  #important for SAPT in psi4, default
}

set PROPERTIES_ORIGIN ["COM"]
properties('MP2/aug-cc-pvtz', properties = ['dipole'])
--------------------------------------------------------------------------

    Molecular point group: c1
  Charge       = 1
  Multiplicity = 1
  Basis Set: AUG-CC-PVTZ
    Blend: AUG-CC-PVTZ
  Basis Set: (AUG-CC-PVTZ AUX)
    Blend: AUG-CC-PVTZ-JKFIT

    Orbital Energies [Eh]
    ---------------------

    Doubly Occupied:

       1A    -15.893466     2A    -11.476188     3A    -11.476174
       4A     -1.514151     5A     -1.189790     6A     -1.128119
       7A     -0.982452     8A     -0.900444     9A     -0.843930
      10A     -0.777286    11A     -0.764334    12A     -0.759187
      13A     -0.751369

  @DF-RHF Final Energy:  -134.66930437022765

   => Energetics <=

    Nuclear Repulsion Energy =             90.9395890825632733
    One-Electron Energy =                -354.3040063489756903
    Two-Electron Energy =                 128.6951128961847814
    Total Energy =                       -134.6693043702276498
  Basis Set: (AUG-CC-PVTZ AUX)
    Blend: AUG-CC-PVTZ-RI
    Molecular point group: c1

    Geometry (in Angstrom), charge = 1, multiplicity = 1:

       Center              X                  Y                   Z               Mass
    ------------   -----------------  -----------------  -----------------  -----------------
         N           -0.000007580237     0.533281322311    -0.000451866012    14.003074004430
         C            1.259819419763    -0.286792677689    -0.000465866012    12.000000000000
         C           -1.259808580237    -0.286792677689    -0.000467866012    12.000000000000
         H           -0.000006680237     1.125465822311     0.840341233988     1.007825032230
         H           -0.000005580237     1.154422322311    -0.820143866012     1.007825032230
         H            1.262376419763    -0.906800677689     0.894644133988     1.007825032230
         H            1.261057419763    -0.908828677689    -0.894165866012     1.007825032230
         H            2.116690419763     0.385696322311    -0.001884866012     1.007825032230
         H           -2.116701580237     0.385674322311    -0.000077866012     1.007825032230
         H           -1.261921580237    -0.907539677689    -0.895060866012     1.007825032230
         H           -1.261512580237    -0.908104677689     0.893744133988     1.007825032230

  Basis Set: AUG-CC-PVTZ
    Blend: AUG-CC-PVTZ
  Basis Set: (AUG-CC-PVTZ AUX)
    Blend: AUG-CC-PVTZ-JKFIT
	 Reference Energy          =    -134.6693043702276498 [Eh]
	 Singles Energy            =      -0.0000000000000000 [Eh]
	 Same-Spin Energy          =      -0.1303920452713387 [Eh]
	 Opposite-Spin Energy      =      -0.5017513871134422 [Eh]
	 Correlation Energy        =      -0.6321434323847810 [Eh]
	 Total Energy              =    -135.3014478026124436 [Eh]

	 ================> DF-SCS-MP2 Energies <==================
	-----------------------------------------------------------
	 SCS Same-Spin Scale       =       0.3333333333333333 [-]
	 SCS Opposite-Spin Scale   =       1.2000000000000000 [-]
	 SCS Same-Spin Energy      =      -0.0434640150904462 [Eh]
	 SCS Opposite-Spin Energy  =      -0.6021016645361307 [Eh]
	 SCS Correlation Energy    =      -0.6455656796265770 [Eh]
	 SCS Total Energy          =    -135.3148700498542212 [Eh]
	-----------------------------------------------------------

  Dipole Moment: [D]
     X:     0.0000      Y:     1.4084      Z:     0.0191     Total:     1.4086

*** Psi4 exiting successfully. Buy a developer a beer!
