                               Psi4 1.3.2 release

  ==> Input File <==

--------------------------------------------------------------------------
#psi4
#
memory 32 gb

molecule  {
1 1
  N       -0.0000070     0.5428950     0.0000130
  C        1.2598200    -0.2771790    -0.0000010
  C       -1.2598080    -0.2771790    -0.0000030
  H       -0.0000063     1.0749862     0.8800667
  H       -0.0000050     1.1640360    -0.8196790
  H        1.2623770    -0.8971870     0.8951090
  H        1.2610580    -0.8992150    -0.8937010
  H        2.1166910     0.3953100    -0.0014200
  H       -2.1167010     0.3952880     0.0003870
  H       -1.2619210    -0.8979260    -0.8945960
  H       -1.2615120    -0.8984910     0.8942090
units angstrom
no_reorient  #important for SAPT in psi4, default
symmetry c1  #important for SAPT in psi4, default
}

set PROPERTIES_ORIGIN ["COM"]
properties('MP2/aug-cc-pvtz', properties = ['dipole'])
--------------------------------------------------------------------------

    Molecular point group: c1
  Charge       = 1
  Multiplicity = 1
  Basis Set: AUG-CC-PVTZ
    Blend: AUG-CC-PVTZ
  Basis Set: (AUG-CC-PVTZ AUX)
    Blend: AUG-CC-PVTZ-JKFIT

    Orbital Energies [Eh]
    ---------------------

    Doubly Occupied:

       1A    -15.893458     2A    -11.476079     3A    -11.476066
       4A     -1.514538     5A     -1.190089     6A     -1.125459
       7A     -0.989466     8A     -0.897508     9A     -0.844014
      10A     -0.777732    11A     -0.763380    12A     -0.759046
      13A     -0.751452

  @DF-RHF Final Energy:  -134.66807951160257

   => Energetics <=

    Nuclear Repulsion Energy =             90.9802245264249194
    One-Electron Energy =                -354.3800349899072444
    Two-Electron Energy =                 128.7317309518797401
    Total Energy =                       -134.6680795116025706
  Basis Set: (AUG-CC-PVTZ AUX)
    Blend: AUG-CC-PVTZ-RI
    Molecular point group: c1

    Geometry (in Angstrom), charge = 1, multiplicity = 1:

       Center              X                  Y                   Z               Mass
    ------------   -----------------  -----------------  -----------------  -----------------
         N           -0.000007575862     0.534596043803    -0.001310809599    14.003074004430
         C            1.259819424138    -0.285477956197    -0.001324809599    12.000000000000
         C           -1.259808575862    -0.285477956197    -0.001326809599    12.000000000000
         H           -0.000006875862     1.066687243803     0.878742890401     1.007825032230
         H           -0.000005575862     1.155737043803    -0.821002809599     1.007825032230
         H            1.262376424138    -0.905485956197     0.893785190401     1.007825032230
         H            1.261057424138    -0.907513956197    -0.895024809599     1.007825032230
         H            2.116690424138     0.387011043803    -0.002743809599     1.007825032230
         H           -2.116701575862     0.386989043803    -0.000936809599     1.007825032230
         H           -1.261921575862    -0.906224956197    -0.895919809599     1.007825032230
         H           -1.261512575862    -0.906789956197     0.892885190401     1.007825032230

  Basis Set: AUG-CC-PVTZ
    Blend: AUG-CC-PVTZ
  Basis Set: (AUG-CC-PVTZ AUX)
    Blend: AUG-CC-PVTZ-JKFIT
	 Reference Energy          =    -134.6680795116025706 [Eh]
	 Singles Energy            =      -0.0000000000000000 [Eh]
	 Same-Spin Energy          =      -0.1304578111690874 [Eh]
	 Opposite-Spin Energy      =      -0.5018787066442977 [Eh]
	 Correlation Energy        =      -0.6323365178133851 [Eh]
	 Total Energy              =    -135.3004160294159419 [Eh]

	 ================> DF-SCS-MP2 Energies <==================
	-----------------------------------------------------------
	 SCS Same-Spin Scale       =       0.3333333333333333 [-]
	 SCS Opposite-Spin Scale   =       1.2000000000000000 [-]
	 SCS Same-Spin Energy      =      -0.0434859370563625 [Eh]
	 SCS Opposite-Spin Energy  =      -0.6022544479731572 [Eh]
	 SCS Correlation Energy    =      -0.6457403850295197 [Eh]
	 SCS Total Energy          =    -135.3138198966320829 [Eh]
	-----------------------------------------------------------

  Dipole Moment: [D]
     X:     0.0000      Y:     1.3558      Z:     0.0533     Total:     1.3568

*** Psi4 exiting successfully. Buy a developer a beer!
