                               Psi4 1.4a3.dev225

  ==> Input File <==

--------------------------------------------------------------------------
#psi4
#
memory 32 gb

molecule  {
1 1
  N        0.0000000     0.5403170    -0.0000070
  C       -1.2688575    -0.2876526     0.0000102
  C        1.2521080    -0.2767230    -0.0000030
  H       -0.0000040     1.1617250    -0.8174450
  H        0.0000040     1.1617460     0.8174160
  H       -1.2523940    -0.8957080    -0.8943280
  H       -1.2523830    -0.8956890     0.8943600
  H       -2.1045790     0.3988920     0.0000070
  H        2.1045790     0.3988920    -0.0000120
  H        1.2523910    -0.8956900     0.8943470
  H        1.2523860    -0.8957070    -0.8943410
units angstrom
no_reorient  #important for SAPT in psi4, default
symmetry c1  #important for SAPT in psi4, default
}

set PROPERTIES_ORIGIN ["COM"]
properties('MP2/aug-cc-pvtz', properties = ['dipole'])
--------------------------------------------------------------------------

    Molecular point group: c1
  Charge       = 1
  Multiplicity = 1
  Basis Set: AUG-CC-PVTZ
    Blend: AUG-CC-PVTZ
  Basis Set: (AUG-CC-PVTZ AUX)
    Blend: AUG-CC-PVTZ-JKFIT

    Orbital Energies [Eh]
    ---------------------

    Doubly Occupied:

       1A    -15.891680     2A    -11.476226     3A    -11.474584
       4A     -1.513660     5A     -1.191083     6A     -1.130922
       7A     -0.978989     8A     -0.901588     9A     -0.842718
      10A     -0.780481    11A     -0.768372    12A     -0.760693
      13A     -0.751673

  @DF-RHF Final Energy:  -134.66954683814814

   => Energetics <=

    Nuclear Repulsion Energy =             91.0513959306881020
    One-Electron Energy =                -354.5165494366858070
    Two-Electron Energy =                 128.7956066678495688
    Total Energy =                       -134.6695468381481362
  Basis Set: (AUG-CC-PVTZ AUX)
    Blend: AUG-CC-PVTZ-RI
    Molecular point group: c1

    Geometry (in Angstrom), charge = 1, multiplicity = 1:

       Center              X                  Y                   Z               Mass
    ------------   -----------------  -----------------  -----------------  -----------------
         N            0.004363205428     0.533187153654    -0.000006835231    14.003074004430
         C           -1.264494294572    -0.294782446346     0.000010364769    12.000000000000
         C            1.256471205428    -0.283852846346    -0.000002835231    12.000000000000
         H            0.004359205428     1.154595153654    -0.817444835231     1.007825032230
         H            0.004367205428     1.154616153654     0.817416164769     1.007825032230
         H           -1.248030794572    -0.902837846346    -0.894327835231     1.007825032230
         H           -1.248019794572    -0.902818846346     0.894360164769     1.007825032230
         H           -2.100215794572     0.391762153654     0.000007164769     1.007825032230
         H            2.108942205428     0.391762153654    -0.000011835231     1.007825032230
         H            1.256754205428    -0.902819846346     0.894347164769     1.007825032230
         H            1.256749205428    -0.902836846346    -0.894340835231     1.007825032230

  Basis Set: AUG-CC-PVTZ
    Blend: AUG-CC-PVTZ
  Basis Set: (AUG-CC-PVTZ AUX)
    Blend: AUG-CC-PVTZ-JKFIT
	 Reference Energy          =    -134.6695468381481362 [Eh]
	 Singles Energy            =      -0.0000000000000000 [Eh]
	 Same-Spin Energy          =      -0.1303422122417811 [Eh]
	 Opposite-Spin Energy      =      -0.5015951251051922 [Eh]
	 Correlation Energy        =      -0.6319373373469733 [Eh]
	 Total Energy              =    -135.3014841754951192 [Eh]

	 ================> DF-SCS-MP2 Energies <==================
	-----------------------------------------------------------
	 SCS Same-Spin Scale       =       0.3333333333333333 [-]
	 SCS Opposite-Spin Scale   =       1.2000000000000000 [-]
	 SCS Same-Spin Energy      =      -0.0434474040805937 [Eh]
	 SCS Opposite-Spin Energy  =      -0.6019141501262306 [Eh]
	 SCS Correlation Energy    =      -0.6453615542068243 [Eh]
	 SCS Total Energy          =    -135.3149083923549654 [Eh]
	-----------------------------------------------------------

  Dipole Moment: [D]
     X:    -0.0211      Y:     1.4403      Z:    -0.0000     Total:     1.4405

*** Psi4 exiting successfully. Buy a developer a beer!
